Title
43206
    1CHL1    C3    1   4.028   4.283   5.994 -0.3971  0.2628 -0.1967
    1CHL1    H3    2   3.921   4.295   6.019 -0.5325 -2.4704  0.7010
    1CHL1    O3    3   4.094   4.325   6.118 -0.2435 -1.0372  0.0974
    1CHL1   H3'    4   4.185   4.317   6.088  0.2574 -0.0436  1.3031
    1CHL1    C4    5   4.062   4.136   5.960 -0.2766  0.1970 -0.0686
    1CHL1   H4A    6   4.171   4.119   5.972 -0.4668  0.6331  2.5983
    1CHL1   H4B    7   4.030   4.062   6.037 -0.4924 -0.1451 -0.4830
    1CHL1    C5    8   4.015   4.106   5.819 -0.0213 -0.2877 -0.2168
    1CHL1    C6    9   3.946   3.995   5.793 -0.6427 -0.5460  0.2894
    1CHL1    H6   10   3.928   3.924   5.876 -1.6237  1.1094  1.5163
    1CHL1    C7   11   3.905   3.959   5.650 -0.3469 -0.0204 -0.6042
    1CHL1   H7A   12   3.899   3.849   5.634  2.8613 -0.5680  1.4569
    1CHL1   H7B   13   3.800   3.995   5.640  0.1861  1.8173  0.2219
    1CHL1    C8   14   3.994   4.028   5.540 -0.1224  0.6429 -0.0586
    1CHL1    H8   15   4.098   3.988   5.538  0.0692  1.1725 -1.6532
    1CHL1   C14   16   3.928   4.013   5.402 -0.2587  0.9329 -0.2780
    1CHL1   H14   17   3.834   4.068   5.422 -1.7828 -1.1253 -1.5548
    1CHL1   C15   18   3.880   3.872   5.358 -0.7359  0.0576  0.2194
    1CHL1  H15A   19   3.958   3.795   5.372 -0.0674  0.7381  0.2953
    1CHL1  H15B   20   3.784   3.843   5.405 -1.1745 -1.9468 -1.8219
    1CHL1   C16   21   3.849   3.895   5.206 -0.3872 -0.1287 -0.4230
    1CHL1  H16A   22   3.900   3.823   5.139 -0.9210  0.1787 -1.1700
    1CHL1  H16B   23   3.740   3.885   5.186 -0.8993  2.0853  1.1238
    1CHL1   C17   24   3.886   4.041   5.173  0.4189  0.2291  0.5290
    1CHL1   H17   25   3.799   4.107   5.195  0.3173  0.5261 -0.7067
    1CHL1   C13   26   3.988   4.078   5.280 -0.8333  0.3811  0.3571
    1CHL1   C18   27   4.128   4.011   5.250 -0.0902 -0.6851  0.1882
    1CHL1  H18A   28   4.185   4.073   5.178  1.3896  0.5927  2.3857
    1CHL1  H18B   29   4.187   4.027   5.343  0.7390  0.4033 -0.5140
    1CHL1  H18C   30   4.116   3.903   5.229 -2.8066 -0.3965 -0.0192
    1CHL1   C12   31   4.008   4.227   5.317 -0.2087 -0.0300 -0.1384
    1CHL1  H12A   32   4.059   4.279   5.232  0.2026 -1.5436 -0.8297
    1CHL1  H12B   33   3.902   4.260   5.306 -0.0117  1.0337  1.1080
    1CHL1   C11   34   4.078   4.254   5.451 -1.1551  0.4219  0.6218
    1CHL1  H11A   35   4.184   4.229   5.432 -1.3505 -0.5341  0.7736
    1CHL1  H11B   36   4.071   4.360   5.483 -2.3377  0.6784 -0.4099
    1CHL1    C9   37   4.004   4.177   5.568 -0.2069  0.3904  0.3358
    1CHL1    H9   38   3.904   4.224   5.569 -0.0284  0.8936 -1.7723
    1CHL1   C10   39   4.063   4.202   5.709  0.7229 -0.3912 -1.4678
    1CHL1   C19   40   4.221   4.187   5.704  0.3599  0.0531  0.1850
    1CHL1  H19A   41   4.257   4.261   5.630 -1.6724 -3.0243 -4.0346
    1CHL1  H19B   42   4.267   4.203   5.805 -1.2569  2.0018  0.6532
    1CHL1  H19C   43   4.249   4.088   5.663  1.2546  1.0565 -1.6623
    1CHL1    C1   44   4.025   4.345   5.753 -0.1268  0.5354  0.4287
    1CHL1   H1A   45   4.078   4.410   5.681 -0.0594 -0.5030 -0.4690
    1CHL1   H1B   46   3.916   4.354   5.733  0.4274  3.6732 -1.6094
    1CHL1    C2   47   4.062   4.388   5.896  0.3663 -0.0665 -0.3589
    1CHL1   H2A   48   4.006   4.481   5.920  1.0504  0.1854  0.2582
    1CHL1   H2B   49   4.167   4.423   5.903 -0.4025  2.8259 -2.4954
    1CHL1   C20   50   3.916   4.059   5.019 -0.2351 -0.2229  0.2561
    1CHL1   H20   51   4.005   3.994   5.000  1.3670  1.7975  0.6497
    1CHL1   C21   52   3.945   4.214   4.989  0.1792  0.4564  0.1177
    1CHL1  H21A   53   3.971   4.233   4.882  0.2000 -1.8585 -0.3235
    1CHL1  H21B   54   4.026   4.259   5.050  0.6361  2.0741 -1.6251
    1CHL1  H21C   55   3.852   4.273   5.002 -0.4590 -0.2001 -1.2809
    1CHL1   C22   56   3.793   4.020   4.929 -0.5091 -0.8587 -0.4458
    1CHL1  H22A   57   3.756   3.917   4.946  0.7210 -0.9892  1.5497
    1CHL1  H22B   58   3.708   4.089   4.951 -1.5571 -1.8245 -1.3613
    1CHL1   C23   59   3.829   4.017   4.784 -0.5031  0.0681 -0.0913
    1CHL1  H23A   60   3.844   4.119   4.741 -0.3274 -0.0836 -0.3924
    1CHL1  H23B   61   3.922   3.957   4.769  1.1071  3.2349 -3.7820
    1CHL1   C24   62   3.721   3.966   4.699  0.2063  0.0873  0.6411
    1CHL1  H24A   63   3.703   3.857   4.713 -1.7216  0.4945  1.4660
    1CHL1  H24B   64   3.625   4.014   4.726 -0.2126 -0.8202  0.7905
    1CHL1   C25   65   3.736   4.012   4.550 -0.1669 -0.4257 -0.1276
    1CHL1   H25   66   3.782   4.113   4.553 -0.4939 -0.2280 -1.2554
    1CHL1   C26   67   3.838   3.919   4.480 -0.0525 -0.3679  0.8605
    1CHL1  H26A   68   3.865   3.953   4.377 -0.3436  0.8195  1.1699
    1CHL1  H26B   69   3.942   3.906   4.516 -0.2405 -0.8038  1.2427
    1CHL1  H26C   70   3.799   3.816   4.481 -2.6341  0.5611 -0.1385
    1CHL1   C27   71   3.594   4.012   4.484 -0.5252  0.5932  0.4063
    1CHL1  H27A   72   3.610   4.024   4.375  0.9978  3.9298  0.9401
    1CHL1  H27B   73   3.550   3.910   4.496  1.8393 -0.6296 -1.0177
    1CHL1  H27C   74   3.526   4.092   4.521 -0.7606  0.4478  0.2921
    2CHL1    C3   75   4.059   3.519   5.924  1.0973  0.7007  0.1150
    2CHL1    H3   76   4.029   3.626   5.930 -4.5589 -0.7070  0.0521
    2CHL1    O3   77   4.122   3.484   6.043  0.1039 -0.7287  0.4560
    2CHL1   H3'   78   4.174   3.408   6.016 -0.4468 -0.0566 -2.7234
    2CHL1    C4   79   3.943   3.420   5.896  0.3052 -0.2050 -0.0418
    2CHL1   H4A   80   3.984   3.318   5.910  2.0340  0.3204 -1.0708
    2CHL1   H4B   81   3.862   3.427   5.972 -1.2589 -1.4019 -1.5606
    2CHL1    C5   82   3.882   3.428   5.756  0.4658  0.5356 -0.2357
    2CHL1    C6   83   3.754   3.453   5.743 -0.8904  0.4142 -0.6388
    2CHL1    H6   84   3.697   3.461   5.837  0.9097 -2.8617  0.8140
    2CHL1    C7   85   3.687   3.471   5.616 -0.4495 -0.1797  0.0962
    2CHL1   H7A   86   3.584   3.430   5.614  0.3536 -2.3146  0.9885
    2CHL1   H7B   87   3.675   3.580   5.601  1.5683 -0.0971 -1.0874
    2CHL1    C8   88   3.764   3.412   5.493 -0.1644  0.1882 -0.5776
    2CHL1    H8   89   3.766   3.301   5.497  0.1856  0.2682  2.5940
    2CHL1   C14   90   3.709   3.478   5.369 -0.4811  0.1313 -0.0305
    2CHL1   H14   91   3.726   3.587   5.385  0.6071 -0.0117 -0.1931
    2CHL1   C15   92   3.563   3.458   5.331  0.9220 -0.1372 -0.2126
    2CHL1  H15A   93   3.543   3.349   5.334 -1.4808  0.2249 -1.5673
    2CHL1  H15B   94   3.486   3.517   5.387  1.5488 -0.4086  0.9443
    2CHL1   C16   95   3.562   3.501   5.178 -0.3101  0.1965  0.0352
    2CHL1  H16A   96   3.496   3.437   5.116 -0.2341  0.3196 -0.1741
    2CHL1  H16B   97   3.518   3.603   5.179  0.6256  0.6258 -0.9539
    2CHL1   C17   98   3.706   3.503   5.126 -0.1541 -0.6769  0.1387
    2CHL1   H17   99   3.735   3.610   5.134  0.2327 -0.8032  0.4643
    2CHL1   C13  100   3.791   3.430   5.240 -0.7517  0.2284 -0.7516
    2CHL1   C18  101   3.776   3.277   5.223 -0.3303 -0.0894 -0.8419
    2CHL1  H18A  102   3.816   3.247   5.124 -2.8872 -0.0717 -1.9166
    2CHL1  H18B  103   3.846   3.233   5.297 -1.7720 -1.2652 -0.1523
    2CHL1  H18C  104   3.672   3.241   5.242 -0.4234  0.3477 -0.5221
    2CHL1   C12  105   3.935   3.467   5.258  0.4871 -0.4023  0.4574
    2CHL1  H12A  106   3.992   3.417   5.176  0.1385  0.3994 -0.2896
    2CHL1  H12B  107   3.955   3.576   5.246  1.4533 -0.8320 -2.2777
    2CHL1   C11  108   4.004   3.425   5.398  0.3813 -0.3410 -0.3945
    2CHL1  H11A  109   4.011   3.314   5.395 -1.6037 -0.4991 -0.2104
    2CHL1  H11B  110   4.104   3.472   5.406  0.5545 -0.4489 -1.7895
    2CHL1    C9  111   3.911   3.454   5.514 -0.2438  0.0951  0.2071
    2CHL1    H9  112   3.901   3.564   5.515  0.8112  0.2233 -1.5703
    2CHL1   C10  113   3.981   3.417   5.644  0.3753  0.3813 -1.0884
    2CHL1   C19  114   4.033   3.269   5.633 -0.6175 -0.7832  0.7228
    2CHL1  H19A  115   4.082   3.238   5.728 -0.0117  1.5593  1.1986
    2CHL1  H19B  116   3.955   3.194   5.609 -0.8091 -0.9285  1.8075
    2CHL1  H19C  117   4.116   3.253   5.560 -0.4679 -3.9877  1.5080
    2CHL1    C1  118   4.098   3.512   5.677  0.6912  0.0230  0.8293
    2CHL1   H1A  119   4.187   3.502   5.611 -2.0331 -1.3888 -2.7904
    2CHL1   H1B  120   4.057   3.614   5.660  2.0957  1.0071  2.9950
    2CHL1    C2  121   4.165   3.493   5.815  0.1124 -0.4458  0.5963
    2CHL1   H2A  122   4.249   3.564   5.831 -1.0855  1.1027  0.2390
    2CHL1   H2B  123   4.213   3.394   5.824 -1.8362 -1.6083 -1.4274
    2CHL1   C20  124   3.729   3.477   4.972  0.1390  0.0988 -0.6799
    2CHL1   H20  125   3.766   3.374   4.952  0.7117 -0.1102  1.3560
    2CHL1   C21  126   3.846   3.575   4.931 -0.1931  0.5557 -0.1168
    2CHL1  H21A  127   3.798   3.675   4.924 -2.3155 -0.5179 -1.5201
    2CHL1  H21B  128   3.894   3.548   4.834  0.6505  0.9880  0.1845
    2CHL1  H21C  129   3.909   3.579   5.022 -0.4122 -1.4722  0.1609
    2CHL1   C22  130   3.600   3.507   4.892  0.1312 -0.1708 -0.0018
    2CHL1  H22A  131   3.520   3.434   4.918 -0.3458  0.7395  1.1124
    2CHL1  H22B  132   3.578   3.615   4.898 -0.8624 -0.3418 -0.4969
    2CHL1   C23  133   3.618   3.485   4.738 -0.2718  0.1072  0.1025
    2CHL1  H23A  134   3.695   3.550   4.691  0.5996 -1.2860 -0.4359
    2CHL1  H23B  135   3.662   3.383   4.736  0.7758  0.4647  2.5291
    2CHL1   C24  136   3.483   3.490   4.666 -0.0730  0.1758 -0.7396
    2CHL1  H24A  137   3.422   3.404   4.699 -0.1778  0.9942  1.2598
    2CHL1  H24B  138   3.429   3.580   4.702 -0.6360 -1.2690  2.2239
    2CHL1   C25  139   3.494   3.496   4.512 -0.4737  0.5471 -0.4909
    2CHL1   H25  140   3.556   3.416   4.465 -1.7618 -0.7557 -0.0085
    2CHL1   C26  141   3.351   3.483   4.449  0.1714 -0.0242 -0.5670
    2CHL1  H26A  142   3.367   3.512   4.343 -0.1545  1.2345 -0.2812
    2CHL1  H26B  143   3.329   3.375   4.461  0.4612 -0.0605 -0.3652
    2CHL1  H26C  144   3.272   3.548   4.493 -0.3878 -0.3966 -1.0269
    2CHL1   C27  145   3.546   3.632   4.452 -0.7490  0.3982  0.2349
    2CHL1  H27A  146   3.657   3.635   4.460 -0.6777 -0.2243 -0.4771
    2CHL1  H27B  147   3.522   3.630   4.344  2.1864  1.5753 -0.4642
    2CHL1  H27C  148   3.495   3.722   4.492 -2.4571  0.5265 -2.1085
    3CHL1    C3  149   3.601   3.956   5.957 -0.4182  0.3373  0.9801
    3CHL1    H3  150   3.698   3.946   5.904  0.4589  2.4330  2.1348
    3CHL1    O3  151   3.615   3.950   6.100 -0.7919  0.2983 -0.1211
    3CHL1   H3'  152   3.615   3.856   6.117  0.4066  0.4698  0.8698
    3CHL1    C4  153   3.530   4.095   5.909  0.5337  0.5906 -0.3194
    3CHL1   H4A  154   3.425   4.102   5.945  1.3131  1.1646  1.9592
    3CHL1   H4B  155   3.594   4.174   5.953 -0.3597 -0.1564  2.4715
    3CHL1    C5  156   3.511   4.097   5.752 -0.1021  0.8231 -0.3533
    3CHL1    C6  157   3.566   4.198   5.683 -0.5748 -0.0969  0.5726
    3CHL1    H6  158   3.629   4.274   5.730  1.6383 -2.1866  1.0830
    3CHL1    C7  159   3.554   4.203   5.534 -0.4100  0.6908  0.8288
    3CHL1   H7A  160   3.522   4.304   5.498 -1.4836 -1.2284 -4.0171
    3CHL1   H7B  161   3.654   4.184   5.491 -1.0593 -0.6573 -0.1274
    3CHL1    C8  162   3.443   4.111   5.470 -0.0071  0.3595  0.6561
    3CHL1    H8  163   3.349   4.164   5.493 -0.4904  0.2950 -1.0698
    3CHL1   C14  164   3.460   4.105   5.317 -0.7355 -0.2772  0.0269
    3CHL1   H14  165   3.567   4.084   5.297 -0.2538  1.1365  1.0649
    3CHL1   C15  166   3.442   4.242   5.235  0.0035  0.3871 -0.6589
    3CHL1  H15A  167   3.355   4.289   5.286 -0.9102 -2.0585  0.0918
    3CHL1  H15B  168   3.537   4.299   5.233 -0.7616  1.7831  1.2957
    3CHL1   C16  169   3.412   4.183   5.094 -0.1715 -0.4322 -0.3403
    3CHL1  H16A  170   3.310   4.212   5.061 -1.3802 -3.8598  0.2690
    3CHL1  H16B  171   3.483   4.216   5.015  0.6844 -3.0996 -0.7361
    3CHL1   C17  172   3.413   4.027   5.101 -0.4243 -0.1064 -0.4450
    3CHL1   H17  173   3.522   4.007   5.086 -0.1800 -0.3630  1.5542
    3CHL1   C13  174   3.370   3.996   5.245  0.7828 -0.4311  0.1253
    3CHL1   C18  175   3.218   4.041   5.271  0.9355  0.0626  0.3956
    3CHL1  H18A  176   3.161   3.992   5.189 -0.3561  4.7806 -1.6574
    3CHL1  H18B  177   3.174   4.008   5.368  1.3792  0.7365  0.8328
    3CHL1  H18C  178   3.208   4.151   5.262 -0.5650 -0.0910  0.1017
    3CHL1   C12  179   3.406   3.862   5.306  0.0609  0.4833 -0.4963
    3CHL1  H12A  180   3.341   3.783   5.261 -0.7391  0.6333  0.3668
    3CHL1  H12B  181   3.510   3.832   5.282 -0.4268 -2.3741  0.7356
    3CHL1   C11  182   3.382   3.865   5.454  0.2156  0.1379 -0.0526
    3CHL1  H11A  183   3.276   3.872   5.485 -0.0637 -0.1440 -0.9317
    3CHL1  H11B  184   3.424   3.770   5.494 -1.2017 -0.8088 -0.7875
    3CHL1    C9  185   3.456   3.973   5.526 -0.1473  0.2848  0.4822
    3CHL1    H9  186   3.563   3.945   5.516 -0.9318 -2.2246 -1.4797
    3CHL1   C10  187   3.437   3.973   5.682  0.0191 -0.0673 -0.8279
    3CHL1   C19  188   3.280   3.984   5.718 -0.5338 -0.8495 -0.6851
    3CHL1  H19A  189   3.241   4.068   5.657  2.9954  0.2164 -1.6100
    3CHL1  H19B  190   3.227   3.892   5.687 -4.3895  0.9503  0.2807
    3CHL1  H19C  191   3.259   4.005   5.825  1.3011 -0.7336 -0.3269
    3CHL1    C1  192   3.500   3.841   5.743 -0.7411 -0.4067  0.0011
    3CHL1   H1A  193   3.436   3.752   5.722  0.1963 -1.4894  1.6749
    3CHL1   H1B  194   3.600   3.824   5.698 -0.6810 -0.8735  0.3060
    3CHL1    C2  195   3.509   3.844   5.904 -0.0592 -0.4889  0.9161
    3CHL1   H2A  196   3.546   3.742   5.929 -1.4228 -1.3517 -0.4662
    3CHL1   H2B  197   3.408   3.860   5.947  0.1378 -1.5765  1.8129
    3CHL1   C20  198   3.341   3.945   4.994  0.6602  0.0417 -0.2246
    3CHL1   H20  199   3.243   3.911   5.035  1.2014  0.0672  1.1115
    3CHL1   C21  200   3.422   3.829   4.950  0.1244 -0.3491  0.5330
    3CHL1  H21A  201   3.498   3.843   4.871  1.1872  1.2205  1.8108
    3CHL1  H21B  202   3.355   3.757   4.898  0.1210  0.4166 -0.5274
    3CHL1  H21C  203   3.469   3.774   5.035  0.6065 -1.0128 -0.1560
    3CHL1   C22  204   3.278   4.029   4.874 -0.5467  0.3733  0.0087
    3CHL1  H22A  205   3.198   4.091   4.920 -0.2894  0.1302  0.8092
    3CHL1  H22B  206   3.362   4.092   4.838  0.4286 -1.6258 -1.3406
    3CHL1   C23  207   3.218   3.953   4.756 -0.3146 -0.0278  0.0940
    3CHL1  H23A  208   3.279   3.865   4.727  0.8326  0.8343 -0.1715
    3CHL1  H23B  209   3.121   3.919   4.797 -1.1983  0.0983 -1.8221
    3CHL1   C24  210   3.194   4.039   4.636 -0.3143  0.7130 -0.0849
    3CHL1  H24A  211   3.164   4.140   4.673 -0.2989 -0.3366  2.9013
    3CHL1  H24B  212   3.298   4.047   4.598 -1.1430  1.4972 -2.2706
    3CHL1   C25  213   3.104   3.983   4.521 -0.4495 -0.2521 -0.4863
    3CHL1   H25  214   3.006   3.965   4.571  0.2963 -0.3900  0.9520
    3CHL1   C26  215   3.083   4.075   4.411  0.5268 -0.2143  0.3427
    3CHL1  H26A  216   3.183   4.102   4.369 -0.4577  1.2549 -1.0981
    3CHL1  H26B  217   3.022   4.028   4.332 -0.3411  3.6930 -1.4541
    3CHL1  H26C  218   3.035   4.174   4.428  0.5972  0.3543 -2.5401
    3CHL1   C27  219   3.152   3.841   4.465 -0.0164  0.7096 -0.5899
    3CHL1  H27A  220   3.251   3.850   4.415 -0.1773  1.4708 -0.7772
    3CHL1  H27B  221   3.155   3.777   4.555 -2.0248 -0.8298 -1.5676
    3CHL1  H27C  222   3.074   3.813   4.390 -3.2581 -0.2721  2.9768
    4CHL1    C3  223   3.693   4.813   5.983  0.4348  0.2994  0.0773
    4CHL1    H3  224   3.707   4.923   5.986  0.1290  0.3525 -0.4421
    4CHL1    O3  225   3.656   4.772   6.113 -0.2202 -0.0539  0.3570
    4CHL1   H3'  226   3.592   4.701   6.105 -0.2715  0.1980 -1.6100
    4CHL1    C4  227   3.576   4.776   5.887 -0.1352  0.4264 -0.1795
    4CHL1   H4A  228   3.534   4.679   5.921  0.6163  0.3816  0.6348
    4CHL1   H4B  229   3.504   4.857   5.912  0.2776  0.4726  0.8599
    4CHL1    C5  230   3.604   4.783   5.736  0.3365  0.4036 -0.2853
    4CHL1    C6  231   3.533   4.861   5.652  0.2468 -0.3638  0.2905
    4CHL1    H6  232   3.464   4.935   5.694  0.4647  0.3500 -0.6004
    4CHL1    C7  233   3.560   4.866   5.503  0.7032  0.4678  0.1087
    4CHL1   H7A  234   3.472   4.889   5.438  0.4894  1.2705  0.6735
    4CHL1   H7B  235   3.622   4.954   5.479  0.9036  0.3576  0.2241
    4CHL1    C8  236   3.645   4.749   5.448 -0.4838 -0.2480 -0.4123
    4CHL1    H8  237   3.585   4.655   5.451  1.6490 -1.6331  0.8355
    4CHL1   C14  238   3.703   4.784   5.310  0.2388 -0.4810  1.8612
    4CHL1   H14  239   3.773   4.869   5.328 -1.2884  0.8477  1.6227
    4CHL1   C15  240   3.597   4.827   5.199 -1.1521 -0.3580 -0.2419
    4CHL1  H15A  241   3.504   4.771   5.220 -1.7872  0.6727 -0.3016
    4CHL1  H15B  242   3.574   4.935   5.212  3.6719  0.4714  2.7126
    4CHL1   C16  243   3.665   4.789   5.069 -0.4389 -0.3062  0.3185
    4CHL1  H16A  244   3.601   4.719   5.011  0.6496 -0.2488 -0.9767
    4CHL1  H16B  245   3.683   4.880   5.008 -3.2011 -1.6484 -2.5829
    4CHL1   C17  246   3.807   4.724   5.103  0.5998 -0.0253  0.0418
    4CHL1   H17  247   3.875   4.811   5.113 -0.7330  0.8634  1.6302
    4CHL1   C13  248   3.786   4.666   5.248  0.0966 -0.4192 -0.6203
    4CHL1   C18  249   3.710   4.532   5.232  0.3482 -0.1258  0.7693
    4CHL1  H18A  250   3.623   4.542   5.163  0.7749  0.1374  0.2613
    4CHL1  H18B  251   3.770   4.450   5.186  1.5912  0.4887  1.2579
    4CHL1  H18C  252   3.673   4.495   5.330  0.1672 -0.4584  0.5768
    4CHL1   C12  253   3.903   4.650   5.341 -0.0556  0.5990 -0.2045
    4CHL1  H12A  254   3.966   4.570   5.298  0.4349  1.0130 -0.2619
    4CHL1  H12B  255   3.951   4.750   5.355 -0.3766  0.6292  0.6923
    4CHL1   C11  256   3.856   4.613   5.488  0.1478 -0.0279 -0.1104
    4CHL1  H11A  257   3.819   4.508   5.485 -0.5650  0.2375 -0.9474
    4CHL1  H11B  258   3.942   4.610   5.558  0.4623 -0.1275 -0.4967
    4CHL1    C9  259   3.761   4.721   5.547 -0.2945 -0.5638 -0.0599
    4CHL1    H9  260   3.828   4.809   5.541  1.4980 -1.8571  0.5604
    4CHL1   C10  261   3.719   4.693   5.690 -0.9138  0.8510  0.4267
    4CHL1   C19  262   3.682   4.546   5.719 -0.3402 -0.5961 -1.0419
    4CHL1  H19A  263   3.763   4.475   5.692 -0.2219 -0.5619 -0.7786
    4CHL1  H19B  264   3.657   4.510   5.821  1.6336 -0.6875 -0.5634
    4CHL1  H19C  265   3.602   4.517   5.648 -0.6688  1.2116 -1.4466
    4CHL1    C1  266   3.835   4.726   5.785  0.2649  0.5224 -0.7428
    4CHL1   H1A  267   3.917   4.651   5.779  1.3559  1.4196  1.9316
    4CHL1   H1B  268   3.880   4.825   5.765  0.3706  0.6636  0.1726
    4CHL1    C2  269   3.811   4.721   5.939  0.2638  0.1010  0.2664
    4CHL1   H2A  270   3.904   4.761   5.985  0.2511  0.4129  0.0270
    4CHL1   H2B  271   3.793   4.616   5.971  0.1700 -0.5080 -1.7061
    4CHL1   C20  272   3.861   4.633   4.993 -1.2349 -0.1973 -0.2996
    4CHL1   H20  273   3.814   4.533   5.004 -1.5149 -0.0880 -0.5070
    4CHL1   C21  274   4.020   4.608   5.002  0.3439  0.0834  0.1138
    4CHL1  H21A  275   4.084   4.691   4.966  1.6544 -0.7537  0.4915
    4CHL1  H21B  276   4.036   4.514   4.945 -0.2109  0.7329 -1.1414
    4CHL1  H21C  277   4.057   4.600   5.106  1.4343  0.1113 -0.2684
    4CHL1   C22  278   3.827   4.684   4.851 -0.2839 -0.1789  0.5706
    4CHL1  H22A  279   3.718   4.706   4.841 -0.4526 -1.3562 -0.2077
    4CHL1  H22B  280   3.885   4.777   4.834 -1.3177  0.1524 -1.2099
    4CHL1   C23  281   3.855   4.573   4.746 -0.0257  0.1684  0.0525
    4CHL1  H23A  282   3.965   4.559   4.746  0.1120  1.1953 -0.2708
    4CHL1  H23B  283   3.810   4.475   4.774 -0.7947  0.3916 -0.3782
    4CHL1   C24  284   3.809   4.611   4.606 -0.7658  0.4351 -0.0596
    4CHL1  H24A  285   3.801   4.513   4.554 -0.4491 -0.9291  2.4039
    4CHL1  H24B  286   3.706   4.651   4.613 -0.1849  1.8785  0.4185
    4CHL1   C25  287   3.902   4.721   4.534  0.1109  0.6054 -0.5500
    4CHL1   H25  288   3.885   4.809   4.600  0.3285 -0.8914  1.5447
    4CHL1   C26  289   4.047   4.697   4.527 -0.2318 -0.7567  0.3604
    4CHL1  H26A  290   4.083   4.754   4.439  0.9217  1.1127  2.0168
    4CHL1  H26B  291   4.106   4.718   4.618 -0.5531 -1.4999  0.7473
    4CHL1  H26C  292   4.053   4.592   4.490 -2.2942 -0.0250 -2.1948
    4CHL1   C27  293   3.846   4.752   4.396  0.5406  0.5777 -0.2022
    4CHL1  H27A  294   3.900   4.834   4.343  0.9129  0.1845 -0.4401
    4CHL1  H27B  295   3.857   4.662   4.331 -0.2431  1.2902 -1.3425
    4CHL1  H27C  296   3.739   4.777   4.411  1.0072  1.6689  1.5033
    5CHL1    C3  297   4.263   4.752   5.918 -0.2332 -0.2322 -0.3454
    5CHL1    H3  298   4.172   4.688   5.910 -0.5119  0.0847  0.2332
    5CHL1    O3  299   4.294   4.743   6.056 -0.5808 -0.5486 -0.4074
    5CHL1   H3'  300   4.332   4.826   6.086 -1.4394  0.7758 -2.8195
    5CHL1    C4  301   4.383   4.706   5.832 -0.3694  0.4682 -0.2663
    5CHL1   H4A  302   4.462   4.774   5.871  0.8724 -0.4122 -1.2217
    5CHL1   H4B  303   4.406   4.602   5.860 -0.1251  0.3745 -0.8157
    5CHL1    C5  304   4.359   4.726   5.680 -0.9064  0.7143 -0.5427
    5CHL1    C6  305   4.369   4.627   5.594 -1.1563 -0.2053  0.0424
    5CHL1    H6  306   4.421   4.534   5.622  0.4699  1.4270  2.6949
    5CHL1    C7  307   4.338   4.649   5.447  0.4703  0.2923  0.7260
    5CHL1   H7A  308   4.413   4.605   5.379 -0.3065 -1.4091  0.9469
    5CHL1   H7B  309   4.241   4.599   5.424  0.5301  0.9238 -0.9482
    5CHL1    C8  310   4.324   4.800   5.412 -0.3874 -0.0140 -0.1870
    5CHL1    H8  311   4.425   4.844   5.420 -1.8315  3.0855  2.2376
    5CHL1   C14  312   4.277   4.818   5.268  0.5924  0.0574 -0.3182
    5CHL1   H14  313   4.177   4.770   5.272  0.2511  0.8125  0.3914
    5CHL1   C15  314   4.352   4.755   5.153  0.2975  0.1649  0.2801
    5CHL1  H15A  315   4.463   4.753   5.165  0.5684  2.9796 -1.3991
    5CHL1  H15B  316   4.323   4.649   5.136 -0.1634  0.2494  0.5423
    5CHL1   C16  317   4.311   4.828   5.024  0.0270 -0.0813 -0.7064
    5CHL1  H16A  318   4.413   4.857   4.990  1.0369 -2.7769 -0.1222
    5CHL1  H16B  319   4.279   4.756   4.946  0.4004 -0.9420 -0.0765
    5CHL1   C17  320   4.219   4.943   5.071 -0.4405  0.6278 -0.4369
    5CHL1   H17  321   4.114   4.907   5.076 -0.1018 -0.2413  0.6294
    5CHL1   C13  322   4.258   4.961   5.219 -0.1274  0.7939 -0.0258
    5CHL1   C18  323   4.386   5.042   5.228  0.0246  0.1923  0.3458
    5CHL1  H18A  324   4.474   4.996   5.177  0.2742 -0.8537  1.7090
    5CHL1  H18B  325   4.375   5.144   5.184 -0.2424 -0.6338 -1.5343
    5CHL1  H18C  326   4.405   5.060   5.336 -0.3607  1.1069  0.2669
    5CHL1   C12  327   4.148   5.008   5.310 -0.3485  0.5381  0.6109
    5CHL1  H12A  328   4.115   5.113   5.294 -0.5185  0.2465 -1.0715
    5CHL1  H12B  329   4.062   4.941   5.292  0.2335  0.6160 -2.8794
    5CHL1   C11  330   4.183   5.010   5.459 -0.6667 -0.2413  0.0855
    5CHL1  H11A  331   4.248   5.100   5.473 -1.0729  0.1027 -0.2549
    5CHL1  H11B  332   4.095   5.039   5.521 -0.8127 -1.9840  0.7194
    5CHL1    C9  333   4.236   4.872   5.510 -0.0227  0.1601  0.0132
    5CHL1    H9  334   4.146   4.807   5.513  1.8275 -2.7293 -3.4586
    5CHL1   C10  335   4.298   4.869   5.647  0.9287 -0.3415 -0.0529
    5CHL1   C19  336   4.420   4.968   5.652  0.3494  0.9654 -0.7389
    5CHL1  H19A  337   4.390   5.073   5.630  0.0012  1.6685  2.7463
    5CHL1  H19B  338   4.472   4.970   5.750 -2.7271 -0.2817  0.9794
    5CHL1  H19C  339   4.501   4.936   5.583  0.4554 -2.2989  0.8053
    5CHL1    C1  340   4.186   4.917   5.745 -0.3484 -0.7555  0.1745
    5CHL1   H1A  341   4.169   5.026   5.729 -1.3660 -1.3491 -3.1463
    5CHL1   H1B  342   4.087   4.869   5.728 -0.5137 -0.3544  0.0027
    5CHL1    C2  343   4.227   4.896   5.890  0.4974  0.3372  0.4270
    5CHL1   H2A  344   4.149   4.930   5.962  0.3320 -2.1234  1.4765
    5CHL1   H2B  345   4.321   4.951   5.905  0.2587  1.3675 -1.6704
    5CHL1   C20  346   4.207   5.054   4.972 -0.4184  0.0829  0.0516
    5CHL1   H20  347   4.306   5.103   4.957 -0.6328  0.4178 -0.2952
    5CHL1   C21  348   4.116   5.165   5.028  0.1250 -0.2810  0.4450
    5CHL1  H21A  349   4.018   5.123   5.058 -0.0362 -0.2760 -0.0630
    5CHL1  H21B  350   4.105   5.242   4.948 -1.3242 -2.7812 -1.8077
    5CHL1  H21C  351   4.170   5.207   5.116  0.3506  0.4875 -0.0481
    5CHL1   C22  352   4.154   5.004   4.835  0.3980  0.1428 -0.8872
    5CHL1  H22A  353   4.205   4.911   4.803  0.6264 -1.0698  2.8143
    5CHL1  H22B  354   4.046   4.987   4.850  0.8991 -3.1006 -0.6925
    5CHL1   C23  355   4.169   5.104   4.719 -1.0154  0.1795  0.6948
    5CHL1  H23A  356   4.162   5.209   4.755 -2.4876  0.9681 -1.7706
    5CHL1  H23B  357   4.270   5.095   4.674 -0.3908  0.4492  2.0262
    5CHL1   C24  358   4.060   5.080   4.597 -0.6562  0.3685  0.5180
    5CHL1  H24A  359   4.094   4.988   4.546  1.1489  1.8309 -0.9609
    5CHL1  H24B  360   3.958   5.051   4.629 -0.8492  0.3168 -0.1406
    5CHL1   C25  361   4.057   5.193   4.508 -1.1216  0.4361 -0.1093
    5CHL1   H25  362   4.162   5.226   4.500  0.0520 -3.0045  0.4447
    5CHL1   C26  363   4.014   5.155   4.373 -0.2155  0.9864 -0.3960
    5CHL1  H26A  364   4.050   5.229   4.298  3.3505  0.1768  0.4640
    5CHL1  H26B  365   4.075   5.066   4.347  0.5048  1.5944 -0.7955
    5CHL1  H26C  366   3.908   5.124   4.361  0.5462 -1.7951 -0.2372
    5CHL1   C27  367   3.991   5.327   4.551 -0.4890 -0.0950  0.2124
    5CHL1  H27A  368   4.021   5.343   4.657 -0.2044 -2.3048  0.5090
    5CHL1  H27B  369   4.015   5.412   4.485 -0.4918  1.1080  1.7313
    5CHL1  H27C  370   3.882   5.312   4.539 -0.5573 -0.0681  0.7560
    6CHL1    C3  371   3.094   2.836   5.967 -0.0360  0.1641 -0.5483
    6CHL1    H3  372   3.201   2.865   5.975 -0.3367  1.2791 -0.3396
    6CHL1    O3  373   3.030   2.826   6.099  0.0976 -0.4467 -0.4112
    6CHL1   H3'  374   3.062   2.898   6.154 -1.4727  1.6070 -2.1112
    6CHL1    C4  375   3.022   2.947   5.890  0.3512 -0.9820  0.4478
    6CHL1   H4A  376   2.911   2.937   5.896  0.2196  0.2493  0.1797
    6CHL1   H4B  377   3.045   3.040   5.946  2.7549 -1.4475  0.2749
    6CHL1    C5  378   3.071   2.953   5.744 -0.3992  0.3751 -0.0794
    6CHL1    C6  379   3.109   3.077   5.699 -0.2712  0.5537  0.5748
    6CHL1    H6  380   3.097   3.167   5.762  1.2083  0.2809  1.2595
    6CHL1    C7  381   3.150   3.107   5.557 -0.7509  0.3640 -0.2872
    6CHL1   H7A  382   3.114   3.206   5.521  3.0023  1.8585 -0.1344
    6CHL1   H7B  383   3.260   3.124   5.557 -0.5449 -0.8858 -1.7658
    6CHL1    C8  384   3.126   2.984   5.467  0.4629 -0.1086 -0.6452
    6CHL1    H8  385   3.020   2.985   5.434 -0.1988 -2.2438  1.2804
    6CHL1   C14  386   3.219   2.987   5.342  0.0221 -0.0637 -0.5431
    6CHL1   H14  387   3.323   2.985   5.379  0.0608  0.9899 -0.5843
    6CHL1   C15  388   3.221   3.118   5.263  0.0257  0.1119 -0.2666
    6CHL1  H15A  389   3.121   3.165   5.249 -0.5783 -1.0225  0.1015
    6CHL1  H15B  390   3.290   3.184   5.319  1.8020 -1.6906 -0.2774
    6CHL1   C16  391   3.285   3.065   5.130 -1.3252  0.6580  0.1866
    6CHL1  H16A  392   3.215   3.076   5.045  0.9568 -1.1291 -2.0136
    6CHL1  H16B  393   3.385   3.110   5.116 -0.6110 -0.8644  0.2562
    6CHL1   C17  394   3.303   2.906   5.135 -0.7151 -0.6676  0.4755
    6CHL1   H17  395   3.404   2.903   5.180 -0.7084  1.2970  0.6125
    6CHL1   C13  396   3.202   2.865   5.241  0.3274 -0.0466 -0.1681
    6CHL1   C18  397   3.054   2.868   5.181 -0.0315  0.4542 -0.2451
    6CHL1  H18A  398   2.983   2.848   5.264 -0.5003  2.2527 -0.1947
    6CHL1  H18B  399   3.030   2.965   5.133 -4.4111 -0.8319 -0.9425
    6CHL1  H18C  400   3.036   2.784   5.109 -1.7641 -0.2993  1.0205
    6CHL1   C12  401   3.235   2.737   5.309 -0.5449  0.0866  0.0826
    6CHL1  H12A  402   3.227   2.641   5.254  0.9642  0.2275 -0.4038
    6CHL1  H12B  403   3.340   2.750   5.343 -0.0192 -0.1366 -1.4378
    6CHL1   C11  404   3.149   2.724   5.440 -0.4443 -0.4883  0.6267
    6CHL1  H11A  405   3.048   2.697   5.403  0.3639 -1.2439 -1.0817
    6CHL1  H11B  406   3.193   2.633   5.487 -3.0495 -2.0306  0.1369
    6CHL1    C9  407   3.153   2.847   5.536 -0.5564  0.8820  0.2659
    6CHL1    H9  408   3.260   2.857   5.565  0.2104 -2.2819 -1.2904
    6CHL1   C10  409   3.082   2.822   5.666 -0.5283 -0.2109 -0.5459
    6CHL1   C19  410   2.942   2.767   5.631 -0.8806  0.1738  0.7712
    6CHL1  H19A  411   2.877   2.763   5.721 -0.2429  0.0327  1.2263
    6CHL1  H19B  412   2.908   2.834   5.549  4.2150  0.0841 -1.5716
    6CHL1  H19C  413   2.958   2.661   5.604 -0.7740  0.0114  1.4690
    6CHL1    C1  414   3.154   2.716   5.756 -0.6930 -0.0261 -0.4826
    6CHL1   H1A  415   3.149   2.618   5.705 -1.3076 -0.8112  1.0495
    6CHL1   H1B  416   3.260   2.747   5.761 -1.3141  1.9103  1.8718
    6CHL1    C2  417   3.083   2.700   5.895 -0.6414  0.4825 -0.2253
    6CHL1   H2A  418   3.124   2.618   5.958  1.2992 -0.4343 -2.6302
    6CHL1   H2B  419   2.976   2.678   5.878 -0.5507  0.3106 -0.5701
    6CHL1   C20  420   3.300   2.837   5.000 -0.0808 -0.2590 -0.0998
    6CHL1   H20  421   3.199   2.849   4.956 -0.5578 -0.0103  1.0429
    6CHL1   C21  422   3.323   2.687   5.013 -1.1720  0.5315  0.6371
    6CHL1  H21A  423   3.342   2.652   4.909 -0.2286 -0.1163  1.0115
    6CHL1  H21B  424   3.230   2.633   5.040  0.3055 -0.8837  3.0630
    6CHL1  H21C  425   3.406   2.657   5.081 -0.7900 -1.1302 -0.5046
    6CHL1   C22  426   3.405   2.887   4.899 -0.6133  0.0768 -0.3117
    6CHL1  H22A  427   3.413   2.998   4.909 -2.5239  0.1088  1.1305
    6CHL1  H22B  428   3.506   2.854   4.930  0.0880  1.2613 -1.2668
    6CHL1   C23  429   3.364   2.862   4.753 -1.0980  0.3701  0.0086
    6CHL1  H23A  430   3.350   2.756   4.725  0.6418 -0.7199  3.0820
    6CHL1  H23B  431   3.263   2.908   4.743 -0.8589  1.2704  1.4672
    6CHL1   C24  432   3.467   2.939   4.665 -0.0187  0.2402  0.3586
    6CHL1  H24A  433   3.470   3.040   4.710 -0.2595 -0.1067  1.1674
    6CHL1  H24B  434   3.564   2.886   4.676  0.0142  0.4983  1.3402
    6CHL1   C25  435   3.422   2.950   4.517 -0.6412  0.2358  0.0993
    6CHL1   H25  436   3.402   2.846   4.484  2.4487  0.2656 -2.1563
    6CHL1   C26  437   3.297   3.025   4.511 -0.9481 -0.4653  0.0246
    6CHL1  H26A  438   3.211   2.977   4.562 -0.0854 -0.9443  1.0428
    6CHL1  H26B  439   3.309   3.130   4.546  1.6196 -0.7581  0.1396
    6CHL1  H26C  440   3.277   3.036   4.402  1.3317 -1.1049 -0.4828
    6CHL1   C27  441   3.540   2.997   4.427 -0.1295 -0.4631 -0.3868
    6CHL1  H27A  442   3.517   2.980   4.320 -1.3919  1.0845 -0.3746
    6CHL1  H27B  443   3.557   3.105   4.446  1.3427 -0.9581  1.2933
    6CHL1  H27C  444   3.637   2.953   4.460 -1.8588 -2.3674  2.3543
    7CHL1    C3  445   4.500   2.851   5.948 -0.0565 -0.1765  0.0987
    7CHL1    H3  446   4.573   2.928   5.916 -0.7452  1.6445  2.7691
    7CHL1    O3  447   4.488   2.871   6.084  0.1194  0.1805 -0.4105
    7CHL1   H3'  448   4.509   2.963   6.100 -0.6226  0.6745 -2.1976
    7CHL1    C4  449   4.361   2.879   5.882 -0.2685 -0.6574 -0.5416
    7CHL1   H4A  450   4.293   2.805   5.930 -0.2333  1.6403  3.2360
    7CHL1   H4B  451   4.318   2.975   5.918 -1.1753 -0.9118 -0.9287
    7CHL1    C5  452   4.358   2.855   5.740 -0.2407 -0.2646 -0.2804
    7CHL1    C6  453   4.319   2.952   5.657 -0.0456  0.1781  0.0346
    7CHL1    H6  454   4.284   3.050   5.696 -1.2575 -0.3961  0.4221
    7CHL1    C7  455   4.304   2.934   5.506  0.7569  0.0238  0.6329
    7CHL1   H7A  456   4.202   2.975   5.490  0.8994  0.0485 -0.2589
    7CHL1   H7B  457   4.371   3.001   5.450  2.4262 -0.5047  1.9677
    7CHL1    C8  458   4.316   2.785   5.462  0.3446  0.2592 -0.0709
    7CHL1    H8  459   4.218   2.733   5.468 -0.9665  2.6930  0.5517
    7CHL1   C14  460   4.351   2.787   5.311 -0.2916  1.2097 -1.0897
    7CHL1   H14  461   4.446   2.843   5.302  1.7404 -2.1020 -0.9287
    7CHL1   C15  462   4.258   2.859   5.223 -0.2240  1.1020  0.3654
    7CHL1  H15A  463   4.155   2.821   5.238 -0.0148  0.1035 -0.6534
    7CHL1  H15B  464   4.265   2.970   5.232 -1.3012  1.2304 -0.3007
    7CHL1   C16  465   4.297   2.808   5.086  0.1676  0.0210 -0.0599
    7CHL1  H16A  466   4.216   2.791   5.012  0.4118  0.1101 -0.3487
    7CHL1  H16B  467   4.357   2.880   5.027  1.4744  0.2262  1.4767
    7CHL1   C17  468   4.383   2.676   5.101  0.4491  0.0904 -0.0138
    7CHL1   H17  469   4.487   2.713   5.094  1.1823 -1.8483  0.3133
    7CHL1   C13  470   4.366   2.644   5.247  0.0773 -0.0882 -0.6614
    7CHL1   C18  471   4.224   2.566   5.267 -0.6266 -0.8469 -0.0522
    7CHL1  H18A  472   4.239   2.472   5.210 -1.1744 -1.1791  0.3489
    7CHL1  H18B  473   4.214   2.539   5.375  0.2464 -1.0512 -0.0145
    7CHL1  H18C  474   4.135   2.611   5.220  0.3172  0.9650 -0.1433
    7CHL1   C12  475   4.484   2.579   5.328  0.0064 -0.2374  0.0451
    7CHL1  H12A  476   4.491   2.476   5.286 -0.8918 -0.6527  0.8897
    7CHL1  H12B  477   4.583   2.627   5.315 -0.1132 -0.5945 -2.4181
    7CHL1   C11  478   4.456   2.571   5.475  1.3416 -0.0849 -0.0567
    7CHL1  H11A  479   4.376   2.495   5.490  0.4851  0.9097  0.4204
    7CHL1  H11B  480   4.538   2.527   5.536 -0.9207  0.2075  3.3227
    7CHL1    C9  481   4.422   2.713   5.536  0.1378  0.0575 -0.6543
    7CHL1    H9  482   4.511   2.774   5.512  0.4183 -0.3122 -0.5611
    7CHL1   C10  483   4.402   2.716   5.695 -0.3886 -0.3532  0.1890
    7CHL1   C19  484   4.294   2.614   5.729  0.1860 -0.3378 -0.3893
    7CHL1  H19A  485   4.254   2.623   5.833  2.7081 -0.9381  0.6831
    7CHL1  H19B  486   4.208   2.617   5.659 -0.8815  1.1768  0.9267
    7CHL1  H19C  487   4.342   2.515   5.715 -0.7747 -0.7614 -0.7198
    7CHL1    C1  488   4.541   2.686   5.765  0.8845 -0.1583 -0.1183
    7CHL1   H1A  489   4.573   2.580   5.757 -0.1933 -0.5007 -0.0058
    7CHL1   H1B  490   4.621   2.750   5.723 -1.0525  2.0606 -0.5309
    7CHL1    C2  491   4.548   2.711   5.917 -0.3984 -0.1063 -0.8491
    7CHL1   H2A  492   4.656   2.699   5.941  0.0348  2.1093 -1.5532
    7CHL1   H2B  493   4.491   2.629   5.966 -1.3209  0.1717 -1.4366
    7CHL1   C20  494   4.370   2.572   4.985 -0.0596  0.5362 -0.0287
    7CHL1   H20  495   4.270   2.526   4.997  0.1646 -0.4975 -1.9693
    7CHL1   C21  496   4.477   2.467   4.984  0.6367  0.1366 -0.0211
    7CHL1  H21A  497   4.461   2.394   5.065  0.5304 -0.6170 -0.7092
    7CHL1  H21B  498   4.580   2.505   5.003  0.7424  0.6837 -1.5677
    7CHL1  H21C  499   4.479   2.402   4.893  1.4819 -0.2439  0.2629
    7CHL1   C22  500   4.375   2.644   4.851  0.2717  0.6911  0.3371
    7CHL1  H22A  501   4.337   2.748   4.841 -0.2534  0.4768  0.0823
    7CHL1  H22B  502   4.484   2.658   4.835 -0.2209  3.4193 -0.9263
    7CHL1   C23  503   4.324   2.556   4.728  0.0272  0.2165 -0.0719
    7CHL1  H23A  504   4.402   2.478   4.718 -1.3822 -0.9332 -2.9125
    7CHL1  H23B  505   4.233   2.500   4.759  0.8104 -1.6084 -1.0060
    7CHL1   C24  506   4.315   2.629   4.595  0.1262  0.5784  0.2229
    7CHL1  H24A  507   4.247   2.715   4.608 -0.2707  0.3379 -0.2532
    7CHL1  H24B  508   4.416   2.670   4.574  0.9606 -0.9593  1.0668
    7CHL1   C25  509   4.283   2.528   4.485  0.6618  0.4921  0.4640
    7CHL1   H25  510   4.346   2.438   4.504  2.9674  2.1098  0.6296
    7CHL1   C26  511   4.132   2.485   4.485 -0.5592  0.0265 -0.3040
    7CHL1  H26A  512   4.067   2.566   4.444 -0.1045  0.8695  0.5968
    7CHL1  H26B  513   4.117   2.399   4.416  2.9811 -0.8116 -0.0979
    7CHL1  H26C  514   4.090   2.462   4.585  3.1147 -0.0067  1.3202
    7CHL1   C27  515   4.330   2.577   4.353  0.9366  0.5277 -0.2063
    7CHL1  H27A  516   4.285   2.672   4.318 -1.2443 -0.6817 -0.7734
    7CHL1  H27B  517   4.439   2.594   4.370  1.1038  0.2974 -1.0656
    7CHL1  H27C  518   4.311   2.509   4.268  2.2979  0.5018 -0.5060
    8CHL1    C3  519   2.646   3.297   5.969 -0.5868 -0.1293 -0.5807
    8CHL1    H3  520   2.543   3.268   5.996 -0.4529 -2.1399 -2.1142
    8CHL1    O3  521   2.705   3.341   6.088  0.2066 -0.2526 -0.1026
    8CHL1   H3'  522   2.801   3.336   6.085  0.5608  2.7331  2.4460
    8CHL1    C4  523   2.728   3.175   5.908  0.6336  0.0932 -0.1042
    8CHL1   H4A  524   2.837   3.196   5.913  0.8393 -0.4435 -1.9667
    8CHL1   H4B  525   2.730   3.106   5.995  0.2315  1.6431  1.1655
    8CHL1    C5  526   2.687   3.131   5.768  0.0991 -0.2803 -0.8962
    8CHL1    C6  527   2.662   3.005   5.740 -0.1502  0.0596 -0.3306
    8CHL1    H6  528   2.664   2.933   5.824 -0.1517  2.5279  1.8456
    8CHL1    C7  529   2.627   2.952   5.606  0.0800 -0.2597 -0.1922
    8CHL1   H7A  530   2.697   2.866   5.590  0.1131 -0.5156  1.2868
    8CHL1   H7B  531   2.523   2.915   5.591 -0.0661  0.0491  0.0683
    8CHL1    C8  532   2.655   3.057   5.496 -0.4176  0.1343  0.6152
    8CHL1    H8  533   2.766   3.059   5.497 -0.4463  1.8097  2.1138
    8CHL1   C14  534   2.596   3.027   5.356  0.0521  0.1375  0.4696
    8CHL1   H14  535   2.486   3.034   5.369 -0.1990  1.4173 -2.0406
    8CHL1   C15  536   2.634   2.885   5.302  0.4989 -0.0565  0.1034
    8CHL1  H15A  537   2.742   2.862   5.314  0.2690 -1.0370  0.3325
    8CHL1  H15B  538   2.582   2.801   5.353  3.4949 -1.9899  0.1005
    8CHL1   C16  539   2.586   2.880   5.158  0.2191  0.3445 -0.1328
    8CHL1  H16A  540   2.665   2.835   5.093  1.6304  3.5443 -0.7036
    8CHL1  H16B  541   2.494   2.817   5.155  0.7168 -0.4183  0.3004
    8CHL1   C17  542   2.552   3.029   5.129  0.6957  0.2660 -0.6682
    8CHL1   H17  543   2.443   3.043   5.147  0.5169 -0.4890 -1.1487
    8CHL1   C13  544   2.624   3.120   5.240 -0.2370  0.8329 -0.2413
    8CHL1   C18  545   2.777   3.127   5.217  0.2570  0.1403 -0.6675
    8CHL1  H18A  546   2.843   3.163   5.299 -1.6408 -0.7766  1.2980
    8CHL1  H18B  547   2.807   3.026   5.180  0.3384 -0.2389  0.4334
    8CHL1  H18C  548   2.786   3.197   5.131  1.2703 -0.3393 -0.9589
    8CHL1   C12  549   2.554   3.250   5.288 -0.7760 -1.0030  0.5661
    8CHL1  H12A  550   2.577   3.330   5.214  1.6427  0.7159  3.0835
    8CHL1  H12B  551   2.443   3.242   5.291 -1.0014  1.6107  0.5826
    8CHL1   C11  552   2.626   3.300   5.419  0.1836  0.1305  0.3535
    8CHL1  H11A  553   2.729   3.324   5.385  0.0686 -0.9189 -0.7656
    8CHL1  H11B  554   2.583   3.398   5.450  0.2418  0.2664  0.0139
    8CHL1    C9  555   2.615   3.204   5.533 -0.5380  0.2390 -0.5899
    8CHL1    H9  556   2.506   3.206   5.557 -0.3445 -0.7276  0.3872
    8CHL1   C10  557   2.684   3.249   5.666  0.3081 -0.4129  0.0903
    8CHL1   C19  558   2.826   3.291   5.629 -0.1887 -0.2848  0.3059
    8CHL1  H19A  559   2.833   3.384   5.570 -0.0472  0.5977  1.7042
    8CHL1  H19B  560   2.876   3.317   5.724  1.3463  1.5661 -0.9753
    8CHL1  H19C  561   2.880   3.203   5.586 -2.2406 -0.2614 -2.4930
    8CHL1    C1  562   2.606   3.373   5.721 -0.0800  0.1762  0.0858
    8CHL1   H1A  563   2.620   3.462   5.656 -1.0567  0.3273  0.0826
    8CHL1   H1B  564   2.501   3.341   5.731 -0.0326  0.0080  0.0497
    8CHL1    C2  565   2.650   3.415   5.862  0.5732  0.4695  0.0468
    8CHL1   H2A  566   2.579   3.493   5.898 -0.2626 -0.5283  0.5939
    8CHL1   H2B  567   2.749   3.465   5.859  1.0307 -0.4502 -0.1811
    8CHL1   C20  568   2.565   3.072   4.984 -0.8495  0.6061  0.1705
    8CHL1   H20  569   2.671   3.082   4.950 -1.0012  2.6178  0.2113
    8CHL1   C21  570   2.519   3.212   4.959 -0.1057 -0.1247 -0.0208
    8CHL1  H21A  571   2.604   3.279   4.984  0.0256  0.6960 -2.5203
    8CHL1  H21B  572   2.421   3.238   5.006 -1.7678 -3.9346 -1.2377
    8CHL1  H21C  573   2.506   3.239   4.852  0.8319 -0.8858 -0.3304
    8CHL1   C22  574   2.498   2.971   4.894  0.4384  0.2800  0.5124
    8CHL1  H22A  575   2.541   2.870   4.911  0.0503  0.1176  0.5357
    8CHL1  H22B  576   2.388   2.968   4.909 -0.0956  0.9641 -2.8717
    8CHL1   C23  577   2.517   3.000   4.741 -0.0067 -0.0993 -0.4692
    8CHL1  H23A  578   2.453   3.087   4.713 -0.7201 -0.6926 -0.6788
    8CHL1  H23B  579   2.626   3.016   4.723  0.5917 -3.1298  0.2759
    8CHL1   C24  580   2.465   2.887   4.648 -0.3943 -0.2679  0.5036
    8CHL1  H24A  581   2.534   2.802   4.669  2.1039  1.3946 -0.7447
    8CHL1  H24B  582   2.361   2.856   4.671 -0.8791  1.1443  0.2935
    8CHL1   C25  583   2.476   2.927   4.503  0.3146 -0.2464 -0.1862
    8CHL1   H25  584   2.492   2.840   4.434  2.8294 -0.4321  0.5953
    8CHL1   C26  585   2.348   3.006   4.451 -0.3075 -0.1102  0.7996
    8CHL1  H26A  586   2.256   2.945   4.466  0.8248 -2.1725 -0.3146
    8CHL1  H26B  587   2.337   3.105   4.500  1.2380  0.7824 -0.6060
    8CHL1  H26C  588   2.353   3.012   4.340  1.3133  0.2631  0.8890
    8CHL1   C27  589   2.602   3.012   4.481  0.1524  0.0854  0.0849
    8CHL1  H27A  590   2.686   2.968   4.539 -0.0425 -0.4850 -0.0578
    8CHL1  H27B  591   2.637   3.016   4.375 -1.3748 -0.1668 -0.4362
    8CHL1  H27C  592   2.587   3.113   4.525  0.0850  0.3774 -0.6051
    9CHL1    C3  593   5.626   4.132   5.907  0.0479  0.0440  0.2315
    9CHL1    H3  594   5.665   4.224   5.858 -0.7143  0.5937  0.6425
    9CHL1    O3  595   5.622   4.154   6.049  0.7432 -0.5477  0.6703
    9CHL1   H3'  596   5.565   4.231   6.062  1.2162 -0.2622  1.0565
    9CHL1    C4  597   5.478   4.098   5.858 -0.3456 -0.1022 -0.4616
    9CHL1   H4A  598   5.452   4.018   5.931  0.6717 -0.1948 -0.1998
    9CHL1   H4B  599   5.415   4.188   5.873  0.6587  0.4759  0.3472
    9CHL1    C5  600   5.478   4.035   5.721 -0.8989 -0.5763  0.1235
    9CHL1    C6  601   5.414   4.098   5.618  0.5122  0.1241 -0.1648
    9CHL1    H6  602   5.348   4.179   5.653  1.0134  1.3905 -2.0780
    9CHL1    C7  603   5.421   4.052   5.471  0.2509 -0.1404  0.0203
    9CHL1   H7A  604   5.315   4.045   5.439  0.4172  0.4075 -0.6595
    9CHL1   H7B  605   5.471   4.119   5.398 -3.7277  1.3313 -1.4920
    9CHL1    C8  606   5.482   3.907   5.453 -0.1510 -0.0063  0.2268
    9CHL1    H8  607   5.406   3.833   5.486 -1.3545  0.5059 -1.3539
    9CHL1   C14  608   5.511   3.875   5.310  0.2356  0.7779 -0.2244
    9CHL1   H14  609   5.588   3.947   5.276 -0.6749  1.7615 -0.2259
    9CHL1   C15  610   5.391   3.886   5.206 -0.0470 -0.2174  0.8229
    9CHL1  H15A  611   5.308   3.839   5.262 -0.2239 -0.4527  0.3624
    9CHL1  H15B  612   5.370   3.991   5.175  0.3814 -0.1495  0.7570
    9CHL1   C16  613   5.451   3.814   5.090  0.1376  0.0107 -0.4842
    9CHL1  H16A  614   5.385   3.739   5.041  1.7108 -0.7264 -1.5238
    9CHL1  H16B  615   5.481   3.893   5.018  0.6664  0.6885  0.4637
    9CHL1   C17  616   5.586   3.740   5.132  0.5632  1.2069 -0.4383
    9CHL1   H17  617   5.666   3.815   5.111 -0.2821  2.7564  1.6974
    9CHL1   C13  618   5.581   3.738   5.288  0.0705 -0.1250  0.1807
    9CHL1   C18  619   5.491   3.619   5.319 -0.3979 -0.9088 -0.2744
    9CHL1  H18A  620   5.550   3.528   5.296  1.3926  0.5353 -1.5706
    9CHL1  H18B  621   5.449   3.625   5.422  1.3846 -2.2899  0.5417
    9CHL1  H18C  622   5.399   3.620   5.256  0.4880 -2.3645 -1.6335
    9CHL1   C12  623   5.713   3.725   5.364  0.0526  0.4102  0.3119
    9CHL1  H12A  624   5.759   3.625   5.348  3.3474  1.8920 -0.0451
    9CHL1  H12B  625   5.784   3.805   5.332  0.2694  0.8576  1.8246
    9CHL1   C11  626   5.687   3.750   5.520  0.4646 -0.6654  0.7418
    9CHL1  H11A  627   5.623   3.666   5.554  0.4711 -0.4656  1.2551
    9CHL1  H11B  628   5.783   3.745   5.577  0.8546 -1.9594 -0.0218
    9CHL1    C9  629   5.604   3.885   5.539  0.0095  0.1279  0.5538
    9CHL1    H9  630   5.669   3.968   5.504  0.9321 -0.9252 -0.2658
    9CHL1   C10  631   5.580   3.921   5.688 -0.2370  0.3813  0.0262
    9CHL1   C19  632   5.528   3.793   5.764  0.1356  0.0175  0.0309
    9CHL1  H19A  633   5.610   3.717   5.765  0.2970  0.1532 -1.4233
    9CHL1  H19B  634   5.508   3.808   5.872 -1.1191  1.4851 -0.3935
    9CHL1  H19C  635   5.439   3.743   5.719  0.6343 -0.4448 -0.4532
    9CHL1    C1  636   5.715   3.966   5.747 -0.2334  0.3494  0.1157
    9CHL1   H1A  637   5.789   3.883   5.744  1.1490  1.5506  0.5985
    9CHL1   H1B  638   5.750   4.051   5.686  0.0824  0.1251 -0.0191
    9CHL1    C2  639   5.719   4.013   5.889  0.4643  0.4365  0.5256
    9CHL1   H2A  640   5.816   4.060   5.916 -0.2966  2.3839 -0.0338
    9CHL1   H2B  641   5.701   3.926   5.956  1.9070  0.6256  1.1690
    9CHL1   C20  642   5.608   3.606   5.058 -0.0392  0.7125 -0.2279
    9CHL1   H20  643   5.528   3.531   5.076 -0.6569  1.2722 -0.5990
    9CHL1   C21  644   5.738   3.533   5.085  0.5577 -0.1729 -0.3254
    9CHL1  H21A  645   5.825   3.600   5.073 -0.3453  1.1242  0.2677
    9CHL1  H21B  646   5.748   3.440   5.025  0.8238 -1.0380  1.0185
    9CHL1  H21C  647   5.734   3.507   5.193 -1.4026 -1.5419 -0.6944
    9CHL1   C22  648   5.612   3.633   4.901  0.0506  0.5881  0.3847
    9CHL1  H22A  649   5.543   3.713   4.867  1.2854  1.1794 -0.7690
    9CHL1  H22B  650   5.714   3.672   4.884 -0.9284  3.5729  1.1380
    9CHL1   C23  651   5.573   3.513   4.820  0.8195 -0.0287 -0.6242
    9CHL1  H23A  652   5.647   3.492   4.740 -0.0889 -2.9863 -0.7302
    9CHL1  H23B  653   5.577   3.420   4.880  1.7158  0.0660 -0.5250
    9CHL1   C24  654   5.429   3.525   4.758 -0.0545  0.7938  0.3520
    9CHL1  H24A  655   5.347   3.524   4.833 -0.0238  0.5771  0.3829
    9CHL1  H24B  656   5.426   3.622   4.704 -1.4141  1.0711  0.8914
    9CHL1   C25  657   5.405   3.409   4.654 -0.0340 -0.1435 -0.4703
    9CHL1   H25  658   5.491   3.415   4.584 -0.4014  1.4689 -0.8045
    9CHL1   C26  659   5.402   3.267   4.721 -0.0783  0.8777 -0.1146
    9CHL1  H26A  660   5.495   3.237   4.775  1.5458  2.8553 -1.7311
    9CHL1  H26B  661   5.323   3.274   4.799 -2.0380  2.0076 -2.1835
    9CHL1  H26C  662   5.388   3.188   4.644 -1.7338 -0.2627  1.3085
    9CHL1   C27  663   5.270   3.432   4.589  0.1170 -0.0304  0.2424
    9CHL1  H27A  664   5.254   3.536   4.553  0.2858 -0.1648 -0.2279
    9CHL1  H27B  665   5.244   3.372   4.499  1.6064 -0.0916 -0.1608
    9CHL1  H27C  666   5.204   3.429   4.679  1.1410 -1.1957  0.9741
   10CHL1    C3  667   4.329   5.530   5.866 -0.1844  0.7010  0.0069
   10CHL1    H3  668   4.267   5.467   5.800  0.6611 -1.7080  1.4703
   10CHL1    O3  669   4.263   5.548   5.993  0.8324  0.5343  0.1138
   10CHL1   H3'  670   4.323   5.514   6.059 -0.6039 -1.9816  0.1857
   10CHL1    C4  671   4.465   5.448   5.897 -0.0745 -0.1831 -0.1230
   10CHL1   H4A  672   4.531   5.492   5.976  1.0663 -1.2317 -0.4673
   10CHL1   H4B  673   4.428   5.352   5.937 -2.4277  1.1759  1.0660
   10CHL1    C5  674   4.543   5.436   5.771 -0.0071 -0.5387 -0.4220
   10CHL1    C6  675   4.580   5.314   5.731 -0.1863 -0.1393  0.3851
   10CHL1    H6  676   4.552   5.230   5.797 -1.3002  0.2288  0.3973
   10CHL1    C7  677   4.648   5.286   5.598  0.0229 -0.3935 -0.5198
   10CHL1   H7A  678   4.723   5.204   5.605  0.6885  0.2688  0.2494
   10CHL1   H7B  679   4.561   5.247   5.540 -1.8547  3.5455 -0.5295
   10CHL1    C8  680   4.713   5.403   5.526  0.5625  0.1571  0.8921
   10CHL1    H8  681   4.815   5.417   5.570  0.6138  1.4346  0.3808
   10CHL1   C14  682   4.723   5.383   5.375 -0.1992 -0.0436 -0.4288
   10CHL1   H14  683   4.616   5.384   5.343  0.6507 -1.1016 -3.4201
   10CHL1   C15  684   4.778   5.245   5.331 -0.5775 -0.1805 -0.0981
   10CHL1  H15A  685   4.868   5.204   5.381 -0.9521 -1.5401 -0.5074
   10CHL1  H15B  686   4.695   5.172   5.327 -0.3131 -0.5029  0.3186
   10CHL1   C16  687   4.833   5.272   5.187 -0.3379 -1.0559  0.5046
   10CHL1  H16A  688   4.939   5.239   5.193 -0.3860 -1.4575 -0.8681
   10CHL1  H16B  689   4.775   5.209   5.117  0.3634  1.0091 -2.0520
   10CHL1   C17  690   4.807   5.421   5.160  0.1477  0.2832  0.2675
   10CHL1   H17  691   4.702   5.437   5.128  0.5880  0.1720 -1.2593
   10CHL1   C13  692   4.799   5.488   5.300 -0.4510 -0.0103 -0.4232
   10CHL1   C18  693   4.951   5.501   5.356  0.0909  0.1060  0.2787
   10CHL1  H18A  694   4.998   5.574   5.287 -1.0991 -0.1846 -0.8420
   10CHL1  H18B  695   4.963   5.543   5.458 -3.0266  1.4702  0.1578
   10CHL1  H18C  696   4.994   5.399   5.350  2.2418  1.0330 -0.6407
   10CHL1   C12  697   4.723   5.619   5.314  0.2125 -0.2549 -0.4043
   10CHL1  H12A  698   4.769   5.710   5.272 -2.8460  0.9658 -1.1819
   10CHL1  H12B  699   4.630   5.615   5.254 -1.3413  3.1962  1.6095
   10CHL1   C11  700   4.683   5.642   5.460 -0.0238 -0.4061 -0.0462
   10CHL1  H11A  701   4.774   5.677   5.513 -0.2483  0.0976  0.0055
   10CHL1  H11B  702   4.610   5.725   5.453 -1.4775 -1.4600  2.1608
   10CHL1    C9  703   4.621   5.527   5.536  0.2620  0.6314 -0.2716
   10CHL1    H9  704   4.522   5.516   5.485  0.1391  3.1730 -0.6820
   10CHL1   C10  705   4.563   5.559   5.677 -0.1841 -0.1176  0.1847
   10CHL1   C19  706   4.679   5.634   5.756  0.3124  0.3953 -0.6031
   10CHL1  H19A  707   4.768   5.571   5.775  0.1585  1.0672  2.7316
   10CHL1  H19B  708   4.719   5.728   5.713 -0.4045  1.5260  1.1029
   10CHL1  H19C  709   4.645   5.669   5.856 -1.3081 -2.0336 -0.2734
   10CHL1    C1  710   4.437   5.643   5.666 -0.0814  0.4123 -0.0516
   10CHL1   H1A  711   4.466   5.742   5.625 -0.2966 -0.1024 -1.4682
   10CHL1   H1B  712   4.367   5.597   5.594  0.6798 -0.5836 -0.1564
   10CHL1    C2  713   4.366   5.663   5.800 -0.7897 -0.0273  0.0222
   10CHL1   H2A  714   4.268   5.713   5.782 -0.8913 -0.1218  0.3099
   10CHL1   H2B  715   4.417   5.742   5.860 -0.8290 -1.0057  1.3583
   10CHL1   C20  716   4.914   5.467   5.060  0.6384 -0.5431 -0.5802
   10CHL1   H20  717   5.015   5.461   5.106 -0.4547 -3.9137  1.5833
   10CHL1   C21  718   4.879   5.610   5.018 -0.4702  0.9124  0.2916
   10CHL1  H21A  719   4.771   5.610   4.993 -0.4153 -0.2107  0.0165
   10CHL1  H21B  720   4.924   5.639   4.920  0.1584  2.5862  1.0436
   10CHL1  H21C  721   4.911   5.688   5.090 -0.7484  0.0441  1.3520
   10CHL1   C22  722   4.924   5.388   4.932  0.5084  0.2813 -0.1604
   10CHL1  H22A  723   4.997   5.433   4.861  1.8215 -1.7149 -0.1132
   10CHL1  H22B  724   4.964   5.286   4.949 -0.0217 -0.5361 -3.5106
   10CHL1   C23  725   4.793   5.374   4.849 -0.1705 -0.0303 -0.3985
   10CHL1  H23A  726   4.719   5.317   4.909 -0.7131  0.0268 -1.0102
   10CHL1  H23B  727   4.753   5.475   4.825 -0.7052 -1.4051 -5.9727
   10CHL1   C24  728   4.810   5.300   4.714  0.1632 -0.2427  0.0693
   10CHL1  H24A  729   4.881   5.364   4.658  0.3076 -0.2391  0.2581
   10CHL1  H24B  730   4.861   5.206   4.744  2.5462  0.0428 -2.8425
   10CHL1   C25  731   4.680   5.273   4.630 -0.5719 -0.0159 -0.4282
   10CHL1   H25  732   4.717   5.208   4.547  0.2052 -1.4799  1.0235
   10CHL1   C26  733   4.572   5.188   4.700 -0.2735 -0.5079  0.1680
   10CHL1  H26A  734   4.496   5.168   4.622  0.2441  0.2092 -0.5242
   10CHL1  H26B  735   4.627   5.098   4.738  0.7624  0.5558  1.2367
   10CHL1  H26C  736   4.526   5.246   4.783  2.3770 -0.6559  1.8075
   10CHL1   C27  737   4.639   5.409   4.577 -0.6294  0.4878 -0.3769
   10CHL1  H27A  738   4.611   5.481   4.657 -2.2357  1.5059 -1.8249
   10CHL1  H27B  739   4.724   5.458   4.524 -0.3155  0.3213 -0.0277
   10CHL1  H27C  740   4.552   5.389   4.512 -0.8317 -1.1601  0.3829
   11CHL1    C3  741   2.784   2.226   5.936  0.4283 -0.2507 -0.2253
   11CHL1    H3  742   2.682   2.189   5.913  0.1651 -1.1357  2.2491
   11CHL1    O3  743   2.796   2.214   6.076  0.3943  0.2838 -0.2419
   11CHL1   H3'  744   2.826   2.125   6.098  1.2145  0.7724  0.6111
   11CHL1    C4  745   2.881   2.127   5.869 -0.3556  0.6544  0.6392
   11CHL1   H4A  746   2.984   2.159   5.899  0.1493  0.8647 -1.2115
   11CHL1   H4B  747   2.873   2.023   5.907  1.6191  1.1682  2.6021
   11CHL1    C5  748   2.869   2.139   5.717  0.1797  0.1643  0.6876
   11CHL1    C6  749   2.855   2.029   5.647 -0.3189 -0.5478  0.0163
   11CHL1    H6  750   2.844   1.930   5.694 -1.7445 -0.2132  0.4146
   11CHL1    C7  751   2.868   2.031   5.496  0.0427 -0.0773 -0.0162
   11CHL1   H7A  752   2.946   1.953   5.482 -0.8467 -0.9447 -0.1102
   11CHL1   H7B  753   2.778   2.005   5.437  1.9517 -1.8986 -2.2585
   11CHL1    C8  754   2.934   2.161   5.440 -0.0825 -0.2036  0.1059
   11CHL1    H8  755   3.037   2.167   5.481 -0.3762 -0.0968  0.8509
   11CHL1   C14  756   2.938   2.180   5.288  0.2080 -0.2365 -0.2337
   11CHL1   H14  757   2.835   2.157   5.252  0.2626 -1.2895  0.2873
   11CHL1   C15  758   3.031   2.081   5.209  0.4171 -0.8042 -0.4555
   11CHL1  H15A  759   3.129   2.055   5.254  1.1177 -0.6367 -1.8557
   11CHL1  H15B  760   2.983   1.982   5.197  0.4958 -0.9605  0.4779
   11CHL1   C16  761   3.041   2.149   5.077  0.5001 -0.1563  0.5149
   11CHL1  H16A  762   3.149   2.164   5.059  0.0542  0.7174 -1.4948
   11CHL1  H16B  763   2.991   2.094   4.995 -1.6587  1.1590  0.9125
   11CHL1   C17  764   2.969   2.287   5.083 -0.4382  0.7365 -0.0777
   11CHL1   H17  765   2.863   2.270   5.052  0.0077 -0.4428 -0.9648
   11CHL1   C13  766   2.968   2.319   5.238 -0.2554  0.0323  0.3671
   11CHL1   C18  767   3.108   2.365   5.276  0.1982  0.1749  0.7709
   11CHL1  H18A  768   3.182   2.293   5.235  1.3467  0.5805  2.0883
   11CHL1  H18B  769   3.134   2.468   5.240  1.7770  0.0805  1.5749
   11CHL1  H18C  770   3.129   2.361   5.385  0.1897 -0.8431  0.7316
   11CHL1   C12  771   2.855   2.406   5.289 -0.2734 -0.0642  0.2504
   11CHL1  H12A  772   2.868   2.508   5.246  0.2679  0.2055  1.0401
   11CHL1  H12B  773   2.755   2.361   5.272 -0.5355  1.0651 -1.2894
   11CHL1   C11  774   2.851   2.415   5.445  0.5245 -0.2806 -1.2580
   11CHL1  H11A  775   2.934   2.482   5.476 -0.6987  0.8064 -0.3177
   11CHL1  H11B  776   2.766   2.482   5.468  0.1844 -0.4033 -2.1151
   11CHL1    C9  777   2.841   2.271   5.511 -0.2299 -0.5757 -0.3057
   11CHL1    H9  778   2.735   2.242   5.495 -0.5051  0.0740  0.2946
   11CHL1   C10  779   2.878   2.279   5.662  0.5385 -0.4523  0.1367
   11CHL1   C19  780   3.025   2.318   5.686  0.0001 -0.4186  0.0801
   11CHL1  H19A  781   3.053   2.356   5.786  1.1069 -1.5222  0.2005
   11CHL1  H19B  782   3.090   2.234   5.655  0.1484 -0.2943  0.0553
   11CHL1  H19C  783   3.041   2.415   5.635  0.5158 -0.1595  0.7415
   11CHL1    C1  784   2.786   2.388   5.740 -0.3050 -0.0256  0.4645
   11CHL1   H1A  785   2.818   2.484   5.693  1.5139 -1.5701 -1.5328
   11CHL1   H1B  786   2.683   2.361   5.708  0.4673 -1.2282 -1.0824
   11CHL1    C2  787   2.791   2.379   5.888 -0.3943 -0.2825 -0.2912
   11CHL1   H2A  788   2.704   2.431   5.934  0.8375 -0.5038  2.4135
   11CHL1   H2B  789   2.879   2.426   5.936  0.0616 -0.6621 -0.7570
   11CHL1   C20  790   3.031   2.394   4.990 -0.1361  0.5819  0.0746
   11CHL1   H20  791   3.125   2.428   5.038  0.0180  0.0605  0.1478
   11CHL1   C21  792   2.924   2.512   4.974  0.0538  0.1483 -0.3892
   11CHL1  H21A  793   2.908   2.566   5.070  0.8184 -0.2441 -0.0396
   11CHL1  H21B  794   2.828   2.487   4.924  0.0349  0.3485 -0.4560
   11CHL1  H21C  795   2.972   2.584   4.905 -1.6840  1.1691 -0.5853
   11CHL1   C22  796   3.057   2.343   4.845  0.0210 -0.4241  0.3448
   11CHL1  H22A  797   3.021   2.238   4.846 -1.8571  0.1503 -1.8215
   11CHL1  H22B  798   2.986   2.395   4.777 -1.2790  0.2850  2.2097
   11CHL1   C23  799   3.208   2.355   4.810  0.2586 -0.4732 -0.0189
   11CHL1  H23A  800   3.236   2.462   4.797  1.8867 -1.1960 -2.7027
   11CHL1  H23B  801   3.264   2.330   4.902  1.5610 -2.0272 -1.1972
   11CHL1   C24  802   3.246   2.273   4.686 -0.6313  0.5917  0.3397
   11CHL1  H24A  803   3.208   2.169   4.688 -0.1234  0.4235  1.2947
   11CHL1  H24B  804   3.191   2.309   4.597  0.2599 -1.6404 -1.1391
   11CHL1   C25  805   3.400   2.259   4.660  0.0413  0.4236 -0.5935
   11CHL1   H25  806   3.455   2.354   4.673  1.6447 -0.8525  2.1831
   11CHL1   C26  807   3.462   2.166   4.770 -0.0044  0.1547 -0.0393
   11CHL1  H26A  808   3.433   2.059   4.775 -0.4574  0.1798 -1.9035
   11CHL1  H26B  809   3.572   2.179   4.769 -0.1052  1.0183 -0.1323
   11CHL1  H26C  810   3.428   2.220   4.862 -0.0903 -0.0200  0.0332
   11CHL1   C27  811   3.431   2.200   4.525 -0.4167  0.4268  0.3593
   11CHL1  H27A  812   3.393   2.267   4.445 -1.5225  0.8736  1.2549
   11CHL1  H27B  813   3.541   2.188   4.510 -0.6334 -0.6319 -0.4683
   11CHL1  H27C  814   3.379   2.102   4.527 -0.6470  0.5082 -1.0923
   12CHL1    C3  815   4.735   1.741   6.022 -0.4986  0.3828  0.3732
   12CHL1    H3  816   4.647   1.799   5.989 -0.9310 -0.4854 -0.0054
   12CHL1    O3  817   4.712   1.723   6.158  0.3352  0.0131 -0.6464
   12CHL1   H3'  818   4.753   1.638   6.180  1.6893  0.2834 -2.0056
   12CHL1    C4  819   4.751   1.597   5.948  0.1234 -0.0845 -0.4160
   12CHL1   H4A  820   4.832   1.535   5.993  0.6552  0.4598 -0.6250
   12CHL1   H4B  821   4.650   1.551   5.958 -0.6194  1.5045 -0.4533
   12CHL1    C5  822   4.791   1.607   5.806 -0.4436  0.6571  0.5853
   12CHL1    C6  823   4.724   1.551   5.703 -1.1009 -0.0430 -0.4818
   12CHL1    H6  824   4.643   1.483   5.733 -1.3557 -0.1601 -1.4485
   12CHL1    C7  825   4.751   1.562   5.557 -0.0574  0.0349 -0.8350
   12CHL1   H7A  826   4.731   1.466   5.505 -3.5735  0.0381  0.4146
   12CHL1   H7B  827   4.676   1.627   5.508 -1.3925 -0.5716  0.3749
   12CHL1    C8  828   4.887   1.624   5.533 -0.8310 -0.2292  0.1349
   12CHL1    H8  829   4.947   1.531   5.535 -0.6447 -0.1522 -1.3830
   12CHL1   C14  830   4.897   1.677   5.397  0.4098  0.2207  0.1928
   12CHL1   H14  831   4.831   1.765   5.382  1.0180  0.9039  1.4284
   12CHL1   C15  832   4.866   1.574   5.284 -0.4334  0.9983 -0.0454
   12CHL1  H15A  833   4.897   1.469   5.303 -0.9213  1.2170  2.1278
   12CHL1  H15B  834   4.756   1.561   5.275 -0.4659  0.8894  0.4999
   12CHL1   C16  835   4.937   1.633   5.165 -0.5502  0.2116 -0.0975
   12CHL1  H16A  836   5.009   1.559   5.124 -0.7024  0.8092 -1.4836
   12CHL1  H16B  837   4.868   1.642   5.078 -1.2167  1.9425  0.5863
   12CHL1   C17  838   5.004   1.764   5.208 -0.4001 -0.7517 -0.4101
   12CHL1   H17  839   4.937   1.849   5.184  2.3226  1.4137 -0.6410
   12CHL1   C13  840   5.033   1.740   5.357 -0.4196  0.5032 -0.7686
   12CHL1   C18  841   5.148   1.629   5.376 -0.4589 -0.5766 -0.0428
   12CHL1  H18A  842   5.126   1.531   5.329  1.2708 -0.8968 -0.2006
   12CHL1  H18B  843   5.245   1.674   5.345  0.1308 -1.7238  0.1115
   12CHL1  H18C  844   5.153   1.604   5.484 -3.0744  0.6203  0.4137
   12CHL1   C12  845   5.066   1.858   5.450  0.5705  0.2535  0.0145
   12CHL1  H12A  846   5.168   1.896   5.430  0.0191  0.2749 -2.9794
   12CHL1  H12B  847   4.996   1.939   5.423  0.1285  0.0243  0.4827
   12CHL1   C11  848   5.050   1.810   5.594 -0.0638  0.0434  0.3347
   12CHL1  H11A  849   5.139   1.752   5.628  1.0046  1.6177  0.2459
   12CHL1  H11B  850   5.045   1.905   5.651  1.3572  2.0952 -2.8500
   12CHL1    C9  851   4.920   1.740   5.626  0.6579  0.2521 -0.3698
   12CHL1    H9  852   4.843   1.819   5.612  0.9379  0.7984  1.0259
   12CHL1   C10  853   4.910   1.711   5.780  0.6455 -0.6897  0.1870
   12CHL1   C19  854   5.033   1.643   5.834  0.2408 -0.3134 -0.0730
   12CHL1  H19A  855   5.128   1.700   5.840  0.5969 -1.1242  2.7244
   12CHL1  H19B  856   5.015   1.608   5.937 -0.0827  2.7123  0.9372
   12CHL1  H19C  857   5.046   1.556   5.766 -0.7764 -0.3992 -0.1527
   12CHL1    C1  858   4.889   1.852   5.851  0.1869  0.8244  0.1357
   12CHL1   H1A  859   4.977   1.920   5.854  1.8283 -1.1747 -1.1280
   12CHL1   H1B  860   4.805   1.901   5.797  0.4078  0.2857 -0.7255
   12CHL1    C2  861   4.851   1.837   5.999 -0.0122 -0.4289 -0.4295
   12CHL1   H2A  862   4.834   1.928   6.060  1.5934 -1.0689  1.0415
   12CHL1   H2B  863   4.931   1.787   6.059 -1.6810 -3.0870 -0.3469
   12CHL1   C20  864   5.116   1.790   5.106  0.1176 -0.0752  0.6090
   12CHL1   H20  865   5.189   1.707   5.116 -1.3717 -1.2211  2.3407
   12CHL1   C21  866   5.190   1.914   5.157  0.2315  0.2162 -0.9104
   12CHL1  H21A  867   5.267   1.928   5.077  1.4235 -0.6167  0.0621
   12CHL1  H21B  868   5.231   1.910   5.260 -0.6674 -0.1267 -0.5602
   12CHL1  H21C  869   5.126   2.004   5.152 -1.0153 -0.2522  3.9381
   12CHL1   C22  870   5.084   1.791   4.952  0.3113 -0.4306 -0.2511
   12CHL1  H22A  871   5.035   1.695   4.927  2.1933 -1.0137 -1.7637
   12CHL1  H22B  872   5.017   1.875   4.923 -1.5817 -2.1969 -1.0573
   12CHL1   C23  873   5.201   1.806   4.855 -0.1693  0.8028 -0.3154
   12CHL1  H23A  874   5.258   1.900   4.874  1.8214 -0.3180 -0.6728
   12CHL1  H23B  875   5.278   1.727   4.864 -0.7627  0.5761  3.8182
   12CHL1   C24  876   5.150   1.794   4.710  0.5834  0.3929 -0.2843
   12CHL1  H24A  877   5.126   1.691   4.675 -0.4815  1.1684 -1.8953
   12CHL1  H24B  878   5.063   1.861   4.693  0.2181  0.5632  2.1086
   12CHL1   C25  879   5.248   1.853   4.603 -0.0206 -0.4158 -0.2161
   12CHL1   H25  880   5.258   1.961   4.630 -2.1577 -0.1849 -0.2877
   12CHL1   C26  881   5.395   1.794   4.606  0.1319 -0.0644  0.1911
   12CHL1  H26A  882   5.461   1.852   4.537 -2.7953  4.9285  1.3734
   12CHL1  H26B  883   5.440   1.805   4.707 -0.4861 -1.5327  0.6441
   12CHL1  H26C  884   5.380   1.687   4.578 -2.4486  0.1724  0.5968
   12CHL1   C27  885   5.192   1.833   4.462  0.2305  0.6130  0.0735
   12CHL1  H27A  886   5.084   1.859   4.459  0.3998  1.1731 -1.1989
   12CHL1  H27B  887   5.248   1.893   4.388 -1.0250 -0.9460 -2.1793
   12CHL1  H27C  888   5.200   1.727   4.430  1.9888  0.8950 -0.4633
   13CHL1    C3  889   3.888   0.894   6.115 -0.0044  0.6287 -0.3053
   13CHL1    H3  890   3.927   0.996   6.095  0.3715  0.2791 -1.3809
   13CHL1    O3  891   3.944   0.865   6.243 -0.0926 -0.4264 -0.3200
   13CHL1   H3'  892   4.036   0.847   6.223 -0.4442 -0.7443 -1.6755
   13CHL1    C4  893   3.732   0.892   6.108  0.1247 -0.0457 -0.0268
   13CHL1   H4A  894   3.696   0.791   6.137  0.1040 -0.0616 -0.1074
   13CHL1   H4B  895   3.695   0.968   6.180 -0.1435 -0.3841  0.1982
   13CHL1    C5  896   3.694   0.933   5.963  0.4481 -0.0016  0.0060
   13CHL1    C6  897   3.610   1.033   5.934  0.3901  0.0647 -0.0144
   13CHL1    H6  898   3.565   1.096   6.012 -0.8386  2.1138 -2.3188
   13CHL1    C7  899   3.566   1.063   5.796 -0.1376  0.0780 -1.0173
   13CHL1   H7A  900   3.457   1.084   5.803 -0.3616 -0.9881 -1.2083
   13CHL1   H7B  901   3.626   1.147   5.755 -2.0441  1.5667 -0.8231
   13CHL1    C8  902   3.586   0.940   5.692  0.0550  0.0570  0.2426
   13CHL1    H8  903   3.510   0.859   5.701 -2.3056  2.0301 -1.5282
   13CHL1   C14  904   3.571   0.994   5.545 -0.4357 -0.4021 -0.2801
   13CHL1   H14  905   3.653   1.067   5.529  0.1787 -0.7174  1.3276
   13CHL1   C15  906   3.449   1.076   5.525 -0.0887  0.0095 -0.8929
   13CHL1  H15A  907   3.368   1.015   5.568  2.1517 -0.7366  2.4129
   13CHL1  H15B  908   3.438   1.182   5.556  0.2662 -0.3428  0.4707
   13CHL1   C16  909   3.435   1.073   5.370  0.1359  0.4565 -0.3288
   13CHL1  H16A  910   3.340   1.035   5.327 -0.6399  1.5479  0.4249
   13CHL1  H16B  911   3.440   1.178   5.335 -0.1816 -0.2319 -2.5664
   13CHL1   C17  912   3.551   0.975   5.317 -0.0564 -0.3006 -0.0287
   13CHL1   H17  913   3.636   1.045   5.298  2.0523 -2.9141 -0.5876
   13CHL1   C13  914   3.588   0.888   5.438 -0.3998 -0.6387  0.2667
   13CHL1   C18  915   3.478   0.774   5.448 -0.5816  0.1501  0.3841
   13CHL1  H18A  916   3.503   0.687   5.385  0.2601  1.2233 -0.7953
   13CHL1  H18B  917   3.467   0.732   5.551  1.5147 -0.3780  0.4124
   13CHL1  H18C  918   3.378   0.812   5.419 -0.4254 -0.5250 -1.0658
   13CHL1   C12  919   3.731   0.841   5.447  0.6603 -0.5134  0.0919
   13CHL1  H12A  920   3.754   0.747   5.392 -1.2533 -0.5894 -0.6085
   13CHL1  H12B  921   3.806   0.918   5.418  1.1111 -0.1637  2.1297
   13CHL1   C11  922   3.759   0.788   5.591  0.0436  0.4311 -0.4307
   13CHL1  H11A  923   3.698   0.696   5.600 -0.4266  0.7312 -0.5131
   13CHL1  H11B  924   3.866   0.758   5.595  0.5008  2.1289  0.3497
   13CHL1    C9  925   3.727   0.883   5.708  0.2997  0.1936  0.1809
   13CHL1    H9  926   3.796   0.966   5.685 -1.0277  1.4723  0.6755
   13CHL1   C10  927   3.755   0.840   5.854 -0.4943 -0.5408  0.0632
   13CHL1   C19  928   3.694   0.701   5.864 -0.1933 -0.4278 -0.1724
   13CHL1  H19A  929   3.587   0.703   5.834 -0.9625  0.1575  2.4724
   13CHL1  H19B  930   3.747   0.630   5.798  0.9851  0.9275 -0.7022
   13CHL1  H19C  931   3.709   0.659   5.966 -0.9497 -1.7766 -0.6074
   13CHL1    C1  932   3.913   0.833   5.874  0.6195  0.3219 -0.1579
   13CHL1   H1A  933   3.952   0.760   5.801 -1.9946 -0.7016 -0.5734
   13CHL1   H1B  934   3.962   0.930   5.849 -0.7751  1.2644  0.7045
   13CHL1    C2  935   3.952   0.798   6.015 -0.1784  0.7421 -0.0431
   13CHL1   H2A  936   4.059   0.795   6.042  0.2933 -0.4912 -1.9487
   13CHL1   H2B  937   3.908   0.700   6.043  1.9049 -0.7394 -1.7967
   13CHL1   C20  938   3.516   0.901   5.190 -0.5670  0.3166  0.4046
   13CHL1   H20  939   3.430   0.832   5.211 -0.2029 -0.3916 -0.4094
   13CHL1   C21  940   3.642   0.821   5.137 -0.0069 -0.0816  0.1624
   13CHL1  H21A  941   3.630   0.722   5.186 -1.2380  1.2148  2.5692
   13CHL1  H21B  942   3.741   0.865   5.161 -0.5456  0.9010  0.5662
   13CHL1  H21C  943   3.632   0.803   5.028 -0.1164  0.0010  0.1585
   13CHL1   C22  944   3.457   0.992   5.078 -1.0428  0.8456  0.1889
   13CHL1  H22A  945   3.442   0.932   4.986  1.4773  1.2892 -0.5217
   13CHL1  H22B  946   3.354   1.029   5.098 -0.9460  0.5865  1.2177
   13CHL1   C23  947   3.533   1.115   5.053  0.7390  0.1770 -0.6005
   13CHL1  H23A  948   3.539   1.185   5.139 -0.8124 -0.5278  0.1137
   13CHL1  H23B  949   3.637   1.086   5.027 -0.1967 -1.6875 -2.5197
   13CHL1   C24  950   3.473   1.191   4.926  0.3046  0.0247  0.5972
   13CHL1  H24A  951   3.448   1.115   4.849  0.7369  1.8541 -1.4241
   13CHL1  H24B  952   3.378   1.243   4.950  0.2982  0.4282 -0.2817
   13CHL1   C25  953   3.570   1.290   4.877  0.0276  0.6927 -0.2101
   13CHL1   H25  954   3.670   1.249   4.849 -0.3548  1.5614 -3.0269
   13CHL1   C26  955   3.517   1.353   4.748  0.3093  0.4634 -0.3158
   13CHL1  H26A  956   3.516   1.282   4.663  0.1427 -1.9381  1.6363
   13CHL1  H26B  957   3.413   1.390   4.756  0.2303  0.1148  0.3343
   13CHL1  H26C  958   3.578   1.439   4.714  1.8017 -0.2851  0.4442
   13CHL1   C27  959   3.609   1.403   4.977  0.1050  0.2174 -0.8489
   13CHL1  H27A  960   3.513   1.448   5.011 -0.5586 -0.0709 -2.3018
   13CHL1  H27B  961   3.672   1.350   5.052 -0.1331  1.0324 -0.0583
   13CHL1  H27C  962   3.669   1.476   4.920  1.8324 -1.2314 -0.9212
   14CHL1    C3  963   2.426   6.053   6.154  0.5326 -0.2939  0.1006
   14CHL1    H3  964   2.513   5.983   6.152 -0.7294 -1.8443 -1.0647
   14CHL1    O3  965   2.361   6.045   6.281 -0.3313  0.4531  0.0223
   14CHL1   H3'  966   2.279   6.094   6.270  0.2135  0.9925 -1.8096
   14CHL1    C4  967   2.485   6.188   6.134 -0.4080  0.5204 -0.3341
   14CHL1   H4A  968   2.419   6.276   6.146  1.1160  1.5653  0.6471
   14CHL1   H4B  969   2.559   6.212   6.214 -1.1076  1.3229  0.0889
   14CHL1    C5  970   2.554   6.195   5.999  0.0273  0.2461 -0.5858
   14CHL1    C6  971   2.687   6.219   5.996 -0.1975 -0.8920 -0.4945
   14CHL1    H6  972   2.738   6.255   6.087  1.3677  1.0082 -2.1053
   14CHL1    C7  973   2.761   6.227   5.867 -0.0208  0.4324  0.0238
   14CHL1   H7A  974   2.838   6.307   5.866 -0.5419  0.9171 -1.3708
   14CHL1   H7B  975   2.825   6.137   5.861 -0.7999 -0.2141  1.2193
   14CHL1    C8  976   2.673   6.227   5.740 -0.0065  0.1824  0.6850
   14CHL1    H8  977   2.625   6.327   5.737 -1.1424 -0.3418  1.2720
   14CHL1   C14  978   2.758   6.189   5.610  0.1692  0.5824  0.3075
   14CHL1   H14  979   2.782   6.081   5.626  2.1091  0.6406 -1.8389
   14CHL1   C15  980   2.890   6.254   5.579 -0.8710  0.0594  0.1823
   14CHL1  H15A  981   2.892   6.365   5.570  3.9559  0.0199 -0.6161
   14CHL1  H15B  982   2.978   6.234   5.643 -0.3596  1.1736 -0.1680
   14CHL1   C16  983   2.915   6.205   5.439 -0.1200  0.5907 -0.2614
   14CHL1  H16A  984   2.983   6.268   5.379  0.6494  0.7775  0.7828
   14CHL1  H16B  985   2.979   6.115   5.454  0.6996  1.4737  1.7274
   14CHL1   C17  986   2.785   6.166   5.375  0.8207  0.0864 -0.3178
   14CHL1   H17  987   2.776   6.055   5.379  0.0048  0.0958 -1.5875
   14CHL1   C13  988   2.679   6.207   5.479  0.4505 -0.0409  0.5396
   14CHL1   C18  989   2.624   6.354   5.473 -0.5852 -0.5235  0.3596
   14CHL1  H18A  990   2.587   6.387   5.373  0.5180  1.2674  0.5157
   14CHL1  H18B  991   2.526   6.362   5.524  0.3083 -3.1371  2.5859
   14CHL1  H18C  992   2.694   6.430   5.513 -0.0650 -1.0649  0.4849
   14CHL1   C12  993   2.564   6.109   5.494 -0.0554  0.6062  0.3900
   14CHL1  H12A  994   2.500   6.102   5.403  2.4825 -0.1208 -1.3909
   14CHL1  H12B  995   2.605   6.005   5.496 -0.3559  0.4525 -0.8303
   14CHL1   C11  996   2.471   6.132   5.617 -0.3096 -0.0552  0.5587
   14CHL1  H11A  997   2.413   6.226   5.607  2.1000  1.4184 -0.0123
   14CHL1  H11B  998   2.405   6.043   5.617 -0.8651  0.3534  1.4980
   14CHL1    C9  999   2.553   6.134   5.748  0.6593 -0.4974 -0.6600
   14CHL1    H9 1000   2.586   6.029   5.767  1.1862 -0.1367  0.3874
   14CHL1   C10 1001   2.466   6.146   5.881  0.4332 -0.4053  0.2530
   14CHL1   C19 1002   2.359   6.255   5.855 -0.5212  0.1671 -0.2321
   14CHL1  H19A 1003   2.412   6.342   5.811  3.6379 -0.4538  3.2832
   14CHL1  H19B 1004   2.288   6.214   5.779  0.1617 -1.0141 -0.2579
   14CHL1  H19C 1005   2.299   6.291   5.941  0.4898  1.2107  0.0369
   14CHL1    C1 1006   2.394   6.016   5.916  0.3666  0.6600 -0.1452
   14CHL1   H1A 1007   2.316   6.001   5.839  1.3662 -1.2712 -0.8294
   14CHL1   H1B 1008   2.453   5.923   5.899  0.0784  0.5724 -0.6684
   14CHL1    C2 1009   2.327   6.006   6.052  0.5343 -0.2209  0.3350
   14CHL1   H2A 1010   2.298   5.899   6.063 -0.8963  0.1660  0.4287
   14CHL1   H2B 1011   2.236   6.068   6.061  1.5810  1.4212 -0.1755
   14CHL1   C20 1012   2.762   6.204   5.231  0.9362  0.1590 -0.2360
   14CHL1   H20 1013   2.653   6.196   5.215  0.6179 -0.8915  2.2959
   14CHL1   C21 1014   2.822   6.097   5.143 -0.1247  1.0777  0.3736
   14CHL1  H21A 1015   2.928   6.073   5.167  0.1979  1.3998 -0.6921
   14CHL1  H21B 1016   2.815   6.129   5.037  3.2277  0.1362 -0.2133
   14CHL1  H21C 1017   2.762   6.004   5.149  0.9831  0.0084 -3.5449
   14CHL1   C22 1018   2.816   6.349   5.190  0.1319  1.0076  0.5353
   14CHL1  H22A 1019   2.794   6.417   5.275 -2.4476  0.0546  0.6716
   14CHL1  H22B 1020   2.924   6.335   5.165 -0.3195 -1.8025  0.0381
   14CHL1   C23 1021   2.744   6.403   5.065  0.4267 -0.0023 -0.0060
   14CHL1  H23A 1022   2.749   6.318   4.993  1.9267 -1.0800  1.3365
   14CHL1  H23B 1023   2.636   6.420   5.085  0.6243  0.1843  0.9401
   14CHL1   C24 1024   2.806   6.532   5.016 -0.9020 -0.4753  0.2675
   14CHL1  H24A 1025   2.786   6.608   5.094 -1.3014 -0.9073  0.5918
   14CHL1  H24B 1026   2.916   6.519   5.005 -0.9538  0.2054 -1.1952
   14CHL1   C25 1027   2.755   6.576   4.874  0.1022 -0.5359 -0.3839
   14CHL1   H25 1028   2.768   6.686   4.857  1.5984 -0.7969 -0.9908
   14CHL1   C26 1029   2.845   6.516   4.759  1.0742 -0.0847 -0.8173
   14CHL1  H26A 1030   2.946   6.549   4.790  0.6781  0.1250  0.2518
   14CHL1  H26B 1031   2.827   6.406   4.767  1.6055 -0.1054  0.1734
   14CHL1  H26C 1032   2.816   6.550   4.657 -1.1618 -0.0037 -0.1800
   14CHL1   C27 1033   2.608   6.537   4.851 -0.5324  0.2639  0.4973
   14CHL1  H27A 1034   2.538   6.587   4.922 -0.4224  1.2405 -0.0676
   14CHL1  H27B 1035   2.576   6.570   4.750 -0.0117 -2.5001 -0.6177
   14CHL1  H27C 1036   2.596   6.427   4.855 -0.5996  0.2125 -0.9907
   15CHL1    C3 1037   1.458   5.337   5.954  1.3294 -0.2747 -0.6040
   15CHL1    H3 1038   1.349   5.336   5.933  1.2538 -2.4759 -0.1989
   15CHL1    O3 1039   1.497   5.290   6.084 -0.4095 -0.1782 -0.3123
   15CHL1   H3' 1040   1.588   5.261   6.077  0.3537  2.2143 -0.9439
   15CHL1    C4 1041   1.522   5.232   5.856 -0.5364 -0.3194  0.5084
   15CHL1   H4A 1042   1.631   5.228   5.878  0.0465  5.0602 -0.6339
   15CHL1   H4B 1043   1.484   5.129   5.868 -0.3170 -0.4284  0.2550
   15CHL1    C5 1044   1.502   5.286   5.713  0.1754  0.8786  0.3936
   15CHL1    C6 1045   1.438   5.209   5.623  0.3466  0.3538  0.0955
   15CHL1    H6 1046   1.402   5.110   5.656  0.2013  0.3927  0.0526
   15CHL1    C7 1047   1.406   5.243   5.482  0.1766 -0.6188  0.0298
   15CHL1   H7A 1048   1.437   5.157   5.420 -0.0212 -1.2158  0.7578
   15CHL1   H7B 1049   1.298   5.261   5.463  0.5091  0.2990 -1.0195
   15CHL1    C8 1050   1.485   5.373   5.441  0.5850 -0.0911  0.6227
   15CHL1    H8 1051   1.590   5.339   5.429  0.2529 -0.8936 -0.0504
   15CHL1   C14 1052   1.420   5.445   5.323 -0.7857 -0.6358 -0.5161
   15CHL1   H14 1053   1.330   5.493   5.367 -0.2041 -0.7017  0.8000
   15CHL1   C15 1054   1.377   5.355   5.209 -0.3807  0.8247 -0.5459
   15CHL1  H15A 1055   1.463   5.291   5.181 -3.4085 -3.3051 -0.9484
   15CHL1  H15B 1056   1.279   5.309   5.234 -0.1028 -0.0403 -1.0403
   15CHL1   C16 1057   1.347   5.447   5.091 -0.3747  0.3446 -0.2973
   15CHL1  H16A 1058   1.391   5.397   5.002 -2.8355 -0.4583 -1.1289
   15CHL1  H16B 1059   1.242   5.466   5.061 -0.7971  1.2749  1.6673
   15CHL1   C17 1060   1.404   5.585   5.141  0.3507  0.2572  1.0119
   15CHL1   H17 1061   1.319   5.637   5.190 -0.7415 -1.0685  0.5686
   15CHL1   C13 1062   1.498   5.556   5.267 -0.2292 -0.4553 -0.3476
   15CHL1   C18 1063   1.636   5.517   5.215 -0.6162 -0.0741  0.2781
   15CHL1  H18A 1064   1.693   5.600   5.167 -1.2359  0.1144 -0.1342
   15CHL1  H18B 1065   1.706   5.488   5.297 -0.5827  2.7848  1.3139
   15CHL1  H18C 1066   1.623   5.435   5.142 -2.1140 -0.0561  0.5139
   15CHL1   C12 1067   1.501   5.668   5.367 -0.6834  0.0089  0.5028
   15CHL1  H12A 1068   1.562   5.755   5.334  0.5654 -0.8415  0.5264
   15CHL1  H12B 1069   1.394   5.697   5.376  0.2996  3.2406  2.4054
   15CHL1   C11 1070   1.550   5.618   5.504 -0.2062 -0.1435  0.1438
   15CHL1  H11A 1071   1.660   5.603   5.493 -0.1812 -1.4536  1.9601
   15CHL1  H11B 1072   1.527   5.702   5.573  0.2256 -1.5333  2.0124
   15CHL1    C9 1073   1.491   5.485   5.553  0.3918  0.1463 -0.3058
   15CHL1    H9 1074   1.382   5.500   5.568  0.5391  0.8626  0.0401
   15CHL1   C10 1075   1.552   5.429   5.680 -0.5219 -0.0655 -0.2312
   15CHL1   C19 1076   1.705   5.421   5.672 -0.6369 -0.4823 -0.0820
   15CHL1  H19A 1077   1.733   5.398   5.567  1.7926  2.1047 -0.0640
   15CHL1  H19B 1078   1.752   5.520   5.692 -2.8678  0.4712  0.5449
   15CHL1  H19C 1079   1.746   5.351   5.748 -0.3712  0.0034  0.2197
   15CHL1    C1 1080   1.513   5.527   5.791 -0.2264  0.5193 -0.4585
   15CHL1   H1A 1081   1.572   5.621   5.799 -0.5156  0.6042  0.7790
   15CHL1   H1B 1082   1.406   5.559   5.786 -0.2773  0.4475  0.1610
   15CHL1    C2 1083   1.523   5.478   5.933 -0.2547 -0.5654 -0.0080
   15CHL1   H2A 1084   1.472   5.552   5.997  0.9784  1.6176 -1.4661
   15CHL1   H2B 1085   1.628   5.462   5.967 -0.4325 -0.3313  0.6414
   15CHL1   C20 1086   1.443   5.677   5.028  0.1084 -0.6736  0.5226
   15CHL1   H20 1087   1.527   5.741   5.063  0.9662 -0.3974 -1.9383
   15CHL1   C21 1088   1.321   5.770   4.994  0.4536 -0.3038  0.4372
   15CHL1  H21A 1089   1.353   5.843   4.917 -0.3813  0.6815  1.0092
   15CHL1  H21B 1090   1.279   5.830   5.077  0.1815 -1.8887  1.4746
   15CHL1  H21C 1091   1.242   5.714   4.939  1.6660  0.3449 -2.0574
   15CHL1   C22 1092   1.513   5.617   4.901  0.4449 -0.4179  0.0113
   15CHL1  H22A 1093   1.605   5.565   4.933 -0.4190 -1.0292  1.5806
   15CHL1  H22B 1094   1.446   5.539   4.859 -3.0213  0.5558  3.3607
   15CHL1   C23 1095   1.552   5.725   4.803 -0.0840 -0.3305 -0.7621
   15CHL1  H23A 1096   1.470   5.785   4.759  0.6895  0.6548 -0.8889
   15CHL1  H23B 1097   1.625   5.787   4.859  1.0642 -2.2773 -0.0278
   15CHL1   C24 1098   1.621   5.652   4.682 -0.1614  0.2920 -0.7169
   15CHL1  H24A 1099   1.725   5.619   4.706 -0.1485  0.7926 -0.0621
   15CHL1  H24B 1100   1.577   5.550   4.671 -2.8603  1.2998  0.3189
   15CHL1   C25 1101   1.624   5.732   4.546  0.6679 -0.4584  0.0987
   15CHL1   H25 1102   1.528   5.767   4.502  1.2633  0.9364 -0.0968
   15CHL1   C26 1103   1.715   5.863   4.531 -0.2800 -0.4187 -0.8634
   15CHL1  H26A 1104   1.704   5.919   4.436  1.6309  1.4238 -0.0610
   15CHL1  H26B 1105   1.696   5.936   4.613  0.1598 -0.0824 -1.0572
   15CHL1  H26C 1106   1.817   5.819   4.536  0.9471  2.2755 -1.4428
   15CHL1   C27 1107   1.671   5.633   4.442  0.4427 -0.3019  0.1857
   15CHL1  H27A 1108   1.679   5.674   4.339  0.3952 -0.6259  0.0537
   15CHL1  H27B 1109   1.769   5.588   4.469  1.6909  2.5377  0.5609
   15CHL1  H27C 1110   1.592   5.555   4.436  1.7009 -1.7619  1.8097
   16CHL1    C3 1111   0.721   2.570   6.015 -0.1352  0.2411 -0.1825
   16CHL1    H3 1112   0.680   2.470   5.988  1.6203 -0.5418 -0.0504
   16CHL1    O3 1113   0.656   2.594   6.139 -0.6037 -0.0031  0.2855
   16CHL1   H3' 1114   0.694   2.681   6.158  0.1358 -0.0754 -0.8134
   16CHL1    C4 1115   0.881   2.568   6.030  0.1259 -0.1752  0.0143
   16CHL1   H4A 1116   0.906   2.674   6.048  1.3911 -0.5423  0.4787
   16CHL1   H4B 1117   0.906   2.502   6.116 -4.9035 -1.6712  0.5040
   16CHL1    C5 1118   0.944   2.519   5.901 -0.5542 -0.2853  0.4489
   16CHL1    C6 1119   1.047   2.426   5.906 -0.4799 -0.0451 -0.2806
   16CHL1    H6 1120   1.082   2.378   5.998  1.2846 -0.4637 -1.1636
   16CHL1    C7 1121   1.117   2.377   5.783 -0.1318 -0.6995  0.0620
   16CHL1   H7A 1122   1.227   2.378   5.800  0.0872  1.4869 -1.1607
   16CHL1   H7B 1123   1.095   2.270   5.763 -1.0235 -0.6812  0.9180
   16CHL1    C8 1124   1.085   2.450   5.647 -0.3748 -0.0092  0.0231
   16CHL1    H8 1125   1.152   2.539   5.645 -0.1714 -0.1963 -1.4352
   16CHL1   C14 1126   1.104   2.365   5.523 -0.2178  0.2043  0.2328
   16CHL1   H14 1127   1.026   2.286   5.524  1.8732 -1.9152 -0.9416
   16CHL1   C15 1128   1.226   2.279   5.503 -0.5745  0.4247  0.4418
   16CHL1  H15A 1129   1.316   2.341   5.517 -1.4396  1.1193  3.1379
   16CHL1  H15B 1130   1.218   2.185   5.562  0.2788 -0.0192 -0.1360
   16CHL1   C16 1131   1.222   2.250   5.351  0.4477  0.2891  0.7341
   16CHL1  H16A 1132   1.312   2.289   5.299 -0.4298 -0.5882 -1.4972
   16CHL1  H16B 1133   1.221   2.140   5.334  0.7422  0.3543  0.2900
   16CHL1   C17 1134   1.101   2.327   5.289  1.1309 -0.1529  0.1136
   16CHL1   H17 1135   1.014   2.259   5.301  0.2886  0.9766  0.4341
   16CHL1   C13 1136   1.067   2.439   5.392 -0.5208 -0.4361  0.2643
   16CHL1   C18 1137   1.162   2.556   5.366 -0.0415  0.2238  0.1996
   16CHL1  H18A 1138   1.172   2.623   5.454 -3.5815 -1.9180  2.3711
   16CHL1  H18B 1139   1.263   2.515   5.347  0.3928  0.3094  2.1794
   16CHL1  H18C 1140   1.137   2.614   5.275 -0.2541 -1.6712 -0.9872
   16CHL1   C12 1141   0.924   2.485   5.396 -0.0622 -0.1606  0.3188
   16CHL1  H12A 1142   0.911   2.548   5.306  0.1026 -1.3208 -0.5354
   16CHL1  H12B 1143   0.861   2.394   5.400 -0.3892  0.0694  0.3868
   16CHL1   C11 1144   0.894   2.575   5.516  0.1904  0.3697  1.3388
   16CHL1  H11A 1145   0.945   2.674   5.508  2.3239 -0.9936 -2.7379
   16CHL1  H11B 1146   0.786   2.600   5.512 -0.4947 -2.7119 -0.6764
   16CHL1    C9 1147   0.939   2.510   5.650 -1.1275 -0.1832 -0.4841
   16CHL1    H9 1148   0.872   2.422   5.655 -0.1609 -0.9058 -0.1388
   16CHL1   C10 1149   0.888   2.585   5.774 -0.2367 -0.6928 -0.0601
   16CHL1   C19 1150   0.942   2.735   5.767  0.7846  0.0926  0.2398
   16CHL1  H19A 1151   0.927   2.782   5.867 -0.8207  2.0578 -0.8975
   16CHL1  H19B 1152   1.049   2.747   5.741  0.2985 -1.0210 -2.4892
   16CHL1  H19C 1153   0.882   2.797   5.698 -2.3556 -1.3323  1.5773
   16CHL1    C1 1154   0.730   2.599   5.771  0.0975  0.4054  0.1763
   16CHL1   H1A 1155   0.693   2.656   5.683 -0.9756 -3.0150 -1.6931
   16CHL1   H1B 1156   0.676   2.502   5.763  0.6842  0.3174 -4.0302
   16CHL1    C2 1157   0.671   2.658   5.903 -0.5206  0.1896  0.0956
   16CHL1   H2A 1158   0.560   2.655   5.903 -0.4788 -2.1842 -0.9119
   16CHL1   H2B 1159   0.707   2.760   5.932  2.6094 -0.8717  0.1349
   16CHL1   C20 1160   1.112   2.359   5.141 -0.8297 -0.5728 -0.5512
   16CHL1   H20 1161   1.165   2.455   5.125  0.5043 -1.4339 -1.3914
   16CHL1   C21 1162   0.978   2.390   5.075  0.0611 -0.0700 -1.0557
   16CHL1  H21A 1163   0.961   2.384   4.965  2.3488 -3.7630 -1.3067
   16CHL1  H21B 1164   0.939   2.490   5.103  1.5444 -0.0041  0.9039
   16CHL1  H21C 1165   0.896   2.336   5.128  0.8286 -0.5542 -0.3403
   16CHL1   C22 1166   1.178   2.248   5.065 -0.3648 -0.3150  0.0168
   16CHL1  H22A 1167   1.285   2.243   5.096  0.2507 -0.9141 -2.0553
   16CHL1  H22B 1168   1.126   2.151   5.083 -0.8537  0.0321  0.4630
   16CHL1   C23 1169   1.176   2.276   4.911 -0.7295  0.2063 -0.0311
   16CHL1  H23A 1170   1.072   2.263   4.874 -0.7983 -0.6900  0.4671
   16CHL1  H23B 1171   1.219   2.372   4.876  0.7765 -1.8261 -4.0992
   16CHL1   C24 1172   1.256   2.170   4.831 -0.1686  0.3467  0.9357
   16CHL1  H24A 1173   1.360   2.169   4.869 -0.2011  1.7743  1.0786
   16CHL1  H24B 1174   1.211   2.070   4.851  0.1236  0.1619  0.6759
   16CHL1   C25 1175   1.272   2.176   4.675 -0.1476 -0.2082  0.6097
   16CHL1   H25 1176   1.189   2.232   4.626  1.3880  0.3225 -1.4615
   16CHL1   C26 1177   1.399   2.266   4.649 -0.5120  0.2205  0.6656
   16CHL1  H26A 1178   1.409   2.348   4.724 -0.2880  1.3693 -0.5945
   16CHL1  H26B 1179   1.483   2.194   4.654  0.8753  1.8961  2.1719
   16CHL1  H26C 1180   1.402   2.301   4.544  1.8747 -0.8648  0.3380
   16CHL1   C27 1181   1.287   2.033   4.621  0.4255 -0.3679  0.2644
   16CHL1  H27A 1182   1.303   2.027   4.511 -3.9111  2.1631 -0.6409
   16CHL1  H27B 1183   1.372   1.984   4.673 -0.3576 -1.0092  0.9451
   16CHL1  H27C 1184   1.201   1.967   4.647 -0.9288  2.0403  2.1101
   17CHL1    C3 1185   1.958   5.955   5.936  0.1835  0.4343  0.3821
   17CHL1    H3 1186   2.029   6.040   5.926 -0.4312  0.8173 -0.7406
   17CHL1    O3 1187   1.945   5.909   6.075  0.1059 -0.2205  0.0062
   17CHL1   H3' 1188   1.908   5.985   6.120  0.5248  0.2310 -0.4019
   17CHL1    C4 1189   1.820   6.000   5.884 -0.7566 -0.7844  0.4721
   17CHL1   H4A 1190   1.742   5.921   5.894 -1.8095  0.1770  0.0598
   17CHL1   H4B 1191   1.776   6.080   5.947  0.3240 -0.1832  0.4715
   17CHL1    C5 1192   1.841   6.047   5.744  0.2572 -0.4826 -0.0995
   17CHL1    C6 1193   1.794   6.168   5.703 -0.3428 -0.1663  0.5904
   17CHL1    H6 1194   1.754   6.239   5.777  0.7934  0.6167  0.4542
   17CHL1    C7 1195   1.804   6.208   5.559  0.0901 -0.6770 -0.0430
   17CHL1   H7A 1196   1.718   6.275   5.536  0.4963 -0.1088  0.0758
   17CHL1   H7B 1197   1.889   6.279   5.549 -0.6101  0.2345  0.3521
   17CHL1    C8 1198   1.812   6.089   5.459 -0.7126 -0.4311  0.8243
   17CHL1    H8 1199   1.712   6.042   5.462 -1.1912  0.4743 -0.8853
   17CHL1   C14 1200   1.841   6.133   5.322 -0.3911  0.3527  0.4621
   17CHL1   H14 1201   1.942   6.178   5.328 -0.8464  1.2007  2.3347
   17CHL1   C15 1202   1.758   6.249   5.266  0.1224  0.0257 -0.1666
   17CHL1  H15A 1203   1.651   6.227   5.289 -0.3568  2.5578  0.1931
   17CHL1  H15B 1204   1.787   6.348   5.306  0.2785  1.6392 -4.0840
   17CHL1   C16 1205   1.795   6.242   5.116  0.6610 -0.1327 -0.1727
   17CHL1  H16A 1206   1.705   6.249   5.051  1.2250  0.3953 -0.9158
   17CHL1  H16B 1207   1.847   6.336   5.088 -0.3080 -0.0156 -1.6585
   17CHL1   C17 1208   1.892   6.125   5.089  0.9934 -0.6608  0.7238
   17CHL1   H17 1209   1.995   6.158   5.114  0.4888  1.3982  0.1253
   17CHL1   C13 1210   1.861   6.029   5.213 -0.5076 -0.5494 -0.1755
   17CHL1   C18 1211   1.728   5.954   5.184 -0.3103  0.9400 -0.6128
   17CHL1  H18A 1212   1.648   6.014   5.138 -1.8623 -1.6729 -1.4155
   17CHL1  H18B 1213   1.753   5.866   5.121  0.4495 -0.8320  2.0796
   17CHL1  H18C 1214   1.687   5.914   5.279 -0.4708  3.2364  0.3097
   17CHL1   C12 1215   1.975   5.928   5.258 -0.4729 -0.2020  0.0400
   17CHL1  H12A 1216   1.979   5.849   5.180 -0.5313 -0.0203 -0.1492
   17CHL1  H12B 1217   2.071   5.983   5.246 -1.4250  1.0655 -2.0304
   17CHL1   C11 1218   1.952   5.879   5.401 -0.0906  0.7054  0.5693
   17CHL1  H11A 1219   1.872   5.802   5.406  1.0073 -0.4427  0.8645
   17CHL1  H11B 1220   2.042   5.822   5.432 -1.6026 -1.5612  0.9418
   17CHL1    C9 1221   1.924   5.995   5.504  0.6489 -0.3298  0.7134
   17CHL1    H9 1222   2.016   6.058   5.499  1.2658 -1.2666  0.1760
   17CHL1   C10 1223   1.900   5.943   5.644  0.1406  0.2669  0.0408
   17CHL1   C19 1224   1.792   5.839   5.636  0.0312  0.6093 -0.6051
   17CHL1  H19A 1225   1.757   5.806   5.736 -0.8638  4.1458  0.3278
   17CHL1  H19B 1226   1.695   5.864   5.587 -1.0090 -2.1042  0.0165
   17CHL1  H19C 1227   1.842   5.745   5.605 -0.3661 -1.1565  3.8198
   17CHL1    C1 1228   2.037   5.882   5.702  0.2294  0.1449  0.0846
   17CHL1   H1A 1229   2.080   5.790   5.656  0.1723  0.6459 -0.9964
   17CHL1   H1B 1230   2.116   5.960   5.694 -0.0638  0.5530  1.1199
   17CHL1    C2 1231   2.012   5.836   5.847  0.0089 -0.1327  0.6817
   17CHL1   H2A 1232   2.106   5.799   5.893  0.2659 -0.4014 -0.0522
   17CHL1   H2B 1233   1.944   5.748   5.846  0.0096 -0.1699 -2.9280
   17CHL1   C20 1234   1.907   6.081   4.944 -0.2675 -0.2089 -0.1522
   17CHL1   H20 1235   1.949   6.168   4.890 -2.4286  1.5339  0.8645
   17CHL1   C21 1236   1.765   6.069   4.871 -0.0893  0.4886  0.4678
   17CHL1  H21A 1237   1.702   5.990   4.917 -0.7895  0.8465  0.1255
   17CHL1  H21B 1238   1.768   6.028   4.768  2.0969  0.6514  0.4260
   17CHL1  H21C 1239   1.723   6.171   4.873  1.1251  1.0056 -0.1492
   17CHL1   C22 1240   1.995   5.955   4.930  0.3222 -0.4133  0.0394
   17CHL1  H22A 1241   2.089   5.970   4.988  2.1869 -2.5312 -2.3140
   17CHL1  H22B 1242   1.937   5.877   4.983  0.0783  1.0687  2.0199
   17CHL1   C23 1243   2.027   5.928   4.782  0.2577  0.8351 -0.8296
   17CHL1  H23A 1244   2.109   5.854   4.778  0.0380  0.5810 -0.7066
   17CHL1  H23B 1245   1.937   5.878   4.739 -0.4060 -0.2034  1.6731
   17CHL1   C24 1246   2.073   6.045   4.700  0.6913  0.3282  0.7497
   17CHL1  H24A 1247   1.982   6.105   4.679  0.1460 -0.5214  0.6639
   17CHL1  H24B 1248   2.121   6.123   4.764 -2.3538  1.8488  1.2439
   17CHL1   C25 1249   2.163   6.023   4.570  0.4697  0.7403  0.5288
   17CHL1   H25 1250   2.260   5.978   4.600  0.7138  0.0909 -1.1974
   17CHL1   C26 1251   2.101   5.907   4.495  0.6776 -0.5962 -0.3745
   17CHL1  H26A 1252   1.992   5.922   4.482  0.5572 -2.4086 -1.7630
   17CHL1  H26B 1253   2.139   5.886   4.392 -0.0140 -0.6672 -0.6197
   17CHL1  H26C 1254   2.099   5.815   4.558 -1.0898  2.5769  4.4299
   17CHL1   C27 1255   2.181   6.142   4.475 -0.5791  0.8998  0.0311
   17CHL1  H27A 1256   2.086   6.197   4.456 -0.3083  0.6965 -1.9807
   17CHL1  H27B 1257   2.254   6.213   4.519 -1.4260  0.6184  1.9729
   17CHL1  H27C 1258   2.212   6.104   4.376  2.0735  1.5274  0.5864
   18CHL1    C3 1259   4.005   0.371   5.911  0.0455 -0.6553  0.0267
   18CHL1    H3 1260   3.961   0.472   5.919  1.9213  0.2158 -0.3797
   18CHL1    O3 1261   4.046   0.319   6.040  0.2897 -0.0467 -0.1601
   18CHL1   H3' 1262   4.108   0.387   6.068  1.2768  0.1962 -2.7872
   18CHL1    C4 1263   3.903   0.284   5.836  0.3635  0.1976 -0.7858
   18CHL1   H4A 1264   3.939   0.179   5.845 -1.9022 -0.5065  0.4702
   18CHL1   H4B 1265   3.809   0.283   5.896  0.2531 -0.6449 -0.9748
   18CHL1    C5 1266   3.865   0.326   5.697 -0.2338 -0.0120  0.0280
   18CHL1    C6 1267   3.746   0.346   5.651 -0.4514 -0.6696 -1.1373
   18CHL1    H6 1268   3.657   0.329   5.713  0.7169 -0.1834  0.7158
   18CHL1    C7 1269   3.713   0.386   5.508  0.4296  1.2407 -0.0386
   18CHL1   H7A 1270   3.623   0.335   5.465  1.1290  0.9571 -1.1987
   18CHL1   H7B 1271   3.689   0.493   5.521 -0.8079  0.7753  1.6756
   18CHL1    C8 1272   3.837   0.370   5.409 -0.1834 -0.8021 -0.0126
   18CHL1    H8 1273   3.849   0.261   5.387 -0.4342 -0.5779 -1.2787
   18CHL1   C14 1274   3.803   0.442   5.282 -0.3243  0.3688  0.4904
   18CHL1   H14 1275   3.787   0.544   5.324 -0.7193 -0.1303  1.5603
   18CHL1   C15 1276   3.682   0.413   5.200  0.1567  0.4128  0.1637
   18CHL1  H15A 1277   3.663   0.303   5.201  1.0827  0.2378 -0.8689
   18CHL1  H15B 1278   3.600   0.469   5.250 -1.3503 -1.1722 -0.4522
   18CHL1   C16 1279   3.708   0.468   5.062  0.3895 -0.2096 -0.1492
   18CHL1  H16A 1280   3.713   0.381   4.993  0.0905  0.3457 -0.8777
   18CHL1  H16B 1281   3.632   0.543   5.030  0.7800 -0.8453 -2.6390
   18CHL1   C17 1282   3.850   0.529   5.060  0.3594  0.3326 -0.0654
   18CHL1   H17 1283   3.845   0.637   5.084 -0.0058  0.1888  0.5123
   18CHL1   C13 1284   3.915   0.453   5.182  0.0719 -1.0842 -0.4597
   18CHL1   C18 1285   3.949   0.314   5.125  0.1243 -0.2717  0.0022
   18CHL1  H18A 1286   3.996   0.241   5.195 -0.9805 -0.2843  0.7626
   18CHL1  H18B 1287   3.862   0.254   5.089  0.9473 -0.2740 -2.0089
   18CHL1  H18C 1288   4.008   0.328   5.032 -0.4297  0.0307 -0.3052
   18CHL1   C12 1289   4.038   0.523   5.237  0.6386 -0.5477  0.2575
   18CHL1  H12A 1290   4.127   0.530   5.171  0.1031  0.7334 -0.3309
   18CHL1  H12B 1291   4.020   0.627   5.270  2.9183 -0.2554  0.6330
   18CHL1   C11 1292   4.078   0.447   5.369 -0.3560 -0.1019  0.1453
   18CHL1  H11A 1293   4.117   0.344   5.350  0.2238  0.1905 -0.2583
   18CHL1  H11B 1294   4.152   0.510   5.422  1.0134 -0.8838 -0.7921
   18CHL1    C9 1295   3.964   0.428   5.471  1.2445  0.1839 -1.0039
   18CHL1    H9 1296   3.930   0.526   5.510  1.2525 -1.1768  2.6392
   18CHL1   C10 1297   3.988   0.362   5.611 -0.2139 -0.1283  0.0865
   18CHL1   C19 1298   4.052   0.222   5.580  0.7140  0.6965  0.1373
   18CHL1  H19A 1299   4.001   0.151   5.512  0.6470 -1.5903  2.5103
   18CHL1  H19B 1300   4.148   0.252   5.532  0.7237  1.2379  0.4850
   18CHL1  H19C 1301   4.071   0.175   5.679 -0.2825  1.2350  0.5918
   18CHL1    C1 1302   4.088   0.453   5.689 -0.0822 -0.3734 -0.4901
   18CHL1   H1A 1303   4.185   0.464   5.635  0.9540 -0.2525  1.3501
   18CHL1   H1B 1304   4.052   0.558   5.691  2.0093  0.3885 -0.9732
   18CHL1    C2 1305   4.125   0.391   5.825 -0.0276 -0.1003 -0.2060
   18CHL1   H2A 1306   4.188   0.462   5.883 -0.3536  0.9037 -1.0476
   18CHL1   H2B 1307   4.183   0.299   5.807 -0.1588 -0.4933  1.2905
   18CHL1   C20 1308   3.916   0.536   4.924  0.2940 -0.2481 -0.0732
   18CHL1   H20 1309   4.026   0.530   4.942 -0.0405 -0.1988  2.0338
   18CHL1   C21 1310   3.885   0.671   4.860  0.1075 -0.2669  0.6021
   18CHL1  H21A 1311   3.931   0.673   4.759 -1.5765  3.8609 -0.1593
   18CHL1  H21B 1312   3.930   0.754   4.917  2.6725 -1.4681  0.4025
   18CHL1  H21C 1313   3.775   0.687   4.853 -0.1922 -3.1471 -3.0299
   18CHL1   C22 1314   3.885   0.435   4.813 -0.1587  0.7584  0.1683
   18CHL1  H22A 1315   3.878   0.332   4.855  2.0043  0.3172 -0.5234
   18CHL1  H22B 1316   3.783   0.442   4.769  0.2882  1.1973 -0.7823
   18CHL1   C23 1317   3.986   0.419   4.698 -0.0308  0.7387  0.3873
   18CHL1  H23A 1318   3.966   0.512   4.639  0.3291  2.5731  3.0708
   18CHL1  H23B 1319   4.087   0.425   4.743  0.2170  0.2229 -0.0963
   18CHL1   C24 1320   3.971   0.292   4.619  0.7443 -0.4604  0.2720
   18CHL1  H24A 1321   4.043   0.298   4.535  1.1441 -0.3265  0.6239
   18CHL1  H24B 1322   3.992   0.197   4.673 -1.1089 -0.5803  0.8166
   18CHL1   C25 1323   3.833   0.270   4.548  0.0795 -0.3383 -0.2848
   18CHL1   H25 1324   3.750   0.271   4.621 -1.0262 -0.1329 -1.5264
   18CHL1   C26 1325   3.808   0.358   4.429  0.0270  0.1417  0.2031
   18CHL1  H26A 1326   3.716   0.341   4.369 -0.4574  0.0014  0.9723
   18CHL1  H26B 1327   3.819   0.462   4.466 -2.0748  0.4173  0.1433
   18CHL1  H26C 1328   3.895   0.341   4.363 -0.0699 -1.5192  0.4736
   18CHL1   C27 1329   3.826   0.132   4.484  0.1388  0.5835 -0.0039
   18CHL1  H27A 1330   3.908   0.118   4.411 -1.6439 -2.0591 -1.5908
   18CHL1  H27B 1331   3.841   0.049   4.557  0.4600 -0.4137 -1.1853
   18CHL1  H27C 1332   3.735   0.115   4.423 -0.2154 -0.0875  0.6943
   19CHL1    C3 1333   2.342   1.025   5.905 -0.2691 -0.2105  0.3344
   19CHL1    H3 1334   2.284   0.942   5.858 -0.8487  1.0091 -1.1202
   19CHL1    O3 1335   2.329   1.028   6.046 -0.1656 -0.5164  0.0340
   19CHL1   H3' 1336   2.379   0.958   6.088  0.1842  0.1209  0.6828
   19CHL1    C4 1337   2.489   1.008   5.853  0.0532  0.7002  0.3852
   19CHL1   H4A 1338   2.561   1.080   5.899  1.8308  0.5862 -2.1440
   19CHL1   H4B 1339   2.508   0.906   5.892 -1.3609 -0.0296 -0.8069
   19CHL1    C5 1340   2.497   1.015   5.701 -0.1140 -0.4496  0.9989
   19CHL1    C6 1341   2.561   0.921   5.631  0.3088  1.0976  0.7574
   19CHL1    H6 1342   2.616   0.836   5.673 -0.1531 -0.1058 -1.0203
   19CHL1    C7 1343   2.582   0.927   5.483 -0.3712 -0.1234 -0.6505
   19CHL1   H7A 1344   2.682   0.896   5.447  0.1026  0.7919 -0.1374
   19CHL1   H7B 1345   2.519   0.846   5.440  0.3114 -1.0788  0.1355
   19CHL1    C8 1346   2.545   1.054   5.417 -0.2996  0.3922  0.3419
   19CHL1    H8 1347   2.630   1.125   5.421  0.1343  0.0133 -1.6489
   19CHL1   C14 1348   2.513   1.032   5.269  0.6022  0.2476  1.0006
   19CHL1   H14 1349   2.414   0.982   5.276  0.6712 -0.0649 -0.1393
   19CHL1   C15 1350   2.609   0.945   5.188  0.2862 -0.0117  0.0446
   19CHL1  H15A 1351   2.709   0.985   5.217 -0.1639 -0.2424  1.9591
   19CHL1  H15B 1352   2.595   0.837   5.207 -0.9894 -0.0305 -0.9397
   19CHL1   C16 1353   2.587   0.984   5.048 -0.4126 -0.4129 -0.1675
   19CHL1  H16A 1354   2.687   1.007   5.004  0.3978 -4.2153 -0.4678
   19CHL1  H16B 1355   2.558   0.897   4.986  1.3329 -1.1180 -0.0123
   19CHL1   C17 1356   2.482   1.099   5.048  0.3158  0.4741  0.0727
   19CHL1   H17 1357   2.383   1.050   5.046  1.0902 -1.0619 -1.9816
   19CHL1   C13 1358   2.484   1.164   5.191 -0.3448 -0.7621 -0.4356
   19CHL1   C18 1359   2.600   1.267   5.204  0.0479 -0.2718 -0.0186
   19CHL1  H18A 1360   2.635   1.283   5.308  2.0993 -0.7694 -0.6195
   19CHL1  H18B 1361   2.689   1.245   5.141 -2.0135  1.0035 -3.5304
   19CHL1  H18C 1362   2.573   1.368   5.166 -2.5651 -0.1317  1.9826
   19CHL1   C12 1363   2.357   1.218   5.247  0.2330  0.4247 -0.0758
   19CHL1  H12A 1364   2.333   1.310   5.189 -0.1598 -0.1734 -0.8642
   19CHL1  H12B 1365   2.270   1.159   5.210  0.0727  0.9346 -0.5271
   19CHL1   C11 1366   2.363   1.235   5.395  0.2254  0.8157  0.3734
   19CHL1  H11A 1367   2.415   1.330   5.423 -0.8069  1.2691  0.7953
   19CHL1  H11B 1368   2.254   1.247   5.414  0.1077  1.8492 -0.8988
   19CHL1    C9 1369   2.421   1.116   5.486  0.1571 -0.2099  0.2858
   19CHL1    H9 1370   2.346   1.039   5.458 -0.1136  0.9401 -2.3449
   19CHL1   C10 1371   2.430   1.132   5.634 -0.8949 -0.3387  0.1452
   19CHL1   C19 1372   2.508   1.264   5.665 -0.2800  0.8272  0.1537
   19CHL1  H19A 1373   2.597   1.267   5.598 -1.6727 -1.7710 -1.8561
   19CHL1  H19B 1374   2.447   1.356   5.650 -0.3346  0.8687  0.6275
   19CHL1  H19C 1375   2.543   1.266   5.770 -0.4706 -4.5519  0.4487
   19CHL1    C1 1376   2.290   1.153   5.697  0.1192 -0.3566  0.0430
   19CHL1   H1A 1377   2.246   1.246   5.657  2.0108  0.8851  0.7645
   19CHL1   H1B 1378   2.230   1.069   5.656  1.1298 -1.5574  0.9411
   19CHL1    C2 1379   2.280   1.148   5.853  0.6783  0.4132 -0.3375
   19CHL1   H2A 1380   2.173   1.159   5.880  1.0010 -2.1264  2.1795
   19CHL1   H2B 1381   2.344   1.230   5.891  1.8570 -0.1989 -0.9624
   19CHL1   C20 1382   2.501   1.192   4.925 -1.0254 -0.0256  0.1307
   19CHL1   H20 1383   2.593   1.254   4.927  0.7197 -2.4437 -2.3241
   19CHL1   C21 1384   2.393   1.298   4.935 -0.3216  0.4388  0.1069
   19CHL1  H21A 1385   2.302   1.251   4.977 -0.8329  1.0538 -0.2955
   19CHL1  H21B 1386   2.385   1.350   4.837  0.7157 -1.0016 -0.7625
   19CHL1  H21C 1387   2.425   1.368   5.015  0.0526 -0.9040  1.1560
   19CHL1   C22 1388   2.504   1.115   4.791 -0.1781 -0.2841  0.3246
   19CHL1  H22A 1389   2.586   1.039   4.796 -0.1279 -0.3952 -1.8919
   19CHL1  H22B 1390   2.412   1.054   4.784 -0.5168  0.3973 -1.4826
   19CHL1   C23 1391   2.518   1.202   4.666 -0.4075 -0.0999  0.5138
   19CHL1  H23A 1392   2.431   1.268   4.648 -0.4934 -0.3042  0.1667
   19CHL1  H23B 1393   2.605   1.267   4.689 -0.2012 -0.5622  1.0470
   19CHL1   C24 1394   2.566   1.119   4.544  0.5025 -0.8910 -0.0862
   19CHL1  H24A 1395   2.665   1.078   4.575  1.2016 -0.3108 -1.5023
   19CHL1  H24B 1396   2.496   1.035   4.522 -0.5045 -0.2300  0.5839
   19CHL1   C25 1397   2.600   1.196   4.411 -0.4773 -0.5046 -0.0661
   19CHL1   H25 1398   2.510   1.250   4.376 -0.4873 -0.9364 -0.7239
   19CHL1   C26 1399   2.706   1.304   4.440 -0.3180 -0.3624  0.1790
   19CHL1  H26A 1400   2.743   1.330   4.338 -0.5394 -0.8651 -0.0364
   19CHL1  H26B 1401   2.670   1.391   4.498  0.8630  1.2227 -1.3949
   19CHL1  H26C 1402   2.787   1.259   4.500  1.3229  2.3945  0.1085
   19CHL1   C27 1403   2.654   1.086   4.316 -0.5209 -0.1944  0.2534
   19CHL1  H27A 1404   2.733   1.030   4.370 -1.1383 -0.2599  1.1040
   19CHL1  H27B 1405   2.576   1.013   4.283  0.9970 -1.0443 -1.5563
   19CHL1  H27C 1406   2.695   1.138   4.227  0.3860 -0.6197  0.4147
   20CHL1    C3 1407   2.129   0.640   5.927  0.5225 -0.0495 -0.4767
   20CHL1    H3 1408   2.199   0.725   5.939  0.1116  0.6161 -2.6183
   20CHL1    O3 1409   2.097   0.594   6.057 -0.4576 -0.5822 -0.5126
   20CHL1   H3' 1410   2.006   0.561   6.056 -0.4252 -0.6946 -0.0843
   20CHL1    C4 1411   2.000   0.682   5.850 -0.2487  0.1339 -0.5866
   20CHL1   H4A 1412   1.915   0.611   5.849  0.3917 -0.6513 -2.2944
   20CHL1   H4B 1413   1.967   0.775   5.900  0.1665 -0.5419  0.9549
   20CHL1    C5 1414   2.027   0.706   5.700 -1.1064  0.3791  0.5036
   20CHL1    C6 1415   1.984   0.816   5.635 -0.7701  0.1842  0.3187
   20CHL1    H6 1416   1.915   0.880   5.690  1.0159  2.2982  0.1593
   20CHL1    C7 1417   2.015   0.855   5.490 -0.6886  0.2003  0.8054
   20CHL1   H7A 1418   1.923   0.890   5.439 -0.5707 -1.4268 -0.5362
   20CHL1   H7B 1419   2.087   0.940   5.491 -1.6138  1.0068  0.6699
   20CHL1    C8 1420   2.076   0.739   5.413 -0.0256 -0.6758  0.2270
   20CHL1    H8 1421   2.002   0.658   5.396  0.5768 -0.8128 -1.8800
   20CHL1   C14 1422   2.147   0.787   5.290  0.2993 -0.0828 -0.1315
   20CHL1   H14 1423   2.225   0.855   5.330  0.0838  1.2464 -1.9339
   20CHL1   C15 1424   2.063   0.871   5.189  0.2602  0.2906 -0.6557
   20CHL1  H15A 1425   1.961   0.829   5.176  0.3568  0.1349 -0.9150
   20CHL1  H15B 1426   2.049   0.978   5.217  0.2008  0.4895 -1.4531
   20CHL1   C16 1427   2.145   0.876   5.066  0.9749  0.1945  0.3088
   20CHL1  H16A 1428   2.088   0.859   4.973  0.2103 -1.7024  1.0884
   20CHL1  H16B 1429   2.198   0.974   5.061  1.5175 -0.2204 -3.0647
   20CHL1   C17 1430   2.253   0.761   5.077 -0.5388  0.5296 -0.1250
   20CHL1   H17 1431   2.337   0.822   5.116 -1.1670  1.2392  0.1299
   20CHL1   C13 1432   2.216   0.683   5.201 -0.4714  0.8194 -0.6179
   20CHL1   C18 1433   2.122   0.570   5.153 -0.5625 -0.2128 -0.2213
   20CHL1  H18A 1434   2.173   0.477   5.119 -1.2676 -0.2603 -1.1684
   20CHL1  H18B 1435   2.050   0.542   5.233  0.2012  2.5946  1.5295
   20CHL1  H18C 1436   2.055   0.606   5.071 -1.8430 -0.7813  0.5569
   20CHL1   C12 1437   2.328   0.616   5.284 -0.0707 -0.2734 -0.6291
   20CHL1  H12A 1438   2.388   0.534   5.241  0.1095 -0.7250  0.4632
   20CHL1  H12B 1439   2.399   0.700   5.298  0.7721 -0.9519 -0.8596
   20CHL1   C11 1440   2.278   0.574   5.421 -0.0256  0.1134 -0.3190
   20CHL1  H11A 1441   2.220   0.481   5.406 -1.1322  0.2059  3.0669
   20CHL1  H11B 1442   2.364   0.538   5.481 -0.2218  1.2524  0.6742
   20CHL1    C9 1443   2.188   0.675   5.501 -0.1669 -0.2224  0.3202
   20CHL1    H9 1444   2.257   0.758   5.529 -0.2039  0.4028 -1.4124
   20CHL1   C10 1445   2.127   0.614   5.630  0.0862  0.5260  0.2115
   20CHL1   C19 1446   2.039   0.487   5.602  0.0409 -0.0211  0.2287
   20CHL1  H19A 1447   2.094   0.403   5.554 -0.6026  0.7460 -1.9198
   20CHL1  H19B 1448   1.994   0.457   5.698 -0.9297 -2.0964 -0.8394
   20CHL1  H19C 1449   1.965   0.525   5.528 -0.2015 -2.7862 -1.0244
   20CHL1    C1 1450   2.238   0.565   5.721 -0.5334  0.1414  0.5749
   20CHL1   H1A 1451   2.286   0.475   5.676  0.3284 -0.0578  1.8663
   20CHL1   H1B 1452   2.323   0.634   5.737 -0.5039 -0.2543  2.1470
   20CHL1    C2 1453   2.193   0.520   5.856  0.2160  0.0208 -0.2821
   20CHL1   H2A 1454   2.283   0.485   5.910  0.9992  0.2670 -1.4176
   20CHL1   H2B 1455   2.121   0.436   5.863 -0.0570  0.3094  0.5204
   20CHL1   C20 1456   2.296   0.687   4.943  0.5754 -0.0637 -1.4281
   20CHL1   H20 1457   2.221   0.608   4.918 -0.7430  0.7859 -0.2220
   20CHL1   C21 1458   2.433   0.612   4.967  0.3019 -0.9376 -0.1191
   20CHL1  H21A 1459   2.460   0.553   4.877  1.0976 -2.2838  0.9846
   20CHL1  H21B 1460   2.416   0.539   5.049  1.6922 -2.0822 -0.8304
   20CHL1  H21C 1461   2.518   0.682   4.979  0.4049 -1.1479  0.3710
   20CHL1   C22 1462   2.320   0.776   4.818 -0.7726  0.0647  0.2804
   20CHL1  H22A 1463   2.235   0.848   4.814 -0.2932  0.7207  1.7554
   20CHL1  H22B 1464   2.413   0.834   4.835  0.4305 -1.2548 -1.5762
   20CHL1   C23 1465   2.329   0.698   4.690  0.0684 -0.2794  0.4507
   20CHL1  H23A 1466   2.430   0.654   4.680  0.7291  1.3535 -0.1285
   20CHL1  H23B 1467   2.256   0.614   4.691 -1.9656  1.4540  0.1778
   20CHL1   C24 1468   2.312   0.788   4.564  0.4696 -0.1078  0.7142
   20CHL1  H24A 1469   2.206   0.820   4.566  0.5011 -0.0380  1.4815
   20CHL1  H24B 1470   2.375   0.877   4.586 -0.9224  0.9043  0.6480
   20CHL1   C25 1471   2.356   0.723   4.427 -0.2101 -0.4249 -0.6140
   20CHL1   H25 1472   2.466   0.709   4.431 -0.0496  0.7076 -0.7318
   20CHL1   C26 1473   2.274   0.594   4.395  0.2777 -0.5304 -0.3169
   20CHL1  H26A 1474   2.276   0.525   4.482  0.2476 -1.2394 -0.8722
   20CHL1  H26B 1475   2.169   0.615   4.366  0.7026 -1.7824 -2.9619
   20CHL1  H26C 1476   2.326   0.553   4.306  1.0029  0.5590 -0.4089
   20CHL1   C27 1477   2.326   0.829   4.317 -0.1975  0.2526 -0.1528
   20CHL1  H27A 1478   2.364   0.789   4.221 -2.3565  2.0978 -1.8318
   20CHL1  H27B 1479   2.217   0.840   4.299 -0.7541 -1.5026  1.8644
   20CHL1  H27C 1480   2.389   0.920   4.328  1.3461 -0.7704 -0.3758
   21CHL1    C3 1481   6.927   2.546   5.888  0.4906  0.0972 -0.1885
   21CHL1    H3 1482   6.865   2.454   5.886 -0.3933  0.6990 -1.7445
   21CHL1    O3 1483   6.930   2.597   6.024  0.0964  0.3106 -0.3244
   21CHL1   H3' 1484   6.946   2.516   6.073  0.3665  1.1291  0.9633
   21CHL1    C4 1485   7.067   2.514   5.848 -0.3414  0.0572  0.1854
   21CHL1   H4A 1486   7.124   2.605   5.876  0.6794 -0.0880 -1.3916
   21CHL1   H4B 1487   7.107   2.437   5.918 -0.7310  1.6684  2.2445
   21CHL1    C5 1488   7.064   2.476   5.698 -0.8952 -0.0668  0.2539
   21CHL1    C6 1489   7.110   2.356   5.670 -0.1960 -0.3220  0.0856
   21CHL1    H6 1490   7.167   2.297   5.743  0.8792  1.4839  0.7677
   21CHL1    C7 1491   7.110   2.298   5.532  0.1740  0.6393 -0.0518
   21CHL1   H7A 1492   7.210   2.249   5.529 -0.5278 -0.8339  0.3975
   21CHL1   H7B 1493   7.035   2.217   5.527 -2.9039  3.4468 -1.2304
   21CHL1    C8 1494   7.094   2.410   5.430  0.3232 -0.4414 -0.2827
   21CHL1    H8 1495   7.187   2.468   5.441  0.2809 -0.7348  1.9079
   21CHL1   C14 1496   7.088   2.356   5.290 -0.4472 -0.1051 -0.6498
   21CHL1   H14 1497   7.011   2.277   5.285  0.2519 -1.0467  2.1713
   21CHL1   C15 1498   7.215   2.287   5.236 -0.5743  0.6904  0.1170
   21CHL1  H15A 1499   7.311   2.337   5.256  0.8616 -1.8079 -0.3454
   21CHL1  H15B 1500   7.224   2.183   5.273  1.8493  1.4912  1.8649
   21CHL1   C16 1501   7.186   2.278   5.090  0.3517 -0.9178  0.1173
   21CHL1  H16A 1502   7.272   2.315   5.030 -0.1983  1.1368  0.5501
   21CHL1  H16B 1503   7.172   2.174   5.053 -0.8556  0.5095 -3.7000
   21CHL1   C17 1504   7.049   2.355   5.058  0.0962 -0.5292 -0.4148
   21CHL1   H17 1505   6.962   2.287   5.063 -2.1487  2.1724 -1.5216
   21CHL1   C13 1506   7.030   2.445   5.182 -0.3474 -0.8020  0.0528
   21CHL1   C18 1507   7.115   2.572   5.162 -0.3766  0.8204 -0.2555
   21CHL1  H18A 1508   7.076   2.646   5.089  0.8450  1.1760 -0.5646
   21CHL1  H18B 1509   7.112   2.628   5.258 -0.4814  1.4464 -0.6200
   21CHL1  H18C 1510   7.216   2.536   5.132 -0.6792  0.8708 -1.3610
   21CHL1   C12 1511   6.885   2.484   5.221 -0.3126  0.6740  0.1241
   21CHL1  H12A 1512   6.836   2.557   5.154 -1.3727  1.8235  2.1041
   21CHL1  H12B 1513   6.836   2.385   5.229  0.3028  0.4367  1.1085
   21CHL1   C11 1514   6.886   2.561   5.358  0.9580  0.0419  0.1744
   21CHL1  H11A 1515   6.924   2.665   5.343  0.3312  0.2289 -0.0945
   21CHL1  H11B 1516   6.783   2.568   5.399  1.4411  3.7364  0.9483
   21CHL1    C9 1517   6.971   2.489   5.466 -0.0014 -0.2073 -0.0472
   21CHL1    H9 1518   6.895   2.413   5.495 -0.4259 -0.4131 -1.6206
   21CHL1   C10 1519   6.984   2.561   5.601  0.4613  0.1395 -0.1435
   21CHL1   C19 1520   7.074   2.684   5.564 -0.6640  0.0643  0.0725
   21CHL1  H19A 1521   7.163   2.656   5.504 -1.1412  0.0468 -0.6311
   21CHL1  H19B 1522   7.013   2.750   5.499  0.4692  1.0420 -0.0194
   21CHL1  H19C 1523   7.081   2.759   5.646  1.9610  1.6370 -1.5026
   21CHL1    C1 1524   6.849   2.611   5.660  0.2213 -0.1333 -0.0873
   21CHL1   H1A 1525   6.812   2.698   5.602 -0.9004  0.2308  1.1642
   21CHL1   H1B 1526   6.777   2.528   5.645 -0.9292  0.9962 -0.9141
   21CHL1    C2 1527   6.861   2.653   5.806  0.5784  0.1193  0.3383
   21CHL1   H2A 1528   6.762   2.676   5.851 -0.5336 -2.9766 -0.4008
   21CHL1   H2B 1529   6.917   2.748   5.814  0.1170  0.5631 -1.4427
   21CHL1   C20 1530   7.044   2.422   4.916 -0.6389 -0.2102 -1.1263
   21CHL1   H20 1531   7.140   2.477   4.907 -0.2643 -0.6572 -0.0238
   21CHL1   C21 1532   6.919   2.510   4.894  0.1856 -0.1443  0.3631
   21CHL1  H21A 1533   6.831   2.459   4.937  0.3600 -0.4318  0.3832
   21CHL1  H21B 1534   6.908   2.537   4.787 -0.7184  0.8590  0.7006
   21CHL1  H21C 1535   6.938   2.607   4.944 -0.7364  1.3030 -2.0151
   21CHL1   C22 1536   7.036   2.315   4.806  0.0446  0.0295 -0.2017
   21CHL1  H22A 1537   7.084   2.227   4.853 -2.1895 -1.0948 -0.0213
   21CHL1  H22B 1538   6.932   2.280   4.790 -0.2502 -0.8459  3.3345
   21CHL1   C23 1539   7.099   2.355   4.675 -0.2498  0.4730  0.3565
   21CHL1  H23A 1540   7.061   2.455   4.647 -0.4133  0.3473  0.1194
   21CHL1  H23B 1541   7.210   2.361   4.684 -0.1026 -2.2352  0.8742
   21CHL1   C24 1542   7.070   2.259   4.554  0.3585 -0.2296  0.3700
   21CHL1  H24A 1543   6.960   2.261   4.539  0.2119 -1.8445  1.1542
   21CHL1  H24B 1544   7.116   2.298   4.461 -2.2426  0.3651 -0.6980
   21CHL1   C25 1545   7.115   2.111   4.562  0.2462 -0.1443  0.1154
   21CHL1   H25 1546   7.046   2.060   4.632  2.2959  0.8701  2.9844
   21CHL1   C26 1547   7.108   2.043   4.427  0.2277  1.1167  0.1484
   21CHL1  H26A 1548   7.018   2.076   4.371  1.2807  0.9025 -1.7120
   21CHL1  H26B 1549   7.194   2.058   4.359 -0.9994  2.9154 -1.0708
   21CHL1  H26C 1550   7.104   1.933   4.442 -0.9725  0.9045 -1.5647
   21CHL1   C27 1551   7.259   2.088   4.624  0.2878  0.4096 -0.2432
   21CHL1  H27A 1552   7.286   1.980   4.622 -2.0120 -0.2087 -0.0401
   21CHL1  H27B 1553   7.336   2.142   4.566 -1.9004  0.8435 -2.8722
   21CHL1  H27C 1554   7.252   2.125   4.728 -0.1654  2.2064 -0.8881
   22CHL1    C3 1555   0.908   5.427   6.017 -0.1596 -0.0321  0.1205
   22CHL1    H3 1556   0.815   5.485   6.036  0.8685  0.9186  2.4983
   22CHL1    O3 1557   0.955   5.364   6.138  0.5637  0.0785 -0.0244
   22CHL1   H3' 1558   1.045   5.397   6.148  1.4900 -2.7588  1.5843
   22CHL1    C4 1559   0.861   5.311   5.920  0.2532  0.7675 -0.5661
   22CHL1   H4A 1560   0.940   5.234   5.914 -0.6691 -0.1507 -1.2000
   22CHL1   H4B 1561   0.777   5.258   5.970 -0.1076  0.8484 -1.0735
   22CHL1    C5 1562   0.814   5.361   5.789 -0.2101  0.3166 -0.7193
   22CHL1    C6 1563   0.696   5.338   5.729 -0.2658  0.0002  0.1575
   22CHL1    H6 1564   0.615   5.282   5.777 -0.9252 -0.0886 -1.0280
   22CHL1    C7 1565   0.665   5.386   5.590  0.2179  0.3028  0.4404
   22CHL1   H7A 1566   0.618   5.299   5.538  2.1725 -0.6946  0.2729
   22CHL1   H7B 1567   0.599   5.473   5.573 -2.3963 -1.7767 -0.4843
   22CHL1    C8 1568   0.791   5.419   5.504  0.1762  0.5500 -0.0274
   22CHL1    H8 1569   0.839   5.321   5.482 -1.3929  0.2561 -2.4449
   22CHL1   C14 1570   0.752   5.498   5.374  0.1548 -0.3968  0.3487
   22CHL1   H14 1571   0.699   5.585   5.417 -0.5205  0.4071 -2.0703
   22CHL1   C15 1572   0.649   5.440   5.273  0.4535  0.3350 -0.1351
   22CHL1  H15A 1573   0.662   5.335   5.242  3.1680  0.7740 -0.5873
   22CHL1  H15B 1574   0.545   5.453   5.311  0.4447 -2.4599  0.9228
   22CHL1   C16 1575   0.668   5.530   5.154  0.0200 -0.1068  0.3236
   22CHL1  H16A 1576   0.714   5.466   5.075 -1.1432  1.1692 -1.4177
   22CHL1  H16B 1577   0.580   5.554   5.091 -1.0317 -3.3017  0.4600
   22CHL1   C17 1578   0.773   5.641   5.195 -0.7735 -0.2015  0.1794
   22CHL1   H17 1579   0.726   5.728   5.245 -1.3229 -0.8720  0.8347
   22CHL1   C13 1580   0.862   5.565   5.297 -0.3549  0.1408  0.2213
   22CHL1   C18 1581   0.952   5.458   5.226 -0.0750 -0.0747 -0.0030
   22CHL1  H18A 1582   0.897   5.408   5.142 -0.2401  1.5239 -0.8661
   22CHL1  H18B 1583   1.044   5.494   5.175 -0.9164  0.0607 -1.4663
   22CHL1  H18C 1584   0.976   5.382   5.303  3.2273  0.4178 -0.4736
   22CHL1   C12 1585   0.948   5.656   5.398 -0.2061  0.0154  0.7765
   22CHL1  H12A 1586   1.021   5.719   5.343 -0.9404 -0.8331 -1.2016
   22CHL1  H12B 1587   0.870   5.723   5.439 -0.9115  0.9199 -1.9168
   22CHL1   C11 1588   1.001   5.570   5.515  0.4411  0.4987  0.2237
   22CHL1  H11A 1589   1.068   5.496   5.465 -1.4819 -1.8062  0.9792
   22CHL1  H11B 1590   1.056   5.643   5.579 -0.5320  1.4487 -0.0245
   22CHL1    C9 1591   0.883   5.507   5.592 -0.3382 -0.0602 -0.0442
   22CHL1    H9 1592   0.815   5.590   5.623  0.4623  0.1890  1.0769
   22CHL1   C10 1593   0.928   5.444   5.728 -1.3574  0.0292 -0.1288
   22CHL1   C19 1594   1.049   5.356   5.698 -0.1386  0.2348 -0.0567
   22CHL1  H19A 1595   1.034   5.300   5.603  1.5746 -1.9821  0.9507
   22CHL1  H19B 1596   1.136   5.423   5.686 -1.5823  1.9600 -1.2979
   22CHL1  H19C 1597   1.080   5.285   5.777 -0.3413 -0.2298 -0.3942
   22CHL1    C1 1598   0.979   5.555   5.825  0.4981  0.0608 -0.5493
   22CHL1   H1A 1599   1.046   5.629   5.777  1.5062  1.4602  2.9071
   22CHL1   H1B 1600   0.898   5.627   5.848  0.1804 -0.4217 -0.1272
   22CHL1    C2 1601   1.026   5.497   5.959  0.3621  0.1564 -0.1501
   22CHL1   H2A 1602   1.065   5.590   6.007 -0.9156  1.8907 -2.3491
   22CHL1   H2B 1603   1.108   5.423   5.946 -0.0936 -0.7380  1.8701
   22CHL1   C20 1604   0.840   5.686   5.063 -0.0547  0.1007  0.6378
   22CHL1   H20 1605   0.869   5.593   5.009  0.0437  0.9682 -0.8304
   22CHL1   C21 1606   0.951   5.785   5.095 -0.6034  0.6997 -0.3608
   22CHL1  H21A 1607   0.918   5.869   5.159  2.4578  0.3789  1.7622
   22CHL1  H21B 1608   0.995   5.821   4.999 -1.2697 -1.3717 -1.4754
   22CHL1  H21C 1609   1.032   5.733   5.151  1.0378  1.2196 -2.2031
   22CHL1   C22 1610   0.731   5.751   4.972 -0.0802 -0.6924  0.1489
   22CHL1  H22A 1611   0.649   5.681   4.946  0.6270 -0.5599 -2.5429
   22CHL1  H22B 1612   0.686   5.842   5.018  0.3326 -0.8284  0.8342
   22CHL1   C23 1613   0.784   5.786   4.833 -0.4841 -0.4263  0.5495
   22CHL1  H23A 1614   0.840   5.881   4.831  1.2103 -1.4292 -0.1906
   22CHL1  H23B 1615   0.859   5.710   4.803 -0.3602 -0.6309  1.3769
   22CHL1   C24 1616   0.666   5.811   4.731  0.1067 -0.0323  0.1301
   22CHL1  H24A 1617   0.603   5.720   4.736 -0.1119  0.2022  2.9307
   22CHL1  H24B 1618   0.605   5.894   4.773  1.1135  0.0030  1.5727
   22CHL1   C25 1619   0.700   5.861   4.595 -0.7143  0.2994 -0.4476
   22CHL1   H25 1620   0.767   5.784   4.550 -1.4675  0.1300 -1.3096
   22CHL1   C26 1621   0.570   5.882   4.510  0.2492  0.4057  0.3763
   22CHL1  H26A 1622   0.605   5.893   4.405 -1.6261 -3.0424 -0.6579
   22CHL1  H26B 1623   0.509   5.790   4.508  2.1104 -0.8472  0.3444
   22CHL1  H26C 1624   0.512   5.973   4.536 -1.8287 -0.0919 -2.2943
   22CHL1   C27 1625   0.771   5.992   4.600  0.1326  0.3319  0.3625
   22CHL1  H27A 1626   0.877   5.985   4.630  0.0905 -2.5055 -0.0328
   22CHL1  H27B 1627   0.756   6.042   4.502 -1.4694  0.5192  0.6833
   22CHL1  H27C 1628   0.724   6.058   4.676  0.8620  0.4453  0.7184
   23CHL1    C3 1629   0.141   2.391   5.990  0.2759 -0.6296  0.0507
   23CHL1    H3 1630   0.048   2.330   5.986  0.1045 -0.2595 -1.6099
   23CHL1    O3 1631   0.134   2.462   6.108  0.2431 -0.0401 -0.0394
   23CHL1   H3' 1632   0.218   2.509   6.107 -0.0906  0.5607 -1.0834
   23CHL1    C4 1633   0.269   2.304   5.987  0.4300 -0.7336 -0.1907
   23CHL1   H4A 1634   0.358   2.370   5.999 -0.0227  0.1094 -1.3685
   23CHL1   H4B 1635   0.265   2.249   6.083 -0.2456  2.0506  1.4135
   23CHL1    C5 1636   0.286   2.219   5.856 -0.4025  0.3797 -0.4952
   23CHL1    C6 1637   0.293   2.081   5.862 -0.0324  0.1490 -0.3223
   23CHL1    H6 1638   0.290   2.028   5.958 -0.1917 -0.1195 -0.4733
   23CHL1    C7 1639   0.297   2.007   5.733  0.3444  0.3304 -0.7193
   23CHL1   H7A 1640   0.379   1.932   5.733 -0.1286 -0.2177  1.8275
   23CHL1   H7B 1641   0.203   1.950   5.719  0.4250  0.0334 -0.0563
   23CHL1    C8 1642   0.320   2.085   5.603 -0.1570  0.1991  0.0882
   23CHL1    H8 1643   0.427   2.115   5.602 -0.2522  0.5422 -1.5536
   23CHL1   C14 1644   0.285   2.002   5.482  0.0418 -0.1275  0.0256
   23CHL1   H14 1645   0.182   1.962   5.493 -0.2583  0.3969 -0.7739
   23CHL1   C15 1646   0.373   1.870   5.465  0.0620 -0.1369 -0.4044
   23CHL1  H15A 1647   0.477   1.908   5.474 -0.4468  1.0372  0.7482
   23CHL1  H15B 1648   0.352   1.793   5.543 -2.4937  1.6339  0.7184
   23CHL1   C16 1649   0.344   1.832   5.319 -0.1861  0.2481  0.2449
   23CHL1  H16A 1650   0.438   1.789   5.277 -1.5258 -0.9786 -1.5996
   23CHL1  H16B 1651   0.291   1.734   5.316 -0.2717  0.3131 -0.3412
   23CHL1   C17 1652   0.275   1.952   5.249  0.2409  0.8986 -0.5406
   23CHL1   H17 1653   0.168   1.922   5.256  1.2385 -2.1922  2.8309
   23CHL1   C13 1654   0.291   2.070   5.342  0.2968 -0.1220  0.2580
   23CHL1   C18 1655   0.433   2.122   5.314 -0.3177  0.6287 -0.4570
   23CHL1  H18A 1656   0.448   2.172   5.216  0.4560  2.4445  0.5530
   23CHL1  H18B 1657   0.448   2.201   5.391  0.1711  2.4008 -2.3214
   23CHL1  H18C 1658   0.507   2.042   5.336  0.7415  1.9837  1.0698
   23CHL1   C12 1659   0.179   2.177   5.353  0.5361 -0.4840  0.4699
   23CHL1  H12A 1660   0.171   2.221   5.251 -1.3371 -0.8147  0.4432
   23CHL1  H12B 1661   0.089   2.116   5.376  1.1148 -0.7514  2.0891
   23CHL1   C11 1662   0.209   2.275   5.465  0.5407 -0.4690  0.3610
   23CHL1  H11A 1663   0.296   2.342   5.445  0.1905  0.0275  0.4743
   23CHL1  H11B 1664   0.120   2.340   5.481  0.2201 -1.5380  3.0207
   23CHL1    C9 1665   0.232   2.208   5.601  0.5570 -0.2980  0.2053
   23CHL1    H9 1666   0.129   2.168   5.617 -0.8006  2.5858 -0.9633
   23CHL1   C10 1667   0.261   2.308   5.723 -0.7356  0.2173  0.7531
   23CHL1   C19 1668   0.400   2.379   5.696 -0.0047  0.5453  0.0660
   23CHL1  H19A 1669   0.487   2.311   5.713 -0.3089  0.1892  0.1837
   23CHL1  H19B 1670   0.403   2.417   5.591 -1.3882  1.7864  0.4562
   23CHL1  H19C 1671   0.413   2.466   5.764  1.5775 -0.3668  0.9641
   23CHL1    C1 1672   0.146   2.411   5.742  0.0032  0.1451  0.0436
   23CHL1   H1A 1673   0.136   2.484   5.659  1.5966  0.0828 -0.2235
   23CHL1   H1B 1674   0.056   2.346   5.737 -0.4271  0.5987  1.6014
   23CHL1    C2 1675   0.149   2.491   5.878 -0.0221 -0.6708  0.3754
   23CHL1   H2A 1676   0.063   2.560   5.877 -0.4024 -1.1546 -0.1443
   23CHL1   H2B 1677   0.245   2.547   5.880  0.8541 -2.0689 -1.6078
   23CHL1   C20 1678   0.308   1.952   5.097 -0.3661 -0.3491 -0.0847
   23CHL1   H20 1679   0.414   1.981   5.079 -0.5893  0.6733  0.1893
   23CHL1   C21 1680   0.228   2.066   5.018 -0.4736  0.5579  0.5018
   23CHL1  H21A 1681   0.118   2.047   5.014 -0.2823 -0.2775 -1.2246
   23CHL1  H21B 1682   0.267   2.058   4.914 -2.4100 -0.5797 -0.1715
   23CHL1  H21C 1683   0.229   2.170   5.058 -0.2582 -0.9090  4.4146
   23CHL1   C22 1684   0.296   1.816   5.019  0.4708  0.7293 -0.1089
   23CHL1  H22A 1685   0.236   1.747   5.083 -0.5740 -1.3312 -3.1604
   23CHL1  H22B 1686   0.236   1.822   4.926  0.7749 -1.4810 -0.4773
   23CHL1   C23 1687   0.427   1.751   4.978  0.1535 -0.0740  0.2580
   23CHL1  H23A 1688   0.489   1.806   4.904  1.8296 -3.2744 -0.8436
   23CHL1  H23B 1689   0.485   1.746   5.073 -1.1819  4.5294  1.4252
   23CHL1   C24 1690   0.417   1.609   4.909  0.1548  0.0542 -0.6802
   23CHL1  H24A 1691   0.374   1.625   4.807 -2.5272  1.7362  0.6667
   23CHL1  H24B 1692   0.515   1.564   4.883  0.5190  0.5472 -0.1681
   23CHL1   C25 1693   0.346   1.495   4.984  0.2568  0.1508  0.1232
   23CHL1   H25 1694   0.241   1.511   5.015 -0.2167 -1.4127 -0.6040
   23CHL1   C26 1695   0.355   1.362   4.908 -0.1473  0.7658  0.6117
   23CHL1  H26A 1696   0.312   1.367   4.805  1.2128  1.4368  0.0668
   23CHL1  H26B 1697   0.461   1.336   4.892 -0.0920  2.2233 -1.7997
   23CHL1  H26C 1698   0.302   1.284   4.966 -0.4757  1.5895  1.4380
   23CHL1   C27 1699   0.423   1.474   5.118 -0.0528 -0.4503  0.0307
   23CHL1  H27A 1700   0.371   1.399   5.181  0.9322  0.2253  1.6788
   23CHL1  H27B 1701   0.526   1.432   5.110 -0.2611 -1.0698  0.5098
   23CHL1  H27C 1702   0.417   1.567   5.177 -3.0071  1.6589 -3.3420
   24CHL1    C3 1703   1.397   7.143   6.003  0.1097  0.3620 -0.3916
   24CHL1    H3 1704   1.335   7.227   5.965 -0.1524  0.3160 -0.0725
   24CHL1    O3 1705   1.377   7.124   6.143  0.4418  0.0088 -0.4292
   24CHL1   H3' 1706   1.465   7.109   6.178 -0.4672 -0.6489  1.6353
   24CHL1    C4 1707   1.355   7.012   5.930  0.0569 -0.0659  0.0649
   24CHL1   H4A 1708   1.421   6.936   5.978  0.7708  1.9562  2.4260
   24CHL1   H4B 1709   1.248   6.990   5.949  0.0254  0.4627  0.5030
   24CHL1    C5 1710   1.380   7.021   5.775 -0.2921 -0.5650  0.4312
   24CHL1    C6 1711   1.293   6.985   5.684 -0.1520 -0.5120  0.7611
   24CHL1    H6 1712   1.190   6.956   5.709  0.6802 -2.0463  2.5036
   24CHL1    C7 1713   1.314   6.978   5.537 -0.0090 -0.1031  0.5359
   24CHL1   H7A 1714   1.292   6.877   5.496 -1.1002  0.2226  0.2792
   24CHL1   H7B 1715   1.237   7.038   5.483  0.2200 -1.1275 -0.9824
   24CHL1    C8 1716   1.463   6.999   5.498  0.5541 -0.3959 -0.3816
   24CHL1    H8 1717   1.527   6.911   5.521  1.6803 -0.2181 -2.7094
   24CHL1   C14 1718   1.481   7.034   5.353  0.4012  0.9731 -0.5600
   24CHL1   H14 1719   1.428   7.131   5.345 -0.6132  0.6525  1.6388
   24CHL1   C15 1720   1.415   6.948   5.243 -0.6385 -0.2891 -0.3219
   24CHL1  H15A 1721   1.424   6.842   5.275 -1.3950 -0.6210 -1.1867
   24CHL1  H15B 1722   1.307   6.973   5.237 -0.2037  1.7363  0.0963
   24CHL1   C16 1723   1.498   6.976   5.116  0.2756 -0.7692  0.0032
   24CHL1  H16A 1724   1.552   6.883   5.088 -2.8279 -2.9951  1.2191
   24CHL1  H16B 1725   1.435   7.024   5.037 -0.6698 -0.0689  1.1686
   24CHL1   C17 1726   1.600   7.084   5.158 -0.3869  0.6930  0.3018
   24CHL1   H17 1727   1.546   7.181   5.155 -0.6880  0.5052 -0.3902
   24CHL1   C13 1728   1.629   7.060   5.306  0.1945  0.0953 -0.2907
   24CHL1   C18 1729   1.721   6.931   5.313 -0.1643  1.1368  0.2880
   24CHL1  H18A 1730   1.817   6.962   5.265  1.9311 -2.1748  2.1537
   24CHL1  H18B 1731   1.743   6.904   5.418 -0.9593 -1.5143 -0.1861
   24CHL1  H18C 1732   1.676   6.842   5.264 -1.3342  1.1207  1.3705
   24CHL1   C12 1733   1.684   7.176   5.388 -0.7180 -0.6171  0.2364
   24CHL1  H12A 1734   1.792   7.193   5.366 -0.7208 -0.2272  0.5238
   24CHL1  H12B 1735   1.633   7.273   5.370 -5.6185 -2.7596  1.6447
   24CHL1   C11 1736   1.671   7.154   5.541 -0.0490 -0.3294  0.1635
   24CHL1  H11A 1737   1.746   7.080   5.575 -0.6588 -0.8407  0.4125
   24CHL1  H11B 1738   1.691   7.253   5.588 -0.5933 -0.2511  0.2405
   24CHL1    C9 1739   1.523   7.106   5.589  0.0395 -0.5861 -0.5592
   24CHL1    H9 1740   1.456   7.192   5.569 -0.2399 -0.4380  0.9941
   24CHL1   C10 1741   1.522   7.073   5.738 -0.5501  0.0921 -0.4457
   24CHL1   C19 1742   1.623   6.956   5.773 -0.5618  0.0074 -0.2769
   24CHL1  H19A 1743   1.730   6.979   5.756  0.0058  0.5433  3.6397
   24CHL1  H19B 1744   1.627   6.935   5.882 -5.3135  1.6691  0.3580
   24CHL1  H19C 1745   1.597   6.862   5.719 -0.3705 -1.2830  1.8326
   24CHL1    C1 1746   1.562   7.198   5.823 -0.5012  0.0314  1.0485
   24CHL1   H1A 1747   1.668   7.228   5.808 -0.3206 -0.5214  1.1942
   24CHL1   H1B 1748   1.489   7.278   5.798 -1.3225 -1.6954 -2.2981
   24CHL1    C2 1749   1.540   7.177   5.973  0.3265 -0.0149  0.0399
   24CHL1   H2A 1750   1.576   7.263   6.034 -2.9780 -0.7693  3.2715
   24CHL1   H2B 1751   1.600   7.092   6.013 -1.5148 -1.8165 -0.9770
   24CHL1   C20 1752   1.717   7.093   5.060 -0.3346  0.6440 -0.2748
   24CHL1   H20 1753   1.784   7.004   5.060 -2.9680 -1.3970  0.7624
   24CHL1   C21 1754   1.804   7.220   5.098 -0.6544 -0.0310  0.1612
   24CHL1  H21A 1755   1.874   7.245   5.015 -1.0678 -1.5383 -0.6601
   24CHL1  H21B 1756   1.859   7.201   5.192  2.3236  1.8423 -1.1266
   24CHL1  H21C 1757   1.735   7.306   5.113 -1.7832 -1.1767  1.6960
   24CHL1   C22 1758   1.669   7.100   4.914  0.4139  0.4638 -0.0034
   24CHL1  H22A 1759   1.605   7.012   4.896  0.7944  0.2787 -0.4581
   24CHL1  H22B 1760   1.591   7.178   4.906  0.1320  0.4084  2.0642
   24CHL1   C23 1761   1.788   7.096   4.814  0.4502 -0.5159  0.3512
   24CHL1  H23A 1762   1.859   7.181   4.816 -0.0177 -0.1336  1.7259
   24CHL1  H23B 1763   1.854   7.007   4.822  1.9440  0.4384 -1.0839
   24CHL1   C24 1764   1.731   7.078   4.666  0.3592 -0.2966 -0.1062
   24CHL1  H24A 1765   1.657   6.997   4.679 -0.0623  0.3246  1.5424
   24CHL1  H24B 1766   1.664   7.165   4.645 -1.1183 -1.3746  0.0852
   24CHL1   C25 1767   1.836   7.047   4.568 -0.4660  0.4632 -0.3419
   24CHL1   H25 1768   1.895   6.958   4.599 -0.8844  0.2653 -0.1057
   24CHL1   C26 1769   1.771   7.010   4.431 -0.3589 -0.1043 -0.6566
   24CHL1  H26A 1770   1.694   6.931   4.442 -1.7987  1.3936  0.4048
   24CHL1  H26B 1771   1.726   7.097   4.379 -1.2375 -1.1542 -1.6710
   24CHL1  H26C 1772   1.846   6.976   4.356 -0.4737  1.4453 -1.4880
   24CHL1   C27 1773   1.931   7.166   4.552  0.3283  1.1248  0.0031
   24CHL1  H27A 1774   1.871   7.245   4.503  0.4229  1.6998  0.8156
   24CHL1  H27B 1775   1.979   7.191   4.649  0.2498  0.5798  0.1884
   24CHL1  H27C 1776   2.013   7.136   4.483 -0.0286 -0.4081  0.2158
   25CHL1    C3 1777   7.256   1.778   6.058  0.6453 -0.4209  0.1137
   25CHL1    H3 1778   7.267   1.676   6.101  0.2500 -0.4619  0.1280
   25CHL1    O3 1779   7.257   1.879   6.161  0.2411 -0.2647 -0.0604
   25CHL1   H3' 1780   7.193   1.847   6.226 -0.8234  0.4614 -0.7326
   25CHL1    C4 1781   7.378   1.803   5.963 -0.5926 -0.2449  0.1576
   25CHL1   H4A 1782   7.369   1.903   5.915 -3.3228 -1.6023 -2.3112
   25CHL1   H4B 1783   7.467   1.803   6.030  0.4843  0.2230 -1.2529
   25CHL1    C5 1784   7.378   1.712   5.841  0.2027  0.9990 -0.4448
   25CHL1    C6 1785   7.476   1.629   5.817  0.4671  0.2687 -0.2747
   25CHL1    H6 1786   7.560   1.633   5.887  2.0907 -0.6417 -2.1128
   25CHL1    C7 1787   7.484   1.543   5.694  0.3176 -0.5726 -0.5198
   25CHL1   H7A 1788   7.588   1.547   5.654  0.7031 -1.3654  0.3811
   25CHL1   H7B 1789   7.466   1.437   5.724  1.6518 -0.1444  1.9408
   25CHL1    C8 1790   7.378   1.587   5.583 -0.4745 -0.0831  0.1853
   25CHL1    H8 1791   7.416   1.683   5.542  0.2761  0.1214  1.3352
   25CHL1   C14 1792   7.374   1.479   5.473 -0.1248 -0.2026  0.5915
   25CHL1   H14 1793   7.336   1.386   5.519 -1.1439 -0.1260 -0.0669
   25CHL1   C15 1794   7.503   1.435   5.406 -0.9249  0.2089 -0.1388
   25CHL1  H15A 1795   7.549   1.534   5.388 -0.3689 -0.2794 -1.4609
   25CHL1  H15B 1796   7.573   1.378   5.471  1.0571  1.3101 -1.2644
   25CHL1   C16 1797   7.458   1.364   5.284 -0.0422  0.5202 -0.0732
   25CHL1  H16A 1798   7.507   1.397   5.190  0.5811 -0.3716 -0.0703
   25CHL1  H16B 1799   7.476   1.255   5.298 -2.3192  0.1589  0.1875
   25CHL1   C17 1800   7.301   1.379   5.275  0.3362  0.1454  0.1758
   25CHL1   H17 1801   7.253   1.301   5.337  1.9221  1.2714  2.9150
   25CHL1   C13 1802   7.276   1.502   5.358  0.6507  0.2978 -0.1474
   25CHL1   C18 1803   7.309   1.632   5.277  0.8812  0.0233 -0.4970
   25CHL1  H18A 1804   7.333   1.711   5.351  0.3980 -0.4098  0.1294
   25CHL1  H18B 1805   7.409   1.629   5.230  0.9769 -1.6267 -0.2047
   25CHL1  H18C 1806   7.226   1.659   5.209 -0.3661  0.5280  1.1809
   25CHL1   C12 1807   7.134   1.517   5.422  0.9944 -0.0311  0.4961
   25CHL1  H12A 1808   7.053   1.537   5.349  0.0480 -0.7500  1.3464
   25CHL1  H12B 1809   7.103   1.422   5.470 -4.9068  1.8499  0.7720
   25CHL1   C11 1810   7.139   1.631   5.532  0.4744  0.2333 -0.1216
   25CHL1  H11A 1811   7.163   1.726   5.480  2.9716 -0.7394 -0.8264
   25CHL1  H11B 1812   7.037   1.643   5.573  0.0473 -0.9086 -0.8203
   25CHL1    C9 1813   7.243   1.604   5.648 -0.4049  0.0466 -0.5936
   25CHL1    H9 1814   7.222   1.507   5.699  1.6136 -0.6825 -1.0736
   25CHL1   C10 1815   7.242   1.713   5.761  0.1834  0.3592  0.1435
   25CHL1   C19 1816   7.238   1.844   5.689 -0.2954  0.3686 -0.1749
   25CHL1  H19A 1817   7.258   1.934   5.749  0.0830  0.7535 -0.8692
   25CHL1  H19B 1818   7.321   1.851   5.615  0.2247  1.8098  0.5266
   25CHL1  H19C 1819   7.141   1.861   5.637 -0.3959 -0.0143 -0.1135
   25CHL1    C1 1820   7.118   1.700   5.856  0.5320  0.0489 -0.6512
   25CHL1   H1A 1821   7.025   1.726   5.800  0.2950 -2.1478 -1.3087
   25CHL1   H1B 1822   7.115   1.596   5.895 -0.3134 -0.5517 -2.2643
   25CHL1    C2 1823   7.127   1.791   5.978  0.6791  0.2953 -0.1645
   25CHL1   H2A 1824   7.042   1.769   6.047  0.2747 -1.3850 -1.1759
   25CHL1   H2B 1825   7.117   1.897   5.948 -1.3177 -0.2597 -1.5667
   25CHL1   C20 1826   7.240   1.359   5.138  0.5288 -0.3663  0.3982
   25CHL1   H20 1827   7.258   1.452   5.080  0.3276 -0.5934 -0.0240
   25CHL1   C21 1828   7.090   1.339   5.152  0.0876  0.0745 -0.2557
   25CHL1  H21A 1829   7.046   1.335   5.050  2.2499  0.4681 -1.2247
   25CHL1  H21B 1830   7.026   1.413   5.205 -2.2686 -1.9836 -0.1703
   25CHL1  H21C 1831   7.074   1.241   5.201 -2.5379  1.6581  2.2579
   25CHL1   C22 1832   7.298   1.234   5.069  0.0335 -0.4495  0.2467
   25CHL1  H22A 1833   7.407   1.222   5.086  0.1072 -0.5980 -0.3276
   25CHL1  H22B 1834   7.250   1.145   5.116 -2.7958  1.0929  0.3831
   25CHL1   C23 1835   7.285   1.233   4.912  0.8342 -0.1385 -0.5556
   25CHL1  H23A 1836   7.187   1.251   4.862  0.8813  0.9924 -0.2563
   25CHL1  H23B 1837   7.338   1.326   4.884  0.3870  0.8050  1.5931
   25CHL1   C24 1838   7.359   1.122   4.845 -0.2896 -0.0322  0.1692
   25CHL1  H24A 1839   7.469   1.132   4.862 -0.5434  4.4153 -0.3035
   25CHL1  H24B 1840   7.328   1.022   4.882  1.1039 -0.5089  0.0914
   25CHL1   C25 1841   7.346   1.124   4.690  0.8363 -0.1318 -0.0900
   25CHL1   H25 1842   7.409   1.037   4.659  3.0663  1.1678  0.6888
   25CHL1   C26 1843   7.202   1.097   4.636 -0.3640 -0.5367  0.1737
   25CHL1  H26A 1844   7.166   1.003   4.683 -1.0938 -0.6744 -0.6458
   25CHL1  H26B 1845   7.141   1.188   4.657 -0.1690 -0.4806  0.5067
   25CHL1  H26C 1846   7.197   1.087   4.526 -1.8257  3.0463 -0.1526
   25CHL1   C27 1847   7.409   1.249   4.630 -0.4400 -0.7194  0.4315
   25CHL1  H27A 1848   7.324   1.319   4.612  0.7255  0.4030 -0.7876
   25CHL1  H27B 1849   7.485   1.300   4.693  0.8979 -0.6413 -1.2364
   25CHL1  H27C 1850   7.460   1.221   4.536  0.7509 -1.2016  1.2002
   26CHL1    C3 1851   2.091   7.307   5.944 -0.2601  0.4217  0.2923
   26CHL1    H3 1852   2.176   7.236   5.951 -0.5511  0.1703  1.4187
   26CHL1    O3 1853   2.033   7.323   6.073 -0.7707  0.4143  0.2474
   26CHL1   H3' 1854   2.038   7.236   6.113 -0.5348 -0.6700 -2.0669
   26CHL1    C4 1855   2.129   7.451   5.896 -0.1403  0.0231  0.4414
   26CHL1   H4A 1856   2.029   7.500   5.896  0.5419  1.4889 -1.3495
   26CHL1   H4B 1857   2.195   7.515   5.959 -0.6365  1.8018 -0.8046
   26CHL1    C5 1858   2.184   7.450   5.752 -0.8629 -0.3565  0.2870
   26CHL1    C6 1859   2.302   7.513   5.716  0.3669 -0.0162  0.2301
   26CHL1    H6 1860   2.348   7.578   5.792 -1.6574 -0.4607  1.9026
   26CHL1    C7 1861   2.357   7.514   5.580  0.5863 -0.3731 -0.0315
   26CHL1   H7A 1862   2.394   7.614   5.551  0.5125  0.2242  1.9133
   26CHL1   H7B 1863   2.431   7.432   5.581  1.2117  0.2008  2.3144
   26CHL1    C8 1864   2.252   7.471   5.470 -0.0747 -0.2105 -1.3373
   26CHL1    H8 1865   2.178   7.553   5.459 -0.0050 -0.0685 -0.7692
   26CHL1   C14 1866   2.315   7.445   5.340  0.3934 -0.0317 -0.5284
   26CHL1   H14 1867   2.386   7.361   5.358  1.2214  1.3031  2.7079
   26CHL1   C15 1868   2.413   7.556   5.288 -0.0910  0.0337  0.3104
   26CHL1  H15A 1869   2.350   7.643   5.316 -0.1299 -0.1096  0.6751
   26CHL1  H15B 1870   2.508   7.563   5.345  2.0699 -1.4155 -3.0133
   26CHL1   C16 1871   2.421   7.523   5.134 -0.2741 -0.1964  0.7158
   26CHL1  H16A 1872   2.407   7.615   5.072 -3.9454 -1.4977 -0.5193
   26CHL1  H16B 1873   2.524   7.495   5.104 -0.3079  0.0345  0.3724
   26CHL1   C17 1874   2.321   7.410   5.103  0.1924  0.5215 -0.2399
   26CHL1   H17 1875   2.377   7.315   5.109  1.4602  1.3285  0.9571
   26CHL1   C13 1876   2.222   7.413   5.225 -0.4878 -0.4670 -0.3940
   26CHL1   C18 1877   2.119   7.524   5.198 -0.3080 -0.0219 -1.3317
   26CHL1  H18A 1878   2.051   7.481   5.121  1.8667 -0.2047 -3.1937
   26CHL1  H18B 1879   2.067   7.560   5.289 -0.0932 -0.1490 -1.1564
   26CHL1  H18C 1880   2.172   7.612   5.156  1.8380 -0.5080  0.2769
   26CHL1   C12 1881   2.151   7.280   5.265  0.3001 -0.3882  0.0148
   26CHL1  H12A 1882   2.072   7.241   5.197  0.2466  0.7986 -0.6151
   26CHL1  H12B 1883   2.230   7.202   5.264 -0.0308 -0.7140 -2.3967
   26CHL1   C11 1884   2.079   7.302   5.406 -0.0359  0.5902 -0.1818
   26CHL1  H11A 1885   1.994   7.370   5.385 -0.7309 -0.1608  0.1906
   26CHL1  H11B 1886   2.032   7.206   5.436 -0.6131  1.6784  2.4699
   26CHL1    C9 1887   2.178   7.349   5.516  0.3564  0.5598 -0.1512
   26CHL1    H9 1888   2.248   7.266   5.540 -1.4432 -0.7524  0.7040
   26CHL1   C10 1889   2.100   7.373   5.646 -0.5363  0.7644 -0.3983
   26CHL1   C19 1890   1.969   7.464   5.629 -0.1834 -0.2545  0.7844
   26CHL1  H19A 1891   1.922   7.497   5.724 -1.1398 -1.4413  0.7347
   26CHL1  H19B 1892   1.997   7.559   5.578 -1.3457 -0.1873  0.2491
   26CHL1  H19C 1893   1.890   7.415   5.567 -0.3982  0.6288  0.3556
   26CHL1    C1 1894   2.048   7.233   5.708  0.1525 -0.3143  0.9128
   26CHL1   H1A 1895   1.971   7.198   5.635 -0.3951 -1.8146  2.1730
   26CHL1   H1B 1896   2.140   7.169   5.707  1.2077  1.1810  1.3734
   26CHL1    C2 1897   1.987   7.236   5.854  0.2263 -0.3887  0.3230
   26CHL1   H2A 1898   1.965   7.135   5.892 -0.6361  0.0182  0.9278
   26CHL1   H2B 1899   1.892   7.294   5.847 -1.0069 -2.3406  0.6778
   26CHL1   C20 1900   2.273   7.417   4.957  1.4855 -1.0383 -0.1024
   26CHL1   H20 1901   2.218   7.510   4.929 -0.5011 -2.3064 -0.4710
   26CHL1   C21 1902   2.180   7.289   4.922 -0.0010 -0.3455 -0.3465
   26CHL1  H21A 1903   2.092   7.283   4.990 -0.0477  0.5169 -0.3308
   26CHL1  H21B 1904   2.247   7.201   4.933  1.3300  0.9459  2.4523
   26CHL1  H21C 1905   2.138   7.306   4.821 -1.3854 -0.9362  0.1070
   26CHL1   C22 1906   2.391   7.419   4.861  0.2702 -0.0535  0.9823
   26CHL1  H22A 1907   2.427   7.524   4.869 -0.3079  0.0354  2.5233
   26CHL1  H22B 1908   2.466   7.342   4.889 -1.1939 -2.0571 -0.4858
   26CHL1   C23 1909   2.357   7.394   4.711 -0.3228 -0.0927  0.5346
   26CHL1  H23A 1910   2.335   7.287   4.693 -1.1882  0.5135 -2.3455
   26CHL1  H23B 1911   2.269   7.457   4.684  0.8710  0.5487 -2.0574
   26CHL1   C24 1912   2.466   7.438   4.615  0.2187 -0.1941  0.1088
   26CHL1  H24A 1913   2.503   7.542   4.626  2.9022 -1.2033  1.0721
   26CHL1  H24B 1914   2.551   7.366   4.623  0.4818  0.0975 -0.0137
   26CHL1   C25 1915   2.414   7.431   4.463  0.0921  0.3396  0.0360
   26CHL1   H25 1916   2.319   7.488   4.470  0.1076  0.2882  0.6666
   26CHL1   C26 1917   2.506   7.505   4.363 -0.6540  0.3592 -0.1880
   26CHL1  H26A 1918   2.609   7.469   4.382  0.0905  3.1585  1.3653
   26CHL1  H26B 1919   2.473   7.478   4.260 -2.0084 -1.1595  0.6211
   26CHL1  H26C 1920   2.499   7.616   4.366 -0.3294  0.3668  0.1813
   26CHL1   C27 1921   2.376   7.294   4.414 -0.5207  0.1924  0.6038
   26CHL1  H27A 1922   2.480   7.254   4.408 -0.5028  0.2853  0.2770
   26CHL1  H27B 1923   2.325   7.235   4.492  2.6384  0.6585  3.1455
   26CHL1  H27C 1924   2.338   7.289   4.310  1.0419 -1.2454  0.0874
   27CHL1    C3 1925   0.950   6.547   5.945 -0.3689 -0.3420  0.1603
   27CHL1    H3 1926   1.022   6.623   5.982  1.8683 -2.7637  0.9138
   27CHL1    O3 1927   0.895   6.459   6.038  0.8705  0.0021 -0.2813
   27CHL1   H3' 1928   0.926   6.372   6.015 -1.7754 -1.3680  1.0880
   27CHL1    C4 1929   0.837   6.625   5.877 -0.1527 -0.0803 -1.1228
   27CHL1   H4A 1930   0.746   6.565   5.853  0.0402  0.1123 -2.4105
   27CHL1   H4B 1931   0.822   6.702   5.956  0.7077 -1.0966  0.0423
   27CHL1    C5 1932   0.880   6.686   5.751 -0.6912 -0.2015  0.0753
   27CHL1    C6 1933   0.863   6.816   5.736 -0.1946  0.3487  0.0691
   27CHL1    H6 1934   0.800   6.870   5.808 -0.5426 -3.5501  2.8372
   27CHL1    C7 1935   0.886   6.903   5.611 -0.1177  0.6127  0.1688
   27CHL1   H7A 1936   0.791   6.955   5.587 -0.8779  0.9134  3.5066
   27CHL1   H7B 1937   0.966   6.973   5.641 -0.1178  0.5438  0.3292
   27CHL1    C8 1938   0.918   6.802   5.492  0.3043 -0.2785 -0.3120
   27CHL1    H8 1939   0.819   6.757   5.471  0.8930 -1.3013 -0.9310
   27CHL1   C14 1940   0.958   6.876   5.367 -0.1441 -0.2060 -0.2593
   27CHL1   H14 1941   1.056   6.923   5.389  0.4796 -0.5357 -2.2269
   27CHL1   C15 1942   0.871   6.992   5.330  0.2779  0.9659  0.1868
   27CHL1  H15A 1943   0.762   6.996   5.352  0.1532  0.2034 -0.2802
   27CHL1  H15B 1944   0.908   7.089   5.370 -1.4009  1.4492  0.6428
   27CHL1   C16 1945   0.885   7.005   5.173  0.1754 -0.2747 -0.5396
   27CHL1  H16A 1946   0.792   6.955   5.139  0.3690 -0.3432 -0.9733
   27CHL1  H16B 1947   0.907   7.111   5.150 -0.2640 -0.0616  0.0251
   27CHL1   C17 1948   0.998   6.898   5.135 -0.1725 -0.0738  0.0478
   27CHL1   H17 1949   1.093   6.953   5.148 -1.1281  0.9430  3.3570
   27CHL1   C13 1950   0.987   6.786   5.244  0.1471 -0.7623  0.3440
   27CHL1   C18 1951   0.866   6.698   5.208 -0.0083 -0.0604 -0.0733
   27CHL1  H18A 1952   0.881   6.645   5.111  1.9205 -0.5053  0.4464
   27CHL1  H18B 1953   0.844   6.626   5.290  3.0421 -1.2454 -0.1981
   27CHL1  H18C 1954   0.773   6.757   5.201  0.3735  0.6870  1.0752
   27CHL1   C12 1955   1.111   6.703   5.279 -0.1948  0.0189 -0.0775
   27CHL1  H12A 1956   1.128   6.634   5.193 -0.9002  0.9271 -0.9501
   27CHL1  H12B 1957   1.189   6.772   5.317 -0.4864 -0.2390  1.0248
   27CHL1   C11 1958   1.084   6.610   5.400  0.2428 -0.3436  0.4242
   27CHL1  H11A 1959   1.017   6.526   5.373  0.6098 -0.3445 -0.4913
   27CHL1  H11B 1960   1.173   6.550   5.428 -0.1379 -1.6453 -1.0668
   27CHL1    C9 1961   1.018   6.688   5.523 -0.0777 -0.3031  0.0508
   27CHL1    H9 1962   1.104   6.738   5.573 -1.1131  1.6053 -0.0210
   27CHL1   C10 1963   0.951   6.602   5.641  0.6880 -0.1101 -0.0696
   27CHL1   C19 1964   0.850   6.506   5.578 -0.4943  0.7826 -0.7694
   27CHL1  H19A 1965   0.759   6.555   5.538 -2.5009 -0.2786  2.3096
   27CHL1  H19B 1966   0.896   6.423   5.519  2.7565 -0.0874  2.8302
   27CHL1  H19C 1967   0.810   6.446   5.663  2.0809 -1.9977 -1.4135
   27CHL1    C1 1968   1.062   6.516   5.709 -0.3812 -0.2966  0.0405
   27CHL1   H1A 1969   1.108   6.438   5.645  0.2111 -2.0166  2.4782
   27CHL1   H1B 1970   1.145   6.578   5.749 -1.5296  0.7420  0.8581
   27CHL1    C2 1971   1.012   6.448   5.842  0.6150  0.0886  0.3322
   27CHL1   H2A 1972   1.098   6.398   5.891  0.5213  0.2688  0.6748
   27CHL1   H2B 1973   0.934   6.371   5.821  1.7448 -0.8423 -0.5361
   27CHL1   C20 1974   0.985   6.850   4.985  0.1758 -0.0799 -0.4044
   27CHL1   H20 1975   0.888   6.802   4.960  1.2485 -1.3585 -2.2776
   27CHL1   C21 1976   1.102   6.763   4.930 -0.2330  0.5330 -0.4050
   27CHL1  H21A 1977   1.184   6.835   4.909 -0.9296  1.6451  0.6143
   27CHL1  H21B 1978   1.072   6.714   4.835  0.7698  1.2396 -1.0960
   27CHL1  H21C 1979   1.134   6.682   5.000 -1.0922 -0.4892 -1.1708
   27CHL1   C22 1980   0.961   6.969   4.884 -0.4023  0.8019  0.0393
   27CHL1  H22A 1981   0.871   7.032   4.902 -2.7309 -2.5786  0.5469
   27CHL1  H22B 1982   1.048   7.039   4.887  1.1697 -1.0394 -1.3876
   27CHL1   C23 1983   0.946   6.920   4.734  0.1964 -0.3955  0.0033
   27CHL1  H23A 1984   1.043   6.879   4.699  0.7744  0.1991  0.8913
   27CHL1  H23B 1985   0.871   6.838   4.730  1.1434 -1.6432  4.3077
   27CHL1   C24 1986   0.918   7.038   4.646  0.9400 -0.4103  0.1522
   27CHL1  H24A 1987   0.812   7.061   4.672  0.2703 -1.6200 -1.4038
   27CHL1  H24B 1988   0.977   7.127   4.677  3.0775 -1.0049 -2.0589
   27CHL1   C25 1989   0.921   7.014   4.488 -0.1373 -0.1867  0.2868
   27CHL1   H25 1990   0.873   7.107   4.453  2.8950  0.9847 -0.9002
   27CHL1   C26 1991   1.063   6.998   4.424  0.4062  0.3068 -0.4477
   27CHL1  H26A 1992   1.115   7.096   4.432 -0.6971  0.9977 -1.5737
   27CHL1  H26B 1993   1.123   6.919   4.474  1.2735  0.9695 -0.4240
   27CHL1  H26C 1994   1.052   6.975   4.316  1.3490  2.3891 -1.0139
   27CHL1   C27 1995   0.825   6.891   4.453  0.4668  0.5996  0.2423
   27CHL1  H27A 1996   0.864   6.801   4.505 -0.9270  1.1719  2.3486
   27CHL1  H27B 1997   0.727   6.915   4.500 -1.0189  1.9754 -3.3185
   27CHL1  H27C 1998   0.817   6.887   4.342  1.3363  1.1977  0.1470
   28CHL1    C3 1999   0.993   1.047   6.020  0.5483 -0.0793  0.5504
   28CHL1    H3 2000   0.958   0.948   5.984  1.1853 -0.6570  1.5115
   28CHL1    O3 2001   1.018   1.034   6.163  0.0409 -0.1602 -0.2882
   28CHL1   H3' 2002   1.062   1.116   6.187 -0.5324 -0.5949  2.3796
   28CHL1    C4 2003   1.116   1.103   5.946 -0.4294 -0.3711  0.1224
   28CHL1   H4A 2004   1.139   1.200   5.995 -0.4133 -0.3290  0.0322
   28CHL1   H4B 2005   1.191   1.020   5.945 -0.4043 -0.3423 -0.7374
   28CHL1    C5 2006   1.079   1.123   5.798 -0.8713  0.1382  0.0970
   28CHL1    C6 2007   1.152   1.070   5.701 -0.6100  0.4691  0.0844
   28CHL1    H6 2008   1.249   1.022   5.724 -0.4584  0.7174 -0.0351
   28CHL1    C7 2009   1.130   1.094   5.550 -0.7141  0.0155 -0.2457
   28CHL1   H7A 2010   1.229   1.108   5.501 -1.5215 -0.4525 -2.0634
   28CHL1   H7B 2011   1.077   1.010   5.501  1.1850 -1.2471 -0.1588
   28CHL1    C8 2012   1.044   1.222   5.526 -0.1815 -0.5408 -0.6217
   28CHL1    H8 2013   1.101   1.310   5.561  1.0939 -0.3477 -3.0325
   28CHL1   C14 2014   1.014   1.238   5.380  0.3680  0.0840  0.4203
   28CHL1   H14 2015   0.953   1.145   5.369 -1.1004  0.8058  2.1999
   28CHL1   C15 2016   1.117   1.239   5.278  0.2889 -0.6195 -0.2187
   28CHL1  H15A 2017   1.215   1.288   5.295  1.3987 -2.0615 -2.2118
   28CHL1  H15B 2018   1.135   1.131   5.259 -0.2667 -1.6631  4.6052
   28CHL1   C16 2019   1.045   1.301   5.151  0.5810 -0.0052  0.0590
   28CHL1  H16A 2020   1.094   1.394   5.115  0.9015 -0.8213 -1.6243
   28CHL1  H16B 2021   1.041   1.229   5.067 -0.4860  0.8788 -0.6569
   28CHL1   C17 2022   0.903   1.337   5.203 -0.2146 -0.0500  0.2646
   28CHL1   H17 2023   0.842   1.245   5.189  0.0023 -0.1059 -0.3459
   28CHL1   C13 2024   0.913   1.354   5.353  0.3813 -0.5486  0.4149
   28CHL1   C18 2025   0.983   1.487   5.379 -0.2683  0.0947  0.5829
   28CHL1  H18A 2026   0.913   1.570   5.353  2.1064  1.6070 -1.1144
   28CHL1  H18B 2027   0.994   1.511   5.487  1.1602  2.3793 -0.0206
   28CHL1  H18C 2028   1.076   1.507   5.322 -1.9566 -2.4233 -3.2827
   28CHL1   C12 2029   0.782   1.334   5.427  0.2570  0.1762  0.3970
   28CHL1  H12A 2030   0.712   1.415   5.401  0.4665  0.4395  0.6501
   28CHL1  H12B 2031   0.739   1.236   5.395 -0.0908 -0.0602  1.5938
   28CHL1   C11 2032   0.808   1.329   5.579  0.1356  0.2189 -0.1183
   28CHL1  H11A 2033   0.835   1.431   5.616 -1.7448  0.7640 -0.2027
   28CHL1  H11B 2034   0.714   1.302   5.631  1.1745 -0.0605  1.6626
   28CHL1    C9 2035   0.921   1.220   5.622  0.3902 -0.3749 -0.3623
   28CHL1    H9 2036   0.877   1.120   5.602 -1.5905  0.5267 -0.6496
   28CHL1   C10 2037   0.954   1.219   5.773  0.5008  0.0438  0.3090
   28CHL1   C19 2038   1.000   1.366   5.815  0.3328 -0.6870 -0.1563
   28CHL1  H19A 2039   0.914   1.435   5.828  1.7900  0.7153  2.6674
   28CHL1  H19B 2040   1.051   1.354   5.913  1.7366  1.6809 -0.5708
   28CHL1  H19C 2041   1.071   1.409   5.741  0.2528  1.3750  0.9133
   28CHL1    C1 2042   0.834   1.181   5.862  0.1175  0.0658 -0.3879
   28CHL1   H1A 2043   0.753   1.256   5.869  0.5400  0.5902 -1.0961
   28CHL1   H1B 2044   0.786   1.087   5.827  1.3984 -0.8050  0.1214
   28CHL1    C2 2045   0.878   1.156   6.007 -0.3172  1.1133 -0.0863
   28CHL1   H2A 2046   0.792   1.119   6.066  2.2991 -0.7630  2.6643
   28CHL1   H2B 2047   0.916   1.241   6.067  2.1632 -0.9701  1.4042
   28CHL1   C20 2048   0.825   1.445   5.120 -0.4612  0.4845  0.2403
   28CHL1   H20 2049   0.761   1.501   5.193  0.7118  0.0734  1.6167
   28CHL1   C21 2050   0.749   1.378   5.006  0.0960  0.1316 -0.4267
   28CHL1  H21A 2051   0.817   1.333   4.930 -0.2892  1.4048 -1.5488
   28CHL1  H21B 2052   0.690   1.452   4.947 -0.7224 -1.1881 -1.2874
   28CHL1  H21C 2053   0.668   1.310   5.041 -0.0549  0.4063 -0.2441
   28CHL1   C22 2054   0.905   1.563   5.055 -0.1329 -0.0897  0.8963
   28CHL1  H22A 2055   0.981   1.585   5.133 -0.6103  0.4233  1.2171
   28CHL1  H22B 2056   0.947   1.527   4.958  0.5247 -2.6163  2.0796
   28CHL1   C23 2057   0.832   1.702   5.032  0.3046 -0.2302 -0.4771
   28CHL1  H23A 2058   0.765   1.670   4.949 -0.3290 -1.9059  0.6752
   28CHL1  H23B 2059   0.772   1.719   5.123  0.0254  2.5750 -1.1348
   28CHL1   C24 2060   0.931   1.819   5.011  0.1690 -0.2442  0.0379
   28CHL1  H24A 2061   0.981   1.833   5.109  0.7682  2.2273 -0.5640
   28CHL1  H24B 2062   1.007   1.800   4.932 -0.0164 -1.0571  0.0570
   28CHL1   C25 2063   0.854   1.947   4.976  0.6947  0.1173  0.0836
   28CHL1   H25 2064   0.928   2.027   4.953  1.0739  0.4222  2.2540
   28CHL1   C26 2065   0.776   1.936   4.845  0.2138  0.1830 -0.1502
   28CHL1  H26A 2066   0.734   2.035   4.819  1.4941  0.6063 -0.6767
   28CHL1  H26B 2067   0.834   1.899   4.757  0.7762 -0.2083  0.3806
   28CHL1  H26C 2068   0.700   1.855   4.848  0.3429  0.1080  1.4024
   28CHL1   C27 2069   0.757   1.988   5.087 -0.2101 -0.2579 -0.1932
   28CHL1  H27A 2070   0.669   1.920   5.095 -0.7314  0.2870 -1.1985
   28CHL1  H27B 2071   0.812   1.993   5.183 -1.1321 -0.5928  0.3663
   28CHL1  H27C 2072   0.727   2.092   5.065  2.4274  0.9964  1.9780
   29CHL1    C3 2073   3.590   3.271   2.547  0.1902  0.7770  0.0090
   29CHL1    H3 2074   3.586   3.382   2.552 -2.5709  0.7453 -0.7116
   29CHL1    O3 2075   3.599   3.238   2.410  0.7552  0.1181 -0.3658
   29CHL1   H3' 2076   3.551   3.155   2.402 -0.6924  0.5987  2.6804
   29CHL1    C4 2077   3.712   3.212   2.626  1.0875 -0.0859 -0.3621
   29CHL1   H4A 2078   3.730   3.105   2.603  0.0223 -0.3526 -0.0047
   29CHL1   H4B 2079   3.800   3.267   2.586 -0.1901  2.3417  0.0483
   29CHL1    C5 2080   3.710   3.234   2.772  0.2156  0.4079  0.0422
   29CHL1    C6 2081   3.802   3.290   2.844 -0.5843  1.0186  0.0315
   29CHL1    H6 2082   3.895   3.328   2.799 -1.4600 -0.0075 -2.6909
   29CHL1    C7 2083   3.802   3.301   2.996  0.0338 -0.2742  0.0823
   29CHL1   H7A 2084   3.893   3.258   3.044  0.6895  0.5305 -0.4263
   29CHL1   H7B 2085   3.790   3.408   3.021  0.1267  0.2440 -1.9738
   29CHL1    C8 2086   3.689   3.223   3.058 -0.5158 -0.2185 -0.6506
   29CHL1    H8 2087   3.714   3.114   3.059 -0.3240 -0.1949  1.7459
   29CHL1   C14 2088   3.660   3.268   3.205  0.1680 -0.2309 -0.2656
   29CHL1   H14 2089   3.615   3.369   3.195 -1.7796 -0.9891  0.7011
   29CHL1   C15 2090   3.785   3.286   3.296 -0.1199 -0.1674  0.3610
   29CHL1  H15A 2091   3.858   3.204   3.276  0.9741  1.2325 -1.5816
   29CHL1  H15B 2092   3.837   3.383   3.278 -0.6900  0.7451  3.3118
   29CHL1   C16 2093   3.716   3.287   3.438  0.4275  0.0817  0.1289
   29CHL1  H16A 2094   3.762   3.208   3.501 -0.5306 -1.1115 -0.6332
   29CHL1  H16B 2095   3.714   3.384   3.492  0.2418 -0.7119  1.5812
   29CHL1   C17 2096   3.561   3.260   3.419  0.1840  0.4944  0.3863
   29CHL1   H17 2097   3.527   3.364   3.400  0.0271  0.0765 -1.7652
   29CHL1   C13 2098   3.551   3.190   3.283 -0.4819  0.2742  0.7370
   29CHL1   C18 2099   3.593   3.042   3.309  0.1022 -0.0995 -0.0905
   29CHL1  H18A 2100   3.508   2.993   3.362 -1.4475  0.9372 -1.5500
   29CHL1  H18B 2101   3.622   2.999   3.211 -0.2968 -0.6433  0.0303
   29CHL1  H18C 2102   3.679   3.036   3.379 -0.2174  0.1731  0.3333
   29CHL1   C12 2103   3.421   3.201   3.203  0.0465  0.5600 -0.3175
   29CHL1  H12A 2104   3.337   3.146   3.251  1.8377  0.3225  2.6558
   29CHL1  H12B 2105   3.392   3.307   3.215  1.6420  0.8871  0.7579
   29CHL1   C11 2106   3.443   3.162   3.060 -0.1110 -0.1627 -0.2309
   29CHL1  H11A 2107   3.451   3.051   3.060 -0.6614 -0.2124  0.7180
   29CHL1  H11B 2108   3.347   3.181   3.008 -0.7301 -0.1625  0.8834
   29CHL1    C9 2109   3.562   3.233   2.976  1.0150  0.1809 -0.0320
   29CHL1    H9 2110   3.546   3.342   2.963 -2.2044 -0.4763 -2.1558
   29CHL1   C10 2111   3.576   3.185   2.830 -0.3451 -0.0213 -0.7521
   29CHL1   C19 2112   3.559   3.032   2.828  0.3223  0.0985  0.7054
   29CHL1  H19A 2113   3.612   2.985   2.914 -0.8634 -0.7765  0.9856
   29CHL1  H19B 2114   3.453   3.003   2.846  0.9205 -0.9729  2.6830
   29CHL1  H19C 2115   3.599   2.977   2.741 -1.5373 -0.1644 -0.0079
   29CHL1    C1 2116   3.461   3.241   2.750  0.5386 -0.0214  1.0443
   29CHL1   H1A 2117   3.364   3.207   2.792  0.5414 -0.5743  0.6121
   29CHL1   H1B 2118   3.470   3.352   2.748  2.3107 -0.1739 -0.5866
   29CHL1    C2 2119   3.466   3.205   2.602  0.4162 -0.3597 -0.5572
   29CHL1   H2A 2120   3.375   3.246   2.553 -0.0829 -1.0840 -0.2504
   29CHL1   H2B 2121   3.477   3.095   2.595  0.0988 -0.3664 -0.9710
   29CHL1   C20 2122   3.491   3.205   3.544  0.0499 -0.3754 -0.0143
   29CHL1   H20 2123   3.512   3.097   3.560  0.0677 -0.3109  0.4188
   29CHL1   C21 2124   3.343   3.212   3.521  0.3165  0.1866  0.2050
   29CHL1  H21A 2125   3.290   3.179   3.613 -0.5889  0.1701 -0.3137
   29CHL1  H21B 2126   3.313   3.139   3.442  1.0563 -1.2456  1.2329
   29CHL1  H21C 2127   3.310   3.316   3.497 -0.0929 -0.3752 -1.7272
   29CHL1   C22 2128   3.533   3.280   3.676 -0.0615 -0.6910  0.2609
   29CHL1  H22A 2129   3.639   3.257   3.699  0.5935  1.4166 -0.5481
   29CHL1  H22B 2130   3.543   3.389   3.661 -2.9062 -0.5349 -0.8469
   29CHL1   C23 2131   3.447   3.264   3.808  0.3630 -0.0547 -0.1729
   29CHL1  H23A 2132   3.357   3.329   3.797  0.0372 -0.1653  1.6914
   29CHL1  H23B 2133   3.419   3.158   3.820 -0.1864  0.0805 -0.2405
   29CHL1   C24 2134   3.533   3.308   3.932  0.3585  0.5505  0.6660
   29CHL1  H24A 2135   3.632   3.257   3.930  0.3221  0.4538  1.2374
   29CHL1  H24B 2136   3.572   3.412   3.929 -1.8376  1.3849  0.3082
   29CHL1   C25 2137   3.459   3.288   4.065 -0.3055  0.5407 -0.1518
   29CHL1   H25 2138   3.364   3.346   4.064 -0.7850 -0.1899  2.0268
   29CHL1   C26 2139   3.406   3.144   4.096 -0.0738 -0.3188 -0.0852
   29CHL1  H26A 2140   3.344   3.102   4.015  0.2089 -1.5343  0.3076
   29CHL1  H26B 2141   3.495   3.079   4.116 -1.0070 -1.3794  0.7038
   29CHL1  H26C 2142   3.352   3.146   4.194 -0.6469  1.1765 -0.4258
   29CHL1   C27 2143   3.541   3.340   4.186 -0.7355  0.4024 -0.7083
   29CHL1  H27A 2144   3.566   3.448   4.179 -0.3456  0.3374 -0.3003
   29CHL1  H27B 2145   3.489   3.322   4.282 -1.1510  0.2336 -0.9609
   29CHL1  H27C 2146   3.630   3.275   4.193 -1.8130 -1.2330 -1.7344
   30CHL1    C3 2147   4.098   4.723   2.581 -0.7228  0.0984 -0.1053
   30CHL1    H3 2148   4.055   4.620   2.589 -0.2440 -0.4854 -4.0700
   30CHL1    O3 2149   4.098   4.758   2.441 -0.2113 -0.2509 -0.4822
   30CHL1   H3' 2150   4.128   4.849   2.440  0.1284 -0.2669  2.7624
   30CHL1    C4 2151   4.001   4.812   2.659  0.2528 -0.1113 -0.5415
   30CHL1   H4A 2152   4.045   4.912   2.639 -2.2307  0.3917 -3.8490
   30CHL1   H4B 2153   3.895   4.812   2.626  0.7089  0.5922 -2.0616
   30CHL1    C5 2154   4.012   4.796   2.811 -0.3724  0.7016  0.0719
   30CHL1    C6 2155   3.901   4.775   2.887  0.3920 -0.5635  0.1612
   30CHL1    H6 2156   3.804   4.763   2.837  1.0044  1.7011 -1.6216
   30CHL1    C7 2157   3.918   4.772   3.039 -0.2657  0.2355 -0.0026
   30CHL1   H7A 2158   3.840   4.837   3.083  0.0649  0.8374 -0.2937
   30CHL1   H7B 2159   3.914   4.665   3.069 -1.2947  0.0004 -0.9252
   30CHL1    C8 2160   4.052   4.814   3.104 -0.4188  0.3387  0.0425
   30CHL1    H8 2161   4.053   4.925   3.111  1.0281  0.4072 -1.1240
   30CHL1   C14 2162   4.068   4.765   3.252 -0.5048  0.2031 -0.0931
   30CHL1   H14 2163   4.088   4.657   3.239  0.6574  0.3255  0.5725
   30CHL1   C15 2164   3.953   4.765   3.349  0.4520  0.1022  0.2209
   30CHL1  H15A 2165   3.931   4.874   3.362  2.0340  0.3920  0.5718
   30CHL1  H15B 2166   3.870   4.703   3.308  0.5336 -0.2290  0.5623
   30CHL1   C16 2167   4.021   4.731   3.478  0.3546  0.0439  0.4962
   30CHL1  H16A 2168   4.012   4.807   3.558 -1.2306  1.4091 -0.9364
   30CHL1  H16B 2169   3.982   4.642   3.532  1.0029 -0.0510  0.8144
   30CHL1   C17 2170   4.175   4.705   3.454 -0.0685 -0.4432 -0.5254
   30CHL1   H17 2171   4.175   4.602   3.412  0.6406 -0.4607 -0.4773
   30CHL1   C13 2172   4.199   4.797   3.327 -0.0060 -0.6865  0.1039
   30CHL1   C18 2173   4.184   4.948   3.364 -0.7992  0.0082  0.4321
   30CHL1  H18A 2174   4.154   5.019   3.284  1.8695 -2.0434 -2.4908
   30CHL1  H18B 2175   4.129   4.965   3.459 -0.4010  0.4255  0.5879
   30CHL1  H18C 2176   4.283   4.985   3.397 -0.7868  1.3531 -1.0481
   30CHL1   C12 2177   4.322   4.776   3.237  0.1334  0.3249 -0.1183
   30CHL1  H12A 2178   4.411   4.818   3.289 -0.1737  3.7417 -2.1775
   30CHL1  H12B 2179   4.343   4.668   3.228  2.9389  0.5915  2.3915
   30CHL1   C11 2180   4.302   4.824   3.095 -0.3803  0.1146 -0.2254
   30CHL1  H11A 2181   4.310   4.934   3.099  2.5611  0.0850 -2.7781
   30CHL1  H11B 2182   4.390   4.810   3.028  0.9978 -0.8494  1.7552
   30CHL1    C9 2183   4.175   4.770   3.025  0.2398 -0.5243 -0.2125
   30CHL1    H9 2184   4.180   4.660   3.034 -1.4202 -0.6069 -0.0989
   30CHL1   C10 2185   4.156   4.805   2.873  0.1221  0.2299 -0.1493
   30CHL1   C19 2186   4.188   4.954   2.855  0.0668 -0.0529 -0.4188
   30CHL1  H19A 2187   4.128   5.016   2.925 -0.3731 -1.1851  0.2241
   30CHL1  H19B 2188   4.298   4.969   2.862  0.1132 -0.7177  0.3925
   30CHL1  H19C 2189   4.175   4.992   2.752  3.3995  2.4577  0.0020
   30CHL1    C1 2190   4.250   4.713   2.788 -0.5009 -0.0244 -0.8771
   30CHL1   H1A 2191   4.355   4.732   2.819 -0.1820 -0.1447 -1.8514
   30CHL1   H1B 2192   4.233   4.605   2.802  0.2379 -0.1700 -1.0381
   30CHL1    C2 2193   4.239   4.727   2.629 -0.3142 -0.2377  0.2760
   30CHL1   H2A 2194   4.294   4.644   2.580  0.3646  0.7976 -0.7394
   30CHL1   H2B 2195   4.290   4.822   2.601 -0.5781  0.1134  0.9884
   30CHL1   C20 2196   4.261   4.716   3.573 -0.4389  0.8711  0.6083
   30CHL1   H20 2197   4.284   4.822   3.597  0.7471  1.7291 -3.9156
   30CHL1   C21 2198   4.389   4.637   3.547  0.2731 -0.8770 -0.0390
   30CHL1  H21A 2199   4.456   4.666   3.630  1.3617  3.3454 -2.2501
   30CHL1  H21B 2200   4.423   4.673   3.447 -2.3447  0.4537 -0.5054
   30CHL1  H21C 2201   4.374   4.527   3.551 -1.5423 -0.6631 -0.2017
   30CHL1   C22 2202   4.194   4.665   3.706  0.1615  0.2540  0.0177
   30CHL1  H22A 2203   4.106   4.726   3.738  0.3177  0.6472 -0.3037
   30CHL1  H22B 2204   4.152   4.563   3.693  0.0973 -0.0580  2.4269
   30CHL1   C23 2205   4.293   4.668   3.827  0.0921 -0.4725 -0.2110
   30CHL1  H23A 2206   4.370   4.589   3.820  1.5638  0.9591 -0.5891
   30CHL1  H23B 2207   4.343   4.767   3.818 -1.2035  0.0839 -1.4176
   30CHL1   C24 2208   4.230   4.666   3.971  0.0634 -0.5901 -0.1499
   30CHL1  H24A 2209   4.148   4.741   3.977  0.8962  0.5506 -2.3901
   30CHL1  H24B 2210   4.210   4.558   3.987 -0.7759 -0.7805 -2.2593
   30CHL1   C25 2211   4.335   4.706   4.080  0.1844  0.1864 -0.0053
   30CHL1   H25 2212   4.434   4.663   4.057  0.6750  0.6244  1.2455
   30CHL1   C26 2213   4.348   4.855   4.101 -0.3598 -0.1371  0.1323
   30CHL1  H26A 2214   4.423   4.848   4.183 -2.4859 -0.6693  2.0880
   30CHL1  H26B 2215   4.391   4.906   4.013 -0.0662 -2.6144 -1.2060
   30CHL1  H26C 2216   4.260   4.910   4.140 -0.6051  1.8809 -3.0798
   30CHL1   C27 2217   4.279   4.656   4.216 -0.0697 -0.2618 -0.0501
   30CHL1  H27A 2218   4.334   4.689   4.306 -2.0038  0.6217  0.8404
   30CHL1  H27B 2219   4.170   4.676   4.227  0.3284  2.0434  0.0103
   30CHL1  H27C 2220   4.280   4.545   4.211 -0.7973 -0.2605 -0.2492
   31CHL1    C3 2221   3.250   4.547   2.442 -0.4642 -0.3013  0.1828
   31CHL1    H3 2222   3.176   4.470   2.475 -1.7089  0.3421 -1.0785
   31CHL1    O3 2223   3.228   4.564   2.306  0.2509  0.3277 -0.1792
   31CHL1   H3' 2224   3.199   4.654   2.291 -1.7851  0.0118  1.6265
   31CHL1    C4 2225   3.236   4.676   2.522 -0.1680  0.1152 -0.1437
   31CHL1   H4A 2226   3.294   4.757   2.472 -0.1655 -1.2051 -2.3341
   31CHL1   H4B 2227   3.131   4.713   2.519 -1.1846 -2.5494  0.8158
   31CHL1    C5 2228   3.265   4.648   2.672 -0.0114 -0.1967  1.3039
   31CHL1    C6 2229   3.169   4.671   2.766  0.3954 -0.5883  0.5450
   31CHL1    H6 2230   3.068   4.700   2.734  0.5854  1.1899  1.5205
   31CHL1    C7 2231   3.195   4.658   2.913  0.1251 -1.0865 -0.3381
   31CHL1   H7A 2232   3.146   4.734   2.978  0.6473 -0.9317 -0.1227
   31CHL1   H7B 2233   3.147   4.561   2.937 -0.1771 -1.1595 -1.2179
   31CHL1    C8 2234   3.344   4.647   2.961  0.0321  0.0577  0.2000
   31CHL1    H8 2235   3.391   4.747   2.966  0.2997 -0.0108 -0.8977
   31CHL1   C14 2236   3.359   4.602   3.106  0.0630 -0.2016  0.4329
   31CHL1   H14 2237   3.327   4.497   3.116  0.1181 -0.0945  1.8292
   31CHL1   C15 2238   3.285   4.676   3.220 -0.2482  0.2814 -0.1591
   31CHL1  H15A 2239   3.294   4.785   3.198  1.8144 -0.3264 -2.6817
   31CHL1  H15B 2240   3.183   4.647   3.251 -0.9063  2.9787  0.3539
   31CHL1   C16 2241   3.369   4.645   3.345  0.3873  0.1143  0.3939
   31CHL1  H16A 2242   3.415   4.736   3.391  1.9768  0.9824 -2.7188
   31CHL1  H16B 2243   3.309   4.591   3.420  0.7514  0.1640  0.7249
   31CHL1   C17 2244   3.492   4.554   3.298  0.0814  0.4526  0.1589
   31CHL1   H17 2245   3.459   4.448   3.309  0.5964  0.1673 -0.9471
   31CHL1   C13 2246   3.510   4.591   3.154  0.4397 -0.4944  0.6388
   31CHL1   C18 2247   3.580   4.729   3.144  0.0109  0.1832  0.4352
   31CHL1  H18A 2248   3.538   4.801   3.218  1.3758  0.9777  0.4535
   31CHL1  H18B 2249   3.690   4.727   3.161 -0.0437  0.3274  0.8269
   31CHL1  H18C 2250   3.571   4.777   3.044  0.3249 -0.1673  0.2361
   31CHL1   C12 2251   3.566   4.485   3.049  0.6878 -0.3652 -0.0943
   31CHL1  H12A 2252   3.674   4.467   3.070  0.3562 -0.2793  1.7129
   31CHL1  H12B 2253   3.516   4.386   3.058  0.4290 -0.2547 -0.3008
   31CHL1   C11 2254   3.557   4.533   2.905  0.0615  0.3501 -0.0882
   31CHL1  H11A 2255   3.604   4.634   2.897 -1.1930  0.9431 -0.2518
   31CHL1  H11B 2256   3.605   4.458   2.839 -0.8971  0.0424 -0.4434
   31CHL1    C9 2257   3.409   4.553   2.857 -0.2235  0.0690 -0.0966
   31CHL1    H9 2258   3.346   4.462   2.865 -0.5636  0.4669  1.8660
   31CHL1   C10 2259   3.405   4.594   2.704  0.2086 -0.4517 -0.2496
   31CHL1   C19 2260   3.498   4.712   2.675 -0.1182 -0.4011  0.2136
   31CHL1  H19A 2261   3.598   4.696   2.721  0.7753  1.5482 -1.0087
   31CHL1  H19B 2262   3.511   4.719   2.565 -0.8391 -1.7790  0.0269
   31CHL1  H19C 2263   3.456   4.810   2.705 -1.2048 -0.8560  0.1961
   31CHL1    C1 2264   3.426   4.464   2.624 -0.3147  0.0309  0.1971
   31CHL1   H1A 2265   3.532   4.436   2.647 -0.9483  0.8466  4.4157
   31CHL1   H1B 2266   3.359   4.380   2.652  1.2253 -1.3172 -0.0669
   31CHL1    C2 2267   3.398   4.494   2.469 -0.4649 -0.7788 -0.0689
   31CHL1   H2A 2268   3.427   4.406   2.408 -0.4064  0.5791 -2.0689
   31CHL1   H2B 2269   3.468   4.574   2.434  0.8710 -0.5028  3.0655
   31CHL1   C20 2270   3.615   4.573   3.393  0.0173  0.0240  0.0611
   31CHL1   H20 2271   3.636   4.681   3.378 -1.1467  0.2137 -0.2371
   31CHL1   C21 2272   3.735   4.491   3.346  0.3594  0.7955  0.6783
   31CHL1  H21A 2273   3.821   4.505   3.416  2.4026  2.8968 -2.1538
   31CHL1  H21B 2274   3.774   4.522   3.247 -1.7046  0.2095 -0.3346
   31CHL1  H21C 2275   3.717   4.381   3.343 -0.0641  0.8476  1.2070
   31CHL1   C22 2276   3.587   4.549   3.546  0.2406  0.7179 -0.6882
   31CHL1  H22A 2277   3.500   4.618   3.554  0.6408  1.3064 -1.3862
   31CHL1  H22B 2278   3.560   4.446   3.578  0.5436  0.8928  0.1632
   31CHL1   C23 2279   3.697   4.596   3.642  0.0225  0.6454  0.5157
   31CHL1  H23A 2280   3.784   4.527   3.639 -0.9136 -0.5195 -0.7727
   31CHL1  H23B 2281   3.724   4.699   3.610  0.8214  0.6591  1.2240
   31CHL1   C24 2282   3.644   4.609   3.786  0.5619 -0.1841 -0.8166
   31CHL1  H24A 2283   3.576   4.697   3.788  1.7643  0.7401  0.0856
   31CHL1  H24B 2284   3.571   4.528   3.808 -1.8634  1.5185 -2.3193
   31CHL1   C25 2285   3.758   4.615   3.894  0.1289 -0.5672  0.1104
   31CHL1   H25 2286   3.809   4.517   3.897  2.0364  0.3787 -0.5886
   31CHL1   C26 2287   3.856   4.735   3.881  1.1087  0.4517 -0.1433
   31CHL1  H26A 2288   3.800   4.829   3.897 -0.5143 -0.5450  0.0898
   31CHL1  H26B 2289   3.930   4.727   3.964  1.3098 -1.8114 -0.5120
   31CHL1  H26C 2290   3.908   4.740   3.783  3.4479 -0.2227  1.0192
   31CHL1   C27 2291   3.687   4.614   4.038 -0.3074  0.2513 -0.4860
   31CHL1  H27A 2292   3.625   4.522   4.046  1.5768 -0.8224  3.1429
   31CHL1  H27B 2293   3.769   4.632   4.111  0.3967  0.0911 -1.2316
   31CHL1  H27C 2294   3.609   4.692   4.041 -0.8045 -0.2648  2.2109
   32CHL1    C3 2295   3.555   2.497   2.544 -0.2232  0.5802  0.2292
   32CHL1    H3 2296   3.488   2.415   2.510 -1.1456  0.2414  2.7468
   32CHL1    O3 2297   3.650   2.504   2.439 -0.1791 -0.0112  0.3140
   32CHL1   H3' 2298   3.723   2.548   2.484 -0.9017  1.4510  0.0919
   32CHL1    C4 2299   3.472   2.621   2.545  0.3367 -0.3726  0.7612
   32CHL1   H4A 2300   3.526   2.717   2.535 -1.1057  0.0102 -4.6772
   32CHL1   H4B 2301   3.409   2.596   2.457  1.5616 -2.3388  0.4063
   32CHL1    C5 2302   3.381   2.617   2.669 -0.2068  0.2708 -0.7061
   32CHL1    C6 2303   3.248   2.626   2.652  0.1432 -0.6558 -0.0377
   32CHL1    H6 2304   3.208   2.644   2.551  0.3060  0.5113  0.0953
   32CHL1    C7 2305   3.150   2.619   2.764  0.0990 -0.3309 -0.6158
   32CHL1   H7A 2306   3.069   2.694   2.755 -0.0884 -0.1706  2.0847
   32CHL1   H7B 2307   3.108   2.518   2.778  1.6955 -0.9557 -0.1661
   32CHL1    C8 2308   3.219   2.648   2.902 -0.6609  0.5155  0.0109
   32CHL1    H8 2309   3.259   2.751   2.894 -0.8137  0.8933  3.4048
   32CHL1   C14 2310   3.126   2.630   3.018 -0.5522 -0.0052 -0.0108
   32CHL1   H14 2311   3.087   2.526   3.023 -0.9320  0.2151  5.4603
   32CHL1   C15 2312   3.006   2.720   3.024  0.3643 -0.7418  0.0834
   32CHL1  H15A 2313   3.033   2.824   2.995  1.4981 -0.9294  0.4608
   32CHL1  H15B 2314   2.918   2.683   2.967  0.5367 -1.4688  0.2932
   32CHL1   C16 2315   2.969   2.733   3.173 -0.0390 -0.3133  0.3850
   32CHL1  H16A 2316   2.979   2.840   3.201 -1.8984 -0.1264  0.3986
   32CHL1  H16B 2317   2.869   2.692   3.197 -0.2514  1.5772  2.8403
   32CHL1   C17 2318   3.076   2.652   3.244 -0.0015  0.0919  0.2345
   32CHL1   H17 2319   3.036   2.549   3.241 -1.6037  0.6448  1.9410
   32CHL1   C13 2320   3.196   2.648   3.149  0.5507 -0.1536  0.1654
   32CHL1   C18 2321   3.269   2.779   3.161  0.3501  0.3448 -0.2072
   32CHL1  H18A 2322   3.352   2.793   3.089 -0.4412 -1.8272 -1.6280
   32CHL1  H18B 2323   3.202   2.866   3.145 -0.0454  0.2903  1.1143
   32CHL1  H18C 2324   3.301   2.786   3.267 -0.7641 -2.6082  0.3801
   32CHL1   C12 2325   3.297   2.537   3.172 -0.3341  0.6384 -1.1892
   32CHL1  H12A 2326   3.352   2.538   3.269  0.6171  0.6463 -1.7229
   32CHL1  H12B 2327   3.245   2.439   3.172 -2.5542  1.7140  2.2483
   32CHL1   C11 2328   3.394   2.540   3.054 -0.4881  0.0030 -0.1541
   32CHL1  H11A 2329   3.466   2.622   3.074  1.1830 -1.0052 -1.8145
   32CHL1  H11B 2330   3.449   2.445   3.076  0.6837 -0.0508 -3.0397
   32CHL1    C9 2331   3.339   2.549   2.914  0.9664  0.1830 -0.4714
   32CHL1    H9 2332   3.296   2.447   2.898 -1.2379  0.6051  2.3144
   32CHL1   C10 2333   3.444   2.587   2.807  0.2825 -0.7424 -0.0303
   32CHL1   C19 2334   3.535   2.709   2.841  0.5934  0.3560 -0.0898
   32CHL1  H19A 2335   3.615   2.690   2.916  1.4422  0.2083 -1.0216
   32CHL1  H19B 2336   3.587   2.753   2.753  2.0262 -0.5886  0.2571
   32CHL1  H19C 2337   3.472   2.792   2.879  1.4282  0.9233  0.0753
   32CHL1    C1 2338   3.527   2.463   2.793  0.1713 -0.3576  0.0576
   32CHL1   H1A 2339   3.591   2.438   2.880 -1.7702 -0.6689  1.4469
   32CHL1   H1B 2340   3.457   2.381   2.766  0.3567 -1.0257  1.5903
   32CHL1    C2 2341   3.629   2.485   2.680  0.0246 -0.2660  0.1364
   32CHL1   H2A 2342   3.699   2.398   2.676 -1.7573 -1.8809  2.4667
   32CHL1   H2B 2343   3.694   2.575   2.692  1.2219 -0.9903 -0.7013
   32CHL1   C20 2344   3.093   2.682   3.397 -0.2043  0.0007 -0.4250
   32CHL1   H20 2345   3.198   2.654   3.420 -0.3548 -0.1489  0.0684
   32CHL1   C21 2346   3.003   2.583   3.474  0.6649 -0.0198  0.8102
   32CHL1  H21A 2347   3.041   2.481   3.453  2.5827  0.8339 -0.0050
   32CHL1  H21B 2348   2.896   2.597   3.446  0.7795 -0.8157 -0.0493
   32CHL1  H21C 2349   3.003   2.622   3.578 -0.7040  2.8668 -0.2158
   32CHL1   C22 2350   3.082   2.831   3.453  0.6821  0.0694 -0.2266
   32CHL1  H22A 2351   3.141   2.895   3.384  0.2673  1.3293  0.5699
   32CHL1  H22B 2352   2.976   2.862   3.452  1.0187  1.2490 -0.4580
   32CHL1   C23 2353   3.126   2.851   3.595 -0.4457  0.2716 -0.0740
   32CHL1  H23A 2354   3.106   2.959   3.609 -1.6827 -0.3530  3.6182
   32CHL1  H23B 2355   3.075   2.786   3.669  0.4494  0.1737  0.4654
   32CHL1   C24 2356   3.281   2.831   3.608  0.1379 -1.0809  0.0793
   32CHL1  H24A 2357   3.309   2.724   3.592  1.8052 -0.7335  0.5905
   32CHL1  H24B 2358   3.333   2.878   3.522  1.2154 -0.9582  0.7979
   32CHL1   C25 2359   3.344   2.892   3.745  0.4949  0.7768  0.3589
   32CHL1   H25 2360   3.317   3.000   3.745 -0.5564  0.5231  0.4101
   32CHL1   C26 2361   3.280   2.821   3.867 -0.2241  0.5739 -0.2792
   32CHL1  H26A 2362   3.171   2.842   3.862 -0.5856 -0.8748  0.9373
   32CHL1  H26B 2363   3.291   2.710   3.866  2.2432  0.8162 -2.9503
   32CHL1  H26C 2364   3.319   2.860   3.964 -0.2233 -1.6130  0.6483
   32CHL1   C27 2365   3.502   2.870   3.751 -0.7167  0.1668  0.1535
   32CHL1  H27A 2366   3.540   2.937   3.831 -2.0804  0.3681  0.6564
   32CHL1  H27B 2367   3.523   2.768   3.788 -1.7196  0.1198  0.6370
   32CHL1  H27C 2368   3.559   2.891   3.658 -0.9715  0.4003  0.0496
   33CHL1    C3 2369   2.353   3.538   2.490  0.3887  0.3418 -0.8376
   33CHL1    H3 2370   2.413   3.445   2.487 -0.3465 -0.2612  1.8804
   33CHL1    O3 2371   2.388   3.621   2.379  0.0533  0.8995 -0.0752
   33CHL1   H3' 2372   2.324   3.692   2.378 -0.3263  0.5544 -1.0596
   33CHL1    C4 2373   2.204   3.493   2.468 -0.4305  0.0931 -0.3050
   33CHL1   H4A 2374   2.138   3.582   2.465 -0.4812  0.0334 -1.3696
   33CHL1   H4B 2375   2.202   3.445   2.368 -0.0381  1.5762 -1.0316
   33CHL1    C5 2376   2.153   3.404   2.590 -0.1213 -0.3567  0.1389
   33CHL1    C6 2377   2.110   3.283   2.570 -0.2224 -0.9055  0.6065
   33CHL1    H6 2378   2.084   3.253   2.467 -5.3666  0.3550  1.3870
   33CHL1    C7 2379   2.059   3.193   2.681  0.4970  0.5057 -0.0047
   33CHL1   H7A 2380   1.959   3.155   2.650 -0.1099  0.3348  2.0631
   33CHL1   H7B 2381   2.132   3.112   2.698  0.3091  0.6741  1.7462
   33CHL1    C8 2382   2.039   3.258   2.815  0.4334  0.0745  0.2641
   33CHL1    H8 2383   1.954   3.329   2.816  0.7398  0.4542 -0.7722
   33CHL1   C14 2384   2.032   3.157   2.923  0.1623  0.1524 -0.3886
   33CHL1   H14 2385   2.130   3.104   2.920  1.3238  2.1550  0.4760
   33CHL1   C15 2386   1.936   3.031   2.914  0.3502 -0.0654  0.2391
   33CHL1  H15A 2387   1.837   3.068   2.881  0.1417 -2.8575 -2.5237
   33CHL1  H15B 2388   1.987   2.968   2.837 -1.3771  1.5497 -2.3138
   33CHL1   C16 2389   1.938   2.977   3.058 -0.4813  0.3596 -0.1868
   33CHL1  H16A 2390   1.835   2.971   3.099 -0.4517  0.0663 -0.1568
   33CHL1  H16B 2391   1.988   2.878   3.058 -0.4256  0.3834  0.4821
   33CHL1   C17 2392   2.019   3.077   3.138  0.5956 -0.4565 -0.1704
   33CHL1   H17 2393   2.127   3.050   3.139  0.7698  0.2049 -0.6882
   33CHL1   C13 2394   2.017   3.213   3.069 -0.1148  0.8542  0.2315
   33CHL1   C18 2395   1.878   3.280   3.082  0.6022 -0.2394 -0.6468
   33CHL1  H18A 2396   1.794   3.231   3.029  0.9984 -0.4783 -1.0649
   33CHL1  H18B 2397   1.838   3.287   3.185  1.2883 -0.9477 -0.3219
   33CHL1  H18C 2398   1.886   3.387   3.055 -1.3041 -0.1200 -0.7892
   33CHL1   C12 2399   2.132   3.307   3.107 -0.1475 -0.1020 -0.5107
   33CHL1  H12A 2400   2.122   3.350   3.209 -2.1247 -1.3941 -0.1263
   33CHL1  H12B 2401   2.225   3.247   3.109  1.8060  2.6613 -3.5885
   33CHL1   C11 2402   2.153   3.415   2.995 -0.3750  0.0470 -0.4980
   33CHL1  H11A 2403   2.074   3.493   3.002  1.6670  2.1233  0.2594
   33CHL1  H11B 2404   2.250   3.468   3.009 -0.1651 -0.0230 -1.6109
   33CHL1    C9 2405   2.160   3.350   2.849 -0.5474 -0.0424 -0.4366
   33CHL1    H9 2406   2.246   3.280   2.849 -1.6653 -1.4482  0.3273
   33CHL1   C10 2407   2.179   3.456   2.734  0.1455  0.2637 -0.7582
   33CHL1   C19 2408   2.084   3.571   2.749  0.1365 -0.0097 -0.2051
   33CHL1  H19A 2409   2.105   3.645   2.669  2.0453 -2.0346 -1.6243
   33CHL1  H19B 2410   1.976   3.554   2.729  0.4511 -2.0487 -0.2149
   33CHL1  H19C 2411   2.089   3.632   2.842 -1.5417 -0.4937  0.2170
   33CHL1    C1 2412   2.326   3.517   2.745  0.4414  0.4391  0.9819
   33CHL1   H1A 2413   2.338   3.564   2.845  0.6516  1.1826  0.6151
   33CHL1   H1B 2414   2.393   3.428   2.737  1.2196  1.0457  0.6549
   33CHL1    C2 2415   2.383   3.604   2.628 -0.0618  0.5838  0.3643
   33CHL1   H2A 2416   2.493   3.595   2.641 -0.0297  1.3002  0.6536
   33CHL1   H2B 2417   2.351   3.710   2.639 -0.4721  0.4520  0.4300
   33CHL1   C20 2418   1.995   3.087   3.297 -0.5658  0.2776 -0.4330
   33CHL1   H20 2419   2.023   3.192   3.319  1.7046 -0.2343 -0.7270
   33CHL1   C21 2420   2.100   2.999   3.363  0.6133  0.5377 -0.4794
   33CHL1  H21A 2421   2.090   2.893   3.328  0.8120  0.9781 -1.9209
   33CHL1  H21B 2422   2.098   3.004   3.474 -1.7307 -0.2175 -0.4535
   33CHL1  H21C 2423   2.202   3.023   3.328 -0.0213  0.0789 -2.7820
   33CHL1   C22 2424   1.845   3.066   3.340  0.6318  0.0653  0.1263
   33CHL1  H22A 2425   1.774   3.092   3.258  0.0343  1.2571  1.0189
   33CHL1  H22B 2426   1.826   2.957   3.355  0.5957  0.2981  1.8188
   33CHL1   C23 2427   1.805   3.153   3.455  0.4172 -0.0200  0.3287
   33CHL1  H23A 2428   1.849   3.127   3.553 -1.4404 -0.4151  1.0732
   33CHL1  H23B 2429   1.838   3.258   3.438 -0.6440  0.2002 -0.4413
   33CHL1   C24 2430   1.645   3.143   3.481  0.5027  0.7268  0.9116
   33CHL1  H24A 2431   1.588   3.196   3.401 -1.5060 -0.4608  1.5226
   33CHL1  H24B 2432   1.626   3.035   3.465  0.1295  0.6496  1.8333
   33CHL1   C25 2433   1.593   3.191   3.616  0.4646  0.3204  0.7759
   33CHL1   H25 2434   1.645   3.286   3.641 -0.7180  1.0832  0.3643
   33CHL1   C26 2435   1.441   3.218   3.601  0.1958  0.6651  0.0014
   33CHL1  H26A 2436   1.395   3.277   3.683 -1.1050  1.2586 -1.1321
   33CHL1  H26B 2437   1.420   3.275   3.508  1.5476  0.5059 -0.4051
   33CHL1  H26C 2438   1.378   3.127   3.587  0.9284 -0.0732  1.3586
   33CHL1   C27 2439   1.638   3.080   3.718  0.2006 -0.3975  0.1690
   33CHL1  H27A 2440   1.597   3.108   3.817 -1.0691 -0.1760 -0.3945
   33CHL1  H27B 2441   1.593   2.980   3.698  1.3608 -1.0027  0.5458
   33CHL1  H27C 2442   1.748   3.069   3.719  0.2120 -0.7981 -1.9283
   34CHL1    C3 2443   4.629   5.192   2.522  0.4171  0.3770  0.6552
   34CHL1    H3 2444   4.736   5.185   2.552  0.8387  0.7035 -0.7631
   34CHL1    O3 2445   4.607   5.174   2.381 -0.2817 -0.3909  0.3640
   34CHL1   H3' 2446   4.621   5.080   2.367  0.7069  0.1737 -3.2084
   34CHL1    C4 2447   4.541   5.086   2.607 -0.1220  0.2193  0.0149
   34CHL1   H4A 2448   4.432   5.099   2.586 -0.1126  0.0875 -0.1176
   34CHL1   H4B 2449   4.569   4.989   2.561  3.7621  1.7260 -0.9455
   34CHL1    C5 2450   4.567   5.098   2.750 -0.0879 -0.6453 -0.1048
   34CHL1    C6 2451   4.624   5.003   2.827  0.5564  0.0679  0.6959
   34CHL1    H6 2452   4.659   4.906   2.788  0.4825 -0.0895  1.0186
   34CHL1    C7 2453   4.640   5.016   2.978 -0.3196  0.1468  0.1407
   34CHL1   H7A 2454   4.603   4.927   3.033 -2.8276  2.2801  2.0608
   34CHL1   H7B 2455   4.748   5.024   3.001  0.0283 -1.7794 -0.7253
   34CHL1    C8 2456   4.572   5.137   3.055 -0.6931  0.7367 -0.1177
   34CHL1    H8 2457   4.466   5.106   3.063  0.2798 -2.3335  1.6239
   34CHL1   C14 2458   4.627   5.160   3.197  0.6740 -0.2633 -0.0126
   34CHL1   H14 2459   4.736   5.178   3.184  1.1244 -1.4677  1.8033
   34CHL1   C15 2460   4.644   5.057   3.317  0.2617  0.3529 -0.3337
   34CHL1  H15A 2461   4.555   4.990   3.314  1.1287 -0.7931 -0.7673
   34CHL1  H15B 2462   4.731   4.990   3.300 -0.6531 -1.3578  1.5109
   34CHL1   C16 2463   4.665   5.141   3.442  0.4047  0.2122  0.0566
   34CHL1  H16A 2464   4.578   5.124   3.509  0.8282  0.2338  0.6141
   34CHL1  H16B 2465   4.754   5.118   3.504  0.7064  1.4480  0.1027
   34CHL1   C17 2466   4.671   5.288   3.398  0.3009 -0.1704  0.3878
   34CHL1   H17 2467   4.773   5.315   3.363  0.3754 -0.4066  0.4255
   34CHL1   C13 2468   4.582   5.290   3.269  0.1548 -0.5008 -0.5978
   34CHL1   C18 2469   4.435   5.278   3.300  0.3258  0.2816  0.0562
   34CHL1  H18A 2470   4.409   5.193   3.367 -0.1480  1.2398  1.0903
   34CHL1  H18B 2471   4.390   5.372   3.337  1.7895  1.3966 -0.9582
   34CHL1  H18C 2472   4.370   5.269   3.211 -0.0727  2.2764  0.1225
   34CHL1   C12 2473   4.594   5.416   3.180  0.1282 -0.6532 -0.2515
   34CHL1  H12A 2474   4.536   5.494   3.233 -0.7689  0.1561 -2.3490
   34CHL1  H12B 2475   4.703   5.439   3.172  0.0837 -0.6161 -0.8030
   34CHL1   C11 2476   4.528   5.390   3.033 -0.2098 -0.4403  0.6179
   34CHL1  H11A 2477   4.419   5.375   3.045  0.0745 -2.4981  0.8792
   34CHL1  H11B 2478   4.534   5.479   2.967  0.4247 -0.2048  0.9939
   34CHL1    C9 2479   4.584   5.260   2.966  0.1532 -0.5154  0.0998
   34CHL1    H9 2480   4.692   5.283   2.953 -0.2165  0.4378 -1.4916
   34CHL1   C10 2481   4.533   5.241   2.810 -0.5053  0.2167 -0.6996
   34CHL1   C19 2482   4.384   5.269   2.800 -0.3203 -0.0109  0.1592
   34CHL1  H19A 2483   4.346   5.271   2.696 -0.6419  1.0881  0.2971
   34CHL1  H19B 2484   4.326   5.193   2.856 -0.5987  0.0805 -0.0099
   34CHL1  H19C 2485   4.357   5.366   2.846 -0.1456  0.2269 -0.2377
   34CHL1    C1 2486   4.609   5.347   2.721 -0.0529 -0.5431 -0.7412
   34CHL1   H1A 2487   4.568   5.446   2.750 -1.6890 -0.8619 -1.9305
   34CHL1   H1B 2488   4.717   5.326   2.735 -0.4377 -0.1929  3.1821
   34CHL1    C2 2489   4.591   5.336   2.570 -0.2195  0.5500  0.5152
   34CHL1   H2A 2490   4.652   5.406   2.508  0.7823 -0.6211  0.1568
   34CHL1   H2B 2491   4.482   5.351   2.554 -0.2083  0.3571  0.2614
   34CHL1   C20 2492   4.639   5.398   3.505  0.0691 -0.3751  0.6089
   34CHL1   H20 2493   4.591   5.487   3.459 -0.8618 -0.2571  1.7570
   34CHL1   C21 2494   4.780   5.434   3.577 -0.4992 -0.0027 -0.3372
   34CHL1  H21A 2495   4.765   5.516   3.650  0.5890  1.0785 -1.3098
   34CHL1  H21B 2496   4.838   5.481   3.494 -0.5937  0.4176 -0.1655
   34CHL1  H21C 2497   4.840   5.347   3.612 -1.2019 -0.4363 -0.2120
   34CHL1   C22 2498   4.528   5.358   3.607 -0.3816  0.3053  0.4001
   34CHL1  H22A 2499   4.453   5.287   3.565  0.8760 -0.7434 -0.0862
   34CHL1  H22B 2500   4.588   5.311   3.688  3.1110  0.7264 -1.8412
   34CHL1   C23 2501   4.441   5.478   3.654 -0.2770  0.0754 -0.6915
   34CHL1  H23A 2502   4.396   5.525   3.564 -0.1015  3.1942  0.8096
   34CHL1  H23B 2503   4.358   5.443   3.720 -1.4978  0.6847 -1.8951
   34CHL1   C24 2504   4.512   5.581   3.736  0.1410  0.1348  0.0683
   34CHL1  H24A 2505   4.565   5.537   3.822  0.1893 -2.0299 -1.0276
   34CHL1  H24B 2506   4.589   5.637   3.679 -0.5746  0.0787 -0.9643
   34CHL1   C25 2507   4.414   5.697   3.794 -0.0862  0.1813 -0.1292
   34CHL1   H25 2508   4.348   5.642   3.864  0.5211 -0.5551 -0.1304
   34CHL1   C26 2509   4.486   5.808   3.874  0.3862  0.1090  0.1626
   34CHL1  H26A 2510   4.411   5.869   3.928  2.0971  2.0153  0.4675
   34CHL1  H26B 2511   4.550   5.760   3.952  1.8602  1.0253 -0.4510
   34CHL1  H26C 2512   4.553   5.871   3.811  1.7303 -0.2714  1.1792
   34CHL1   C27 2513   4.338   5.759   3.678  0.0834 -1.0172  0.9898
   34CHL1  H27A 2514   4.279   5.682   3.623 -2.5552  1.5112  0.1705
   34CHL1  H27B 2515   4.264   5.833   3.717  0.5060 -0.1841  0.2339
   34CHL1  H27C 2516   4.403   5.812   3.605  1.1303 -1.6800  1.4378
   35CHL1    C3 2517   2.443   4.533   2.516  0.0098  0.1876  0.3971
   35CHL1    H3 2518   2.387   4.628   2.510 -2.4944 -1.2589  0.2818
   35CHL1    O3 2519   2.453   4.468   2.393  0.5500 -0.0581  0.2512
   35CHL1   H3' 2520   2.528   4.409   2.394 -0.7288 -1.7497  0.3391
   35CHL1    C4 2521   2.578   4.539   2.592  0.0680 -0.0827  0.4861
   35CHL1   H4A 2522   2.635   4.443   2.597  1.0330  0.3815 -1.3079
   35CHL1   H4B 2523   2.646   4.613   2.546  0.0015  0.4730  1.2711
   35CHL1    C5 2524   2.556   4.587   2.730  0.1111  0.4942  0.0156
   35CHL1    C6 2525   2.617   4.706   2.771  0.5289  0.1437  0.8756
   35CHL1    H6 2526   2.688   4.759   2.706 -0.1910  1.8347  1.4601
   35CHL1    C7 2527   2.610   4.762   2.905  0.0487  0.6581 -0.1443
   35CHL1   H7A 2528   2.712   4.778   2.946 -0.4360 -0.1204  1.4155
   35CHL1   H7B 2529   2.563   4.863   2.909 -1.5870 -0.1230  1.5614
   35CHL1    C8 2530   2.547   4.661   3.002 -0.0510 -0.6158 -0.6609
   35CHL1    H8 2531   2.612   4.571   3.012  1.0893  0.3281  0.7612
   35CHL1   C14 2532   2.519   4.717   3.143  0.4638 -0.1164 -0.1577
   35CHL1   H14 2533   2.461   4.808   3.117 -1.1441 -0.9996  0.2948
   35CHL1   C15 2534   2.648   4.770   3.219 -1.0544 -0.0475 -0.2939
   35CHL1  H15A 2535   2.725   4.690   3.225 -2.2134 -1.3334 -1.9917
   35CHL1  H15B 2536   2.691   4.858   3.167 -0.1412  0.1903  0.8558
   35CHL1   C16 2537   2.595   4.800   3.361 -0.2730  0.2723  0.3388
   35CHL1  H16A 2538   2.651   4.756   3.446 -0.2885 -0.2473  0.0794
   35CHL1  H16B 2539   2.594   4.910   3.380  0.8992  0.2386  0.6347
   35CHL1   C17 2540   2.448   4.738   3.364 -0.1927  0.7487  0.2344
   35CHL1   H17 2541   2.373   4.818   3.341 -0.9003 -0.6055 -2.2641
   35CHL1   C13 2542   2.450   4.632   3.243  0.3310  0.2298  0.3287
   35CHL1   C18 2543   2.534   4.505   3.287  0.2987  0.9266 -0.0659
   35CHL1  H18A 2544   2.484   4.441   3.362  1.6679 -0.2887 -0.1623
   35CHL1  H18B 2545   2.555   4.448   3.194  0.0896  0.7815 -0.0245
   35CHL1  H18C 2546   2.638   4.531   3.318  0.0919  0.3806  1.1025
   35CHL1   C12 2547   2.315   4.589   3.182 -0.8263 -0.3201  0.1029
   35CHL1  H12A 2548   2.250   4.529   3.249 -1.9935  1.1078  0.2690
   35CHL1  H12B 2549   2.254   4.679   3.161  0.3876  0.4560 -0.1241
   35CHL1   C11 2550   2.332   4.510   3.050  0.2870 -0.0976  0.3481
   35CHL1  H11A 2551   2.379   4.410   3.068 -0.8286 -0.5898  0.5641
   35CHL1  H11B 2552   2.237   4.474   3.006  0.7452 -1.4725  0.4530
   35CHL1    C9 2553   2.418   4.596   2.952 -0.3516  0.3634  1.1374
   35CHL1    H9 2554   2.350   4.678   2.922  0.6999  1.5163  1.8759
   35CHL1   C10 2555   2.447   4.520   2.820  0.1319 -1.1034 -0.2075
   35CHL1   C19 2556   2.509   4.382   2.859  0.2579  0.8288 -0.3919
   35CHL1  H19A 2557   2.591   4.388   2.934 -0.6123  0.5200  0.5912
   35CHL1  H19B 2558   2.424   4.325   2.902 -0.1342  0.9921 -0.9497
   35CHL1  H19C 2559   2.549   4.332   2.768  0.4041  0.2636 -0.0204
   35CHL1    C1 2560   2.321   4.503   2.729  0.7105 -0.3184  0.4760
   35CHL1   H1A 2561   2.249   4.446   2.792  0.1136  2.7464  2.7490
   35CHL1   H1B 2562   2.270   4.600   2.708 -1.1183 -1.4233 -0.2729
   35CHL1    C2 2563   2.345   4.437   2.592 -0.5833 -0.1013  0.3719
   35CHL1   H2A 2564   2.249   4.430   2.537 -1.1708  1.6951  1.1050
   35CHL1   H2B 2565   2.401   4.342   2.607  0.8184  0.9711  2.2211
   35CHL1   C20 2566   2.412   4.694   3.510  0.2479  0.2291  0.4418
   35CHL1   H20 2567   2.493   4.624   3.539  1.4968  1.3196 -0.3476
   35CHL1   C21 2568   2.285   4.605   3.516  0.1908 -0.0057 -0.0997
   35CHL1  H21A 2569   2.302   4.517   3.450 -0.1406  1.6837 -2.5045
   35CHL1  H21B 2570   2.200   4.651   3.461  1.7926  1.9271 -1.0198
   35CHL1  H21C 2571   2.252   4.579   3.619  0.9256 -0.2747  0.0729
   35CHL1   C22 2572   2.402   4.808   3.617  0.7005  0.0486  0.8956
   35CHL1  H22A 2573   2.461   4.898   3.589 -0.5967  0.5858 -0.1868
   35CHL1  H22B 2574   2.297   4.843   3.623  1.1153  1.6609 -0.8091
   35CHL1   C23 2575   2.453   4.777   3.754 -0.5604  0.5443 -0.9560
   35CHL1  H23A 2576   2.389   4.696   3.794 -1.3292  0.5900 -2.0578
   35CHL1  H23B 2577   2.562   4.757   3.761 -0.5174  1.4318  1.4817
   35CHL1   C24 2578   2.441   4.898   3.847 -0.4143  0.0003  0.6273
   35CHL1  H24A 2579   2.338   4.937   3.838 -0.1517  1.1015  2.2989
   35CHL1  H24B 2580   2.471   4.849   3.942  2.8749 -0.6218 -0.6532
   35CHL1   C25 2581   2.548   5.012   3.825  1.0033 -0.1950 -0.7460
   35CHL1   H25 2582   2.546   5.059   3.724 -1.2183 -1.6973 -1.4267
   35CHL1   C26 2583   2.523   5.121   3.926  0.1990 -0.3212  0.6180
   35CHL1  H26A 2584   2.527   5.100   4.035 -3.0699  1.3345  1.1063
   35CHL1  H26B 2585   2.597   5.203   3.915 -1.4998  1.6104  3.1126
   35CHL1  H26C 2586   2.422   5.165   3.912  0.3629  0.0770  0.6945
   35CHL1   C27 2587   2.691   4.962   3.833  0.0964 -0.5262  0.4435
   35CHL1  H27A 2588   2.755   5.051   3.848  0.2401 -0.5389 -0.0560
   35CHL1  H27B 2589   2.707   4.899   3.923 -0.9905  0.7253  1.5306
   35CHL1  H27C 2590   2.722   4.906   3.742 -1.1013 -1.9620  0.8960
   36CHL1    C3 2591   3.233   2.127   2.540 -0.1668 -0.3701 -0.0989
   36CHL1    H3 2592   3.261   2.234   2.549  1.1609 -0.8032  1.0767
   36CHL1    O3 2593   3.215   2.092   2.400 -0.2016  0.0689  0.2743
   36CHL1   H3' 2594   3.176   2.004   2.402  3.0565 -1.4515 -0.0177
   36CHL1    C4 2595   3.358   2.050   2.590  0.3919 -0.8458 -0.4219
   36CHL1   H4A 2596   3.325   1.946   2.573 -2.0639  0.2376 -2.7321
   36CHL1   H4B 2597   3.453   2.067   2.535  1.0658  1.9107  1.4417
   36CHL1    C5 2598   3.385   2.071   2.738  0.1600  0.0960 -0.2441
   36CHL1    C6 2599   3.506   2.080   2.798 -0.0908  0.8094 -0.1881
   36CHL1    H6 2600   3.593   2.070   2.732 -0.2161 -2.9799  0.1321
   36CHL1    C7 2601   3.534   2.078   2.944  0.9119  0.2710 -0.8551
   36CHL1   H7A 2602   3.611   1.999   2.961 -0.7139 -1.3007 -0.6445
   36CHL1   H7B 2603   3.570   2.176   2.982  2.0001 -0.5007  0.1750
   36CHL1    C8 2604   3.408   2.038   3.028  0.1653 -0.4801 -0.1211
   36CHL1    H8 2605   3.401   1.927   3.026  2.2741 -0.6003 -1.9560
   36CHL1   C14 2606   3.424   2.081   3.166  0.6777  0.0305 -0.7822
   36CHL1   H14 2607   3.415   2.192   3.167 -0.6948 -0.0707 -1.2915
   36CHL1   C15 2608   3.557   2.051   3.240  0.1084 -0.0148 -0.5117
   36CHL1  H15A 2609   3.587   1.948   3.208  0.3483 -0.4615  1.0988
   36CHL1  H15B 2610   3.633   2.124   3.206 -1.0284  0.9286 -1.0352
   36CHL1   C16 2611   3.522   2.053   3.385 -0.1312 -0.2359 -0.7289
   36CHL1  H16A 2612   3.530   1.947   3.418 -2.4728 -1.0598 -2.6856
   36CHL1  H16B 2613   3.587   2.107   3.457 -1.4223 -0.4350  0.6044
   36CHL1   C17 2614   3.372   2.097   3.391  0.9237  1.3336 -0.1273
   36CHL1   H17 2615   3.361   2.207   3.386  3.7093  1.7002  0.8536
   36CHL1   C13 2616   3.312   2.040   3.260  0.1033 -0.6176  0.6801
   36CHL1   C18 2617   3.287   1.885   3.266 -0.3764 -0.4552 -0.5431
   36CHL1  H18A 2618   3.385   1.848   3.303  0.1802 -0.5939 -2.1271
   36CHL1  H18B 2619   3.209   1.877   3.345  0.1438  1.8519  0.2594
   36CHL1  H18C 2620   3.257   1.838   3.170  0.1417 -3.0633  0.5468
   36CHL1   C12 2621   3.179   2.105   3.217  0.0985 -0.1898 -0.0304
   36CHL1  H12A 2622   3.100   2.052   3.275  0.7005 -1.5253 -0.3920
   36CHL1  H12B 2623   3.171   2.213   3.240  1.0496 -0.0455 -0.3535
   36CHL1   C11 2624   3.158   2.083   3.070 -0.0386 -0.0290 -1.0761
   36CHL1  H11A 2625   3.122   1.978   3.069 -0.9308  0.2066  1.4963
   36CHL1  H11B 2626   3.088   2.161   3.033  0.8879  0.4790 -1.7703
   36CHL1    C9 2627   3.281   2.099   2.973 -0.0880  0.2136 -0.4035
   36CHL1    H9 2628   3.300   2.208   2.967  2.5844 -0.1922  0.2690
   36CHL1   C10 2629   3.253   2.063   2.824 -0.6717 -0.2609  0.0784
   36CHL1   C19 2630   3.197   1.921   2.831 -0.1866  0.0438 -0.7115
   36CHL1  H19A 2631   3.088   1.914   2.854  0.1874  1.2665  1.6093
   36CHL1  H19B 2632   3.205   1.869   2.733 -0.4535 -1.2332 -0.0583
   36CHL1  H19C 2633   3.263   1.862   2.898 -0.2672 -0.2735 -0.9113
   36CHL1    C1 2634   3.130   2.158   2.770 -0.4631  0.1793  0.2035
   36CHL1   H1A 2635   3.032   2.148   2.821 -0.2802  0.1266  0.5433
   36CHL1   H1B 2636   3.175   2.259   2.776  1.6415 -0.7168  0.2537
   36CHL1    C2 2637   3.105   2.119   2.618  1.1365  0.0618 -0.4931
   36CHL1   H2A 2638   3.028   2.185   2.573  1.3974  1.1994  0.7174
   36CHL1   H2B 2639   3.062   2.017   2.606  0.1116  0.3701  0.4937
   36CHL1   C20 2640   3.302   2.049   3.525  0.2263  0.3439 -0.1108
   36CHL1   H20 2641   3.296   1.938   3.516 -1.2191  0.5306 -1.6962
   36CHL1   C21 2642   3.157   2.100   3.539 -0.2531 -0.2277  0.1290
   36CHL1  H21A 2643   3.088   2.064   3.460 -1.6951 -1.3888  1.8860
   36CHL1  H21B 2644   3.153   2.211   3.546  0.2301 -0.0295 -2.1804
   36CHL1  H21C 2645   3.108   2.059   3.630  2.1009 -0.5070  1.2940
   36CHL1   C22 2646   3.374   2.068   3.661 -0.1489  0.3851  0.2051
   36CHL1  H22A 2647   3.431   2.161   3.643  1.0696 -0.6242 -1.3868
   36CHL1  H22B 2648   3.300   2.080   3.743  0.5747  0.8906  0.7873
   36CHL1   C23 2649   3.468   1.959   3.712 -0.0787 -0.3804  0.0564
   36CHL1  H23A 2650   3.506   1.883   3.641  0.8349  0.3918 -0.2894
   36CHL1  H23B 2651   3.557   2.014   3.750 -0.4455  0.1855  0.1124
   36CHL1   C24 2652   3.412   1.895   3.837  0.1255  0.0593  0.3549
   36CHL1  H24A 2653   3.390   1.979   3.906  1.6506  1.0397 -0.3306
   36CHL1  H24B 2654   3.311   1.851   3.822  0.1476  0.6588 -1.7418
   36CHL1   C25 2655   3.515   1.794   3.904 -0.0211 -0.9008 -0.7064
   36CHL1   H25 2656   3.581   1.750   3.825  1.5202 -0.1684  0.1409
   36CHL1   C26 2657   3.604   1.863   4.001 -0.7607 -1.0148 -0.4402
   36CHL1  H26A 2658   3.671   1.786   4.045  2.2165  1.9924  0.4742
   36CHL1  H26B 2659   3.665   1.948   3.963  0.2940 -1.0643  1.1096
   36CHL1  H26C 2660   3.552   1.898   4.093 -1.1996 -1.3766 -0.5466
   36CHL1   C27 2661   3.440   1.671   3.975 -0.5706 -0.0428  0.3207
   36CHL1  H27A 2662   3.345   1.637   3.928  1.0185 -1.4047 -1.9686
   36CHL1  H27B 2663   3.516   1.589   3.975  0.0759  0.5505 -0.7139
   36CHL1  H27C 2664   3.424   1.699   4.082 -1.6120 -2.4097  0.8139
   37CHL1    C3 2665   5.448   4.227   2.521  0.5699  0.5703 -0.5531
   37CHL1    H3 2666   5.344   4.256   2.547  0.1933 -1.7349  0.6722
   37CHL1    O3 2667   5.455   4.186   2.388  0.4932 -0.7269  0.5644
   37CHL1   H3' 2668   5.545   4.156   2.372  0.5245  0.0085 -0.6586
   37CHL1    C4 2669   5.556   4.338   2.545 -0.5421  0.0760  0.1989
   37CHL1   H4A 2670   5.652   4.313   2.496  0.4153 -1.2207  2.6506
   37CHL1   H4B 2671   5.534   4.426   2.481  0.3231 -0.3912 -0.7568
   37CHL1    C5 2672   5.574   4.370   2.692 -0.6241 -0.5232  0.2521
   37CHL1    C6 2673   5.551   4.498   2.733  0.1271 -0.1887  0.1397
   37CHL1    H6 2674   5.508   4.579   2.673 -0.4745  1.1013  2.2568
   37CHL1    C7 2675   5.556   4.537   2.881  0.2383 -0.7259 -0.4157
   37CHL1   H7A 2676   5.575   4.647   2.879  0.2507 -0.7078  0.3115
   37CHL1   H7B 2677   5.451   4.527   2.916  0.4319  1.0397  0.7997
   37CHL1    C8 2678   5.642   4.442   2.961  0.0754 -0.0698  0.3375
   37CHL1    H8 2679   5.750   4.436   2.934  0.2488 -0.5038  1.1053
   37CHL1   C14 2680   5.618   4.472   3.107  0.4622  1.1808 -0.9254
   37CHL1   H14 2681   5.509   4.457   3.121  0.5092  2.3534  0.9160
   37CHL1   C15 2682   5.638   4.608   3.154  0.0076 -0.3278 -0.1895
   37CHL1  H15A 2683   5.735   4.649   3.119 -0.3765  1.0395  0.3090
   37CHL1  H15B 2684   5.560   4.680   3.122  1.4293  0.9166 -0.9558
   37CHL1   C16 2685   5.652   4.592   3.309 -0.4097 -0.7974 -0.1333
   37CHL1  H16A 2686   5.744   4.648   3.338 -1.0401  0.4167 -0.4465
   37CHL1  H16B 2687   5.563   4.628   3.364  2.2546  0.9163  3.2622
   37CHL1   C17 2688   5.663   4.438   3.338 -1.4746  0.2947 -0.6834
   37CHL1   H17 2689   5.559   4.400   3.354 -2.0604  1.7032 -1.0494
   37CHL1   C13 2690   5.698   4.378   3.203  0.0027 -0.3570 -0.2665
   37CHL1   C18 2691   5.853   4.396   3.180  0.0325 -0.8774 -0.1598
   37CHL1  H18A 2692   5.884   4.498   3.211  1.0927 -0.8467 -1.3181
   37CHL1  H18B 2693   5.914   4.329   3.244  0.2127  0.5788  1.2518
   37CHL1  H18C 2694   5.881   4.372   3.076  0.3764 -1.6421  0.1078
   37CHL1   C12 2695   5.648   4.218   3.184 -0.5853 -0.4178  0.1800
   37CHL1  H12A 2696   5.718   4.147   3.233  0.2549  1.4572  1.7595
   37CHL1  H12B 2697   5.542   4.196   3.210 -1.2315  0.3334 -1.7145
   37CHL1   C11 2698   5.668   4.188   3.030  0.1232 -0.0432  0.1067
   37CHL1  H11A 2699   5.778   4.182   3.015  0.4041 -0.0903  2.0199
   37CHL1  H11B 2700   5.625   4.088   3.010  1.6890 -0.5503 -0.8031
   37CHL1    C9 2701   5.601   4.291   2.935 -0.4533  0.0928  0.2992
   37CHL1    H9 2702   5.493   4.284   2.963 -0.7584  0.5782 -0.7219
   37CHL1   C10 2703   5.615   4.248   2.784  0.1645  0.6135  0.3732
   37CHL1   C19 2704   5.755   4.196   2.747 -0.6003 -0.0634 -0.1720
   37CHL1  H19A 2705   5.788   4.102   2.796  3.0923  1.6915  0.8834
   37CHL1  H19B 2706   5.770   4.172   2.639  0.0802  0.3671 -0.1793
   37CHL1  H19C 2707   5.833   4.271   2.773 -0.3667 -0.0927 -0.7671
   37CHL1    C1 2708   5.513   4.133   2.765  0.3958  0.3269  0.0965
   37CHL1   H1A 2709   5.549   4.037   2.808 -2.1744 -0.9958 -0.6367
   37CHL1   H1B 2710   5.410   4.153   2.799  0.1394  0.7701 -0.9337
   37CHL1    C2 2711   5.482   4.106   2.614  0.0214 -0.9694 -0.0294
   37CHL1   H2A 2712   5.405   4.027   2.599 -0.4487 -0.9153  1.9913
   37CHL1   H2B 2713   5.575   4.056   2.580  0.7052  0.4831 -0.3413
   37CHL1   C20 2714   5.756   4.406   3.461 -0.0603 -0.3607 -0.5954
   37CHL1   H20 2715   5.862   4.433   3.446 -0.1016  0.3780  0.3901
   37CHL1   C21 2716   5.762   4.255   3.488 -0.9528  0.3193 -0.8424
   37CHL1  H21A 2717   5.820   4.199   3.412  0.4382 -2.0550  1.8779
   37CHL1  H21B 2718   5.669   4.194   3.488 -0.9569  0.2468  2.1653
   37CHL1  H21C 2719   5.803   4.232   3.589  0.2328 -0.7923 -1.5702
   37CHL1   C22 2720   5.713   4.477   3.590  0.6887 -0.7442 -0.2022
   37CHL1  H22A 2721   5.788   4.446   3.665  0.1823 -0.6975  0.3234
   37CHL1  H22B 2722   5.729   4.586   3.573  0.1821 -0.5279  0.7079
   37CHL1   C23 2723   5.572   4.456   3.649 -1.0362 -0.2867 -0.3235
   37CHL1  H23A 2724   5.499   4.462   3.565  0.6218  0.4072 -1.7444
   37CHL1  H23B 2725   5.580   4.352   3.687 -1.6387 -0.3170 -0.2679
   37CHL1   C24 2726   5.541   4.542   3.766 -0.1840 -0.3191 -0.2337
   37CHL1  H24A 2727   5.623   4.535   3.841 -0.9675 -2.1433  0.4947
   37CHL1  H24B 2728   5.537   4.649   3.737  0.5722  0.2439  1.6628
   37CHL1   C25 2729   5.395   4.532   3.818  0.5343  0.1912  0.1950
   37CHL1   H25 2730   5.392   4.422   3.834  0.8018 -0.0016 -1.0149
   37CHL1   C26 2731   5.376   4.608   3.943 -0.1014  0.1047  0.4415
   37CHL1  H26A 2732   5.277   4.587   3.989  0.4536 -2.5309  0.4721
   37CHL1  H26B 2733   5.459   4.570   4.006  0.6500  0.7206 -0.1733
   37CHL1  H26C 2734   5.389   4.718   3.936  0.6977  0.1128  1.9953
   37CHL1   C27 2735   5.295   4.571   3.711 -0.7191 -0.1599  0.2850
   37CHL1  H27A 2736   5.334   4.656   3.651  2.8037 -1.3518  0.8161
   37CHL1  H27B 2737   5.288   4.479   3.650 -1.4113 -0.2362  0.4677
   37CHL1  H27C 2738   5.191   4.576   3.750 -0.6877  0.5291  0.2967
   38CHL1    C3 2739   2.710   5.380   2.504  0.3986  0.5443  0.3725
   38CHL1    H3 2740   2.730   5.485   2.535 -0.5482  0.4733  1.2511
   38CHL1    O3 2741   2.666   5.393   2.368  0.4495 -0.7795 -0.3340
   38CHL1   H3' 2742   2.632   5.307   2.341 -2.4734  0.2363 -0.1034
   38CHL1    C4 2743   2.851   5.315   2.525 -0.6518  0.2841 -0.2007
   38CHL1   H4A 2744   2.843   5.218   2.472  0.8351  0.5237 -0.8844
   38CHL1   H4B 2745   2.927   5.376   2.472  0.3579 -2.1291 -1.6090
   38CHL1    C5 2746   2.900   5.297   2.665  0.8812  0.3859 -0.2510
   38CHL1    C6 2747   3.012   5.348   2.714 -0.3171 -0.0610 -0.2439
   38CHL1    H6 2748   3.076   5.401   2.641 -0.0486 -0.1677 -0.0876
   38CHL1    C7 2749   3.074   5.324   2.850  0.7152  0.5199 -0.4473
   38CHL1   H7A 2750   3.183   5.302   2.850  0.6447  0.0560  1.7103
   38CHL1   H7B 2751   3.054   5.416   2.909  1.2426  0.8185 -0.7295
   38CHL1    C8 2752   2.997   5.213   2.930  0.1765 -0.5094 -0.2522
   38CHL1    H8 2753   3.026   5.116   2.885 -0.5331 -2.2480  2.9454
   38CHL1   C14 2754   3.023   5.234   3.074 -0.6382 -0.0352 -0.4728
   38CHL1   H14 2755   2.981   5.335   3.091  1.3959  0.7726 -0.0670
   38CHL1   C15 2756   3.171   5.244   3.128  0.7698 -0.1051 -0.1053
   38CHL1  H15A 2757   3.233   5.168   3.076 -0.5303 -1.3717  0.1856
   38CHL1  H15B 2758   3.211   5.346   3.109  0.8138 -0.5951 -2.8421
   38CHL1   C16 2759   3.155   5.214   3.283  0.3997  0.4598  0.2685
   38CHL1  H16A 2760   3.234   5.139   3.304 -1.3548 -1.3684  0.5249
   38CHL1  H16B 2761   3.180   5.306   3.340  2.4871 -0.2215  0.5211
   38CHL1   C17 2762   3.015   5.160   3.307  0.4354  0.2044  0.1337
   38CHL1   H17 2763   2.958   5.246   3.347 -0.2312 -0.2947  0.2619
   38CHL1   C13 2764   2.960   5.131   3.169 -0.3422 -0.2607  0.0330
   38CHL1   C18 2765   3.004   4.989   3.133 -0.8861 -0.0808  0.3096
   38CHL1  H18A 2766   2.929   4.913   3.164 -1.2193  0.1553  0.0756
   38CHL1  H18B 2767   3.003   4.968   3.024  2.1189  0.0868  0.1965
   38CHL1  H18C 2768   3.107   4.963   3.166  0.6803  3.1006 -1.8706
   38CHL1   C12 2769   2.809   5.142   3.154  0.2326 -0.4289  0.6321
   38CHL1  H12A 2770   2.765   5.065   3.222 -1.8142 -0.7095 -0.9682
   38CHL1  H12B 2771   2.781   5.243   3.192 -1.0729 -0.9227  1.0071
   38CHL1   C11 2772   2.769   5.141   3.003  0.3038 -0.1214  0.1744
   38CHL1  H11A 2773   2.780   5.031   2.989 -0.8561 -0.3064  0.6555
   38CHL1  H11B 2774   2.663   5.173   3.008  0.3415 -0.0347  0.4544
   38CHL1    C9 2775   2.844   5.227   2.904  0.3752 -0.3149 -0.3385
   38CHL1    H9 2776   2.822   5.327   2.948  1.4325  0.2423 -1.0684
   38CHL1   C10 2777   2.799   5.229   2.753 -0.0306 -0.2734 -0.7946
   38CHL1   C19 2778   2.781   5.078   2.711 -0.0221  0.0805 -0.8154
   38CHL1  H19A 2779   2.874   5.018   2.724  0.2305  0.4140 -1.0762
   38CHL1  H19B 2780   2.701   5.038   2.777 -0.8218  0.5900 -1.4698
   38CHL1  H19C 2781   2.745   5.067   2.606  1.0472  0.3723 -1.2154
   38CHL1    C1 2782   2.659   5.303   2.742  0.0702  0.5013 -0.1762
   38CHL1   H1A 2783   2.583   5.246   2.800  1.5841 -0.9265  0.4399
   38CHL1   H1B 2784   2.669   5.406   2.784  2.1973  0.7895 -1.3386
   38CHL1    C2 2785   2.608   5.319   2.594 -1.0171 -0.2514 -0.1889
   38CHL1   H2A 2786   2.515   5.380   2.594 -0.6488  0.3181 -0.0549
   38CHL1   H2B 2787   2.591   5.215   2.559 -1.1224 -0.8583  1.6251
   38CHL1   C20 2788   3.004   5.061   3.424 -0.1646 -0.2261  0.7072
   38CHL1   H20 2789   3.057   4.970   3.389  0.5079  0.7568 -0.8904
   38CHL1   C21 2790   2.859   5.019   3.461  0.3160  0.1634  0.2324
   38CHL1  H21A 2791   2.794   5.109   3.462  0.3194  0.2058 -2.1238
   38CHL1  H21B 2792   2.855   4.983   3.567 -1.6654 -0.0837  0.0936
   38CHL1  H21C 2793   2.820   4.938   3.397  2.4271 -1.1219  0.5356
   38CHL1   C22 2794   3.084   5.116   3.547  0.2196 -0.5238  0.5601
   38CHL1  H22A 2795   3.186   5.134   3.504 -0.2403  0.3313 -0.2026
   38CHL1  H22B 2796   3.052   5.221   3.566  0.1191 -0.4848  0.1816
   38CHL1   C23 2797   3.093   5.035   3.677  0.1706 -0.4070  0.3121
   38CHL1  H23A 2798   3.130   5.103   3.757  1.6754  2.2762 -2.5530
   38CHL1  H23B 2799   2.992   5.007   3.715 -0.3909  0.7724 -0.2867
   38CHL1   C24 2800   3.172   4.898   3.665 -0.5089 -0.0700 -0.4926
   38CHL1  H24A 2801   3.134   4.819   3.596 -0.3719 -0.3525 -0.2419
   38CHL1  H24B 2802   3.265   4.933   3.616 -1.1689  3.0711  0.3821
   38CHL1   C25 2803   3.190   4.818   3.795 -0.3419  0.6084 -0.3727
   38CHL1   H25 2804   3.105   4.814   3.866  0.0413  0.0011  0.0608
   38CHL1   C26 2805   3.228   4.676   3.751  0.4494 -0.1213 -0.1498
   38CHL1  H26A 2806   3.242   4.616   3.844 -2.6186 -0.1077  0.3835
   38CHL1  H26B 2807   3.147   4.625   3.694  0.8502  1.0949 -1.8443
   38CHL1  H26C 2808   3.315   4.660   3.684  1.3864 -1.1838  1.2769
   38CHL1   C27 2809   3.305   4.877   3.875 -0.6316  0.3442  0.1002
   38CHL1  H27A 2810   3.319   4.824   3.972 -0.7522 -0.7528 -0.4816
   38CHL1  H27B 2811   3.394   4.877   3.808 -0.0157  1.1869  0.8991
   38CHL1  H27C 2812   3.273   4.980   3.903 -1.4347  0.0120  0.4232
   39CHL1    C3 2813   4.633   5.881   2.471  0.0527 -0.4605  0.4178
   39CHL1    H3 2814   4.719   5.841   2.530  2.5461  0.6936 -2.2852
   39CHL1    O3 2815   4.671   5.860   2.333  0.1131 -1.3001  0.3771
   39CHL1   H3' 2816   4.764   5.881   2.324 -0.2102 -0.5267 -1.2842
   39CHL1    C4 2817   4.500   5.807   2.502 -0.7386 -0.7228 -0.0923
   39CHL1   H4A 2818   4.421   5.850   2.437 -0.5738 -0.8712 -0.3949
   39CHL1   H4B 2819   4.524   5.702   2.477 -0.0640 -0.3757 -0.9713
   39CHL1    C5 2820   4.466   5.837   2.643  0.5424 -0.4164 -0.2163
   39CHL1    C6 2821   4.457   5.738   2.737 -0.0858  0.4235 -0.0427
   39CHL1    H6 2822   4.474   5.634   2.705 -2.5079 -0.3178  0.9976
   39CHL1    C7 2823   4.433   5.760   2.887  0.3823 -0.7108 -0.0688
   39CHL1   H7A 2824   4.384   5.665   2.916  0.2886 -0.7841 -0.4517
   39CHL1   H7B 2825   4.528   5.758   2.944 -0.0115 -1.2371  0.5639
   39CHL1    C8 2826   4.359   5.882   2.912  0.3096  0.3731  0.1946
   39CHL1    H8 2827   4.258   5.889   2.866  0.6815 -1.7535 -0.9911
   39CHL1   C14 2828   4.353   5.905   3.062  0.4687  0.3497 -0.1316
   39CHL1   H14 2829   4.460   5.903   3.092  0.2233 -2.3110  0.6906
   39CHL1   C15 2830   4.281   5.788   3.136  0.0827 -0.0485  0.1186
   39CHL1  H15A 2831   4.195   5.758   3.073  0.0718 -1.6248  0.8779
   39CHL1  H15B 2832   4.349   5.702   3.152  1.2368  0.9482  0.7166
   39CHL1   C16 2833   4.258   5.851   3.273  0.4187 -1.1905 -0.3981
   39CHL1  H16A 2834   4.154   5.819   3.297  0.1869  0.6486  1.1071
   39CHL1  H16B 2835   4.325   5.810   3.352  0.3661 -0.1507  0.1893
   39CHL1   C17 2836   4.274   6.010   3.257  0.3534 -0.5637 -0.5964
   39CHL1   H17 2837   4.379   6.021   3.294  0.6553 -0.4267 -1.4902
   39CHL1   C13 2838   4.288   6.034   3.101  0.1183 -0.6464  0.6779
   39CHL1   C18 2839   4.142   6.045   3.040  0.1154  0.0652  0.3080
   39CHL1  H18A 2840   4.098   6.147   3.046  3.4574  1.4892  1.8537
   39CHL1  H18B 2841   4.136   6.025   2.931 -0.6539  0.8753  0.1968
   39CHL1  H18C 2842   4.070   5.977   3.091  0.7577 -1.7719 -1.1789
   39CHL1   C12 2843   4.388   6.139   3.052 -0.2476 -0.0168  0.4165
   39CHL1  H12A 2844   4.359   6.243   3.077 -0.4594  0.0452 -0.0811
   39CHL1  H12B 2845   4.480   6.125   3.114  0.7890  0.5900 -0.9486
   39CHL1   C11 2846   4.410   6.131   2.902  0.3251  0.3667  0.7725
   39CHL1  H11A 2847   4.313   6.154   2.852  0.6247 -1.5222 -0.7249
   39CHL1  H11B 2848   4.478   6.211   2.866 -0.4962  0.2016 -1.2143
   39CHL1    C9 2849   4.443   5.993   2.843 -0.7025 -0.3289 -0.6462
   39CHL1    H9 2850   4.542   5.969   2.888 -0.3078  0.4611 -1.0820
   39CHL1   C10 2851   4.457   5.985   2.690 -0.3146 -0.0357 -0.2711
   39CHL1   C19 2852   4.333   6.050   2.625 -0.0217  0.1950  0.2032
   39CHL1  H19A 2853   4.330   6.033   2.515 -0.3526 -0.0536  0.2531
   39CHL1  H19B 2854   4.243   6.019   2.681 -0.9985 -0.1657 -1.5352
   39CHL1  H19C 2855   4.333   6.161   2.636 -0.0359  0.1252  0.9351
   39CHL1    C1 2856   4.588   6.059   2.646 -0.2441  0.2912  0.2605
   39CHL1   H1A 2857   4.572   6.166   2.671  3.5781  0.9073  0.2591
   39CHL1   H1B 2858   4.672   6.015   2.703 -1.4740 -1.8134  0.5058
   39CHL1    C2 2859   4.617   6.029   2.499  0.3903  0.1120 -0.0400
   39CHL1   H2A 2860   4.714   6.081   2.483 -0.7000  2.2137 -0.0022
   39CHL1   H2B 2861   4.542   6.075   2.432 -0.0201 -3.1936 -1.9511
   39CHL1   C20 2862   4.189   6.099   3.342  0.3894  0.1751  0.4873
   39CHL1   H20 2863   4.090   6.096   3.292  0.9961  1.4709 -0.8116
   39CHL1   C21 2864   4.233   6.249   3.349  0.0275 -0.0797 -0.0696
   39CHL1  H21A 2865   4.255   6.287   3.247  0.5847 -0.5008 -0.1143
   39CHL1  H21B 2866   4.322   6.260   3.415  0.6351 -1.3788 -0.6500
   39CHL1  H21C 2867   4.147   6.306   3.390 -0.8175 -1.6563  0.4003
   39CHL1   C22 2868   4.175   6.052   3.491 -0.3283 -0.5769 -0.2948
   39CHL1  H22A 2869   4.164   5.942   3.485  4.0923 -1.2626  1.5204
   39CHL1  H22B 2870   4.273   6.065   3.542 -0.1820  0.5537 -0.8510
   39CHL1   C23 2871   4.060   6.119   3.563  0.1991  0.2034  0.0228
   39CHL1  H23A 2872   4.076   6.225   3.590 -1.1079  0.2755  0.5107
   39CHL1  H23B 2873   3.966   6.115   3.505 -1.3958  0.5045  2.5420
   39CHL1   C24 2874   4.038   6.060   3.702 -0.4244  0.0803  0.0461
   39CHL1  H24A 2875   4.008   5.954   3.700  1.8866 -0.6269  0.6924
   39CHL1  H24B 2876   4.134   6.075   3.757  1.1902 -1.4463 -2.2463
   39CHL1   C25 2877   3.920   6.120   3.778 -0.1277  0.2858 -0.2316
   39CHL1   H25 2878   3.929   6.231   3.780 -1.4213  0.4184 -1.7413
   39CHL1   C26 2879   3.787   6.083   3.709 -0.8269  0.6326 -0.9567
   39CHL1  H26A 2880   3.707   6.120   3.777  1.3413  1.3742  1.2548
   39CHL1  H26B 2881   3.773   6.130   3.609  0.7275 -1.3413 -2.1378
   39CHL1  H26C 2882   3.778   5.974   3.691  0.4159  0.6857 -2.0165
   39CHL1   C27 2883   3.913   6.084   3.928  0.8036 -0.4781  0.0658
   39CHL1  H27A 2884   3.828   6.139   3.973  1.9428  0.8076  0.6923
   39CHL1  H27B 2885   3.902   5.976   3.953  0.5950 -0.1895  1.2465
   39CHL1  H27C 2886   3.994   6.126   3.992  2.0589 -1.3176 -0.9413
   40CHL1    C3 2887   5.748   2.940   2.573  0.5576 -0.5863  0.3761
   40CHL1    H3 2888   5.827   3.008   2.611 -0.8364  2.2018 -1.5792
   40CHL1    O3 2889   5.732   2.966   2.437 -0.2445 -0.2466 -0.0035
   40CHL1   H3' 2890   5.661   2.908   2.408  1.0823 -3.0265  2.1171
   40CHL1    C4 2891   5.785   2.795   2.590 -0.3021 -0.2076  0.3033
   40CHL1   H4A 2892   5.716   2.735   2.527  0.1479 -1.1935  0.7346
   40CHL1   H4B 2893   5.878   2.771   2.535 -0.2805 -2.1520  1.1368
   40CHL1    C5 2894   5.795   2.753   2.737 -0.6628  0.6347  0.4294
   40CHL1    C6 2895   5.903   2.700   2.792  0.8130  0.2123 -0.1164
   40CHL1    H6 2896   5.988   2.676   2.727  1.5731  1.2177  0.4769
   40CHL1    C7 2897   5.918   2.642   2.929 -0.3818 -0.2028  0.4082
   40CHL1   H7A 2898   5.945   2.535   2.919 -0.6799 -0.2914  0.5515
   40CHL1   H7B 2899   5.991   2.700   2.989  0.1896 -0.2321 -0.2400
   40CHL1    C8 2900   5.790   2.657   3.016  0.3275 -0.2628 -0.1974
   40CHL1    H8 2901   5.720   2.572   3.000  0.1194 -0.4390  1.5312
   40CHL1   C14 2902   5.822   2.661   3.165  0.5091 -0.3324  0.3240
   40CHL1   H14 2903   5.874   2.759   3.170  1.6571 -0.9234  0.1135
   40CHL1   C15 2904   5.918   2.556   3.234 -0.4234  0.0356  0.3232
   40CHL1  H15A 2905   5.883   2.455   3.203 -0.4802  0.2227 -0.2144
   40CHL1  H15B 2906   6.025   2.569   3.205 -0.5486  1.8256  0.5803
   40CHL1   C16 2907   5.889   2.567   3.385  0.5797 -0.1967  0.4108
   40CHL1  H16A 2908   5.860   2.465   3.416  1.6370 -0.6420 -0.0539
   40CHL1  H16B 2909   5.979   2.603   3.440  1.0527  1.9871 -1.6639
   40CHL1   C17 2910   5.777   2.673   3.397 -0.7222  0.5650 -0.3524
   40CHL1   H17 2911   5.830   2.771   3.402 -0.3808  0.3079  1.2325
   40CHL1   C13 2912   5.707   2.676   3.265  1.1319  0.1251 -0.0680
   40CHL1   C18 2913   5.598   2.557   3.243  0.4137  0.3444 -0.2628
   40CHL1  H18A 2914   5.642   2.456   3.264  1.8304  1.1010  0.4923
   40CHL1  H18B 2915   5.515   2.566   3.316 -0.8072  0.1629 -1.6035
   40CHL1  H18C 2916   5.550   2.561   3.143 -2.6959  1.6335  1.2446
   40CHL1   C12 2917   5.636   2.807   3.233  0.3312 -0.1463  0.3823
   40CHL1  H12A 2918   5.547   2.826   3.296 -0.5394  2.4257 -1.5622
   40CHL1  H12B 2919   5.707   2.889   3.255  1.4001 -0.5455 -1.5071
   40CHL1   C11 2920   5.592   2.818   3.085 -0.0412 -0.0302  0.3217
   40CHL1  H11A 2921   5.505   2.750   3.078  0.2104 -0.2370 -0.8374
   40CHL1  H11B 2922   5.553   2.920   3.065 -0.2821 -0.4478 -1.4745
   40CHL1    C9 2923   5.706   2.782   2.980 -0.0932 -0.6141 -0.1180
   40CHL1    H9 2924   5.783   2.859   3.002  0.2545 -1.0985  0.3436
   40CHL1   C10 2925   5.675   2.795   2.835 -0.6988  0.0005 -1.0792
   40CHL1   C19 2926   5.562   2.698   2.811  0.2718 -0.3067 -0.2874
   40CHL1  H19A 2927   5.602   2.594   2.811  0.2749 -0.3422  2.2491
   40CHL1  H19B 2928   5.474   2.700   2.878  0.3772 -0.5028 -0.1439
   40CHL1  H19C 2929   5.528   2.701   2.705 -0.8471  0.0048  0.0727
   40CHL1    C1 2930   5.645   2.937   2.803 -0.2726  0.5790  0.7874
   40CHL1   H1A 2931   5.557   2.970   2.862 -1.4560  0.1519 -0.7018
   40CHL1   H1B 2932   5.729   3.002   2.836 -1.0136  1.8572  0.2066
   40CHL1    C2 2933   5.617   2.970   2.649  0.3644 -0.4086 -1.0020
   40CHL1   H2A 2934   5.591   3.078   2.643 -0.8132 -0.6574 -0.5073
   40CHL1   H2B 2935   5.527   2.912   2.618  0.4426 -0.8369 -0.4474
   40CHL1   C20 2936   5.695   2.661   3.527  0.3106 -0.0354 -0.2819
   40CHL1   H20 2937   5.669   2.555   3.543 -1.0791  0.0237 -2.0055
   40CHL1   C21 2938   5.584   2.768   3.543 -0.6655 -0.1162 -0.3587
   40CHL1  H21A 2939   5.532   2.754   3.640 -3.4660  0.4143 -1.7351
   40CHL1  H21B 2940   5.499   2.742   3.475 -0.1562 -1.7500 -0.3881
   40CHL1  H21C 2941   5.618   2.871   3.516 -1.1741 -0.0133 -0.6268
   40CHL1   C22 2942   5.786   2.694   3.648  0.2113  0.3811  0.2792
   40CHL1  H22A 2943   5.882   2.641   3.633 -0.2028 -0.1786 -0.4448
   40CHL1  H22B 2944   5.812   2.802   3.649  0.1182  0.4032  0.8091
   40CHL1   C23 2945   5.734   2.641   3.782 -0.5277  0.8615 -0.0408
   40CHL1  H23A 2946   5.636   2.692   3.797 -1.2296 -0.0051 -1.5345
   40CHL1  H23B 2947   5.724   2.531   3.786 -0.3550  0.8953  1.5182
   40CHL1   C24 2948   5.831   2.682   3.889  0.2506  0.3811  0.4892
   40CHL1  H24A 2949   5.922   2.619   3.875  0.6633  0.4920  2.4756
   40CHL1  H24B 2950   5.862   2.788   3.878 -0.4301  0.7721  2.0698
   40CHL1   C25 2951   5.769   2.655   4.032 -0.3202 -0.5112  0.2257
   40CHL1   H25 2952   5.858   2.664   4.097  0.6076 -1.8123 -0.8306
   40CHL1   C26 2953   5.665   2.763   4.057  0.1264  0.2623  0.1506
   40CHL1  H26A 2954   5.701   2.865   4.031  0.0432  0.7939  2.0175
   40CHL1  H26B 2955   5.566   2.742   4.012  1.1833 -0.2097 -2.0549
   40CHL1  H26C 2956   5.650   2.767   4.167  0.8859  1.2160  0.2269
   40CHL1   C27 2957   5.704   2.511   4.055 -0.8843 -0.1315  0.6627
   40CHL1  H27A 2958   5.646   2.510   4.150  1.1973  1.0450  1.9928
   40CHL1  H27B 2959   5.644   2.466   3.973 -1.3533 -0.6452  1.2821
   40CHL1  H27C 2960   5.782   2.435   4.076  0.7361  1.6422  1.2553
   41CHL1    C3 2961   5.013   5.704   2.539 -0.1705 -0.7039 -0.1996
   41CHL1    H3 2962   4.960   5.796   2.508 -4.7411 -3.1520 -0.0620
   41CHL1    O3 2963   5.061   5.644   2.425 -0.0350  0.7646 -0.3827
   41CHL1   H3' 2964   5.146   5.687   2.408  0.2303  1.0865  1.6265
   41CHL1    C4 2965   5.142   5.744   2.620  0.4969 -0.2537  1.0934
   41CHL1   H4A 2966   5.207   5.655   2.626  1.3729  0.5534  5.0777
   41CHL1   H4B 2967   5.194   5.818   2.555 -2.1822  0.1509 -0.6753
   41CHL1    C5 2968   5.111   5.807   2.753 -0.3430 -0.7136 -0.0877
   41CHL1    C6 2969   5.159   5.927   2.797 -0.1861  0.2265 -0.2131
   41CHL1    H6 2970   5.229   5.986   2.736  1.1448 -0.1039  0.9633
   41CHL1    C7 2971   5.126   5.987   2.929  0.6946 -0.2450 -0.1610
   41CHL1   H7A 2972   5.221   6.014   2.980  1.2270  0.8423 -1.6996
   41CHL1   H7B 2973   5.053   6.068   2.907 -0.0372 -0.2559  2.0491
   41CHL1    C8 2974   5.052   5.889   3.022  0.1982 -0.2431 -0.0995
   41CHL1    H8 2975   5.127   5.816   3.058  0.9028  0.0842 -0.9125
   41CHL1   C14 2976   4.979   5.961   3.133  0.3124  0.0560 -0.3466
   41CHL1   H14 2977   4.915   6.037   3.084  2.1470 -0.1521 -3.1938
   41CHL1   C15 2978   5.064   6.059   3.227 -0.2480  0.4538  0.4887
   41CHL1  H15A 2979   5.165   6.018   3.248  0.3071  0.5426 -1.8726
   41CHL1  H15B 2980   5.084   6.149   3.165 -1.1999  1.8519  2.1721
   41CHL1   C16 2981   4.990   6.069   3.353  0.0009  0.7061 -0.2988
   41CHL1  H16A 2982   5.042   6.011   3.432 -2.5482 -1.1637  0.0551
   41CHL1  H16B 2983   4.974   6.173   3.389 -0.7521 -0.1114  1.7980
   41CHL1   C17 2984   4.854   5.996   3.327  0.1296 -0.4827 -0.2657
   41CHL1   H17 2985   4.793   6.078   3.283 -1.1218  0.4223  3.0486
   41CHL1   C13 2986   4.888   5.886   3.223  0.3147 -0.5753  0.2982
   41CHL1   C18 2987   4.972   5.775   3.291  0.1975 -0.0872 -0.5146
   41CHL1  H18A 2988   4.898   5.722   3.355  0.2688 -0.3101 -0.6182
   41CHL1  H18B 2989   5.019   5.705   3.218 -1.0323 -1.3712 -0.0933
   41CHL1  H18C 2990   5.053   5.818   3.353  0.1080 -1.1903  0.3817
   41CHL1   C12 2991   4.768   5.826   3.147  0.2174  0.5319 -0.4875
   41CHL1  H12A 2992   4.724   5.753   3.218  2.3538  0.0169  0.3372
   41CHL1  H12B 2993   4.706   5.909   3.106 -0.1765  0.2042 -0.5627
   41CHL1   C11 2994   4.823   5.741   3.028 -0.4984  0.0055 -0.5809
   41CHL1  H11A 2995   4.856   5.639   3.057 -0.1702  0.2748  0.0014
   41CHL1  H11B 2996   4.736   5.725   2.961 -0.7497  1.0557 -0.5148
   41CHL1    C9 2997   4.946   5.810   2.947  0.9265 -0.0359  0.8704
   41CHL1    H9 2998   4.886   5.889   2.896  0.4843 -1.7409 -1.3216
   41CHL1   C10 2999   5.007   5.716   2.835  0.4314 -0.0206 -0.5698
   41CHL1   C19 3000   5.080   5.601   2.894 -0.8920  0.1621  0.4057
   41CHL1  H19A 3001   5.153   5.635   2.971 -0.5810 -1.0519  0.6629
   41CHL1  H19B 3002   5.027   5.528   2.958  1.7637 -0.8916  1.4979
   41CHL1  H19C 3003   5.143   5.542   2.824 -0.1999 -1.4145  2.2931
   41CHL1    C1 3004   4.886   5.660   2.755  0.1042 -0.6406 -0.5341
   41CHL1   H1A 3005   4.841   5.582   2.820 -0.9379 -0.7997 -1.4264
   41CHL1   H1B 3006   4.806   5.735   2.733 -0.6047 -0.5802  2.1591
   41CHL1    C2 3007   4.921   5.604   2.613 -0.0175  0.4627  0.0322
   41CHL1   H2A 3008   4.824   5.581   2.564  0.3894 -0.9445 -0.1493
   41CHL1   H2B 3009   4.976   5.508   2.629  0.0285  0.8257  2.1630
   41CHL1   C20 3010   4.784   5.942   3.457 -0.7242  0.0165  0.0557
   41CHL1   H20 3011   4.800   5.833   3.477  0.1252 -0.2290 -1.8454
   41CHL1   C21 3012   4.627   5.963   3.445  0.1160  0.4762 -0.4966
   41CHL1  H21A 3013   4.574   5.903   3.522 -1.6572  1.8735 -0.5869
   41CHL1  H21B 3014   4.595   5.929   3.344 -0.4943 -2.4553  0.6296
   41CHL1  H21C 3015   4.603   6.070   3.458  0.2793  0.4633 -0.0540
   41CHL1   C22 3016   4.826   6.010   3.587 -0.3450 -0.2442 -0.9065
   41CHL1  H22A 3017   4.867   6.113   3.577  0.4032 -0.4380  0.1014
   41CHL1  H22B 3018   4.736   6.024   3.651  1.6975  1.2581  1.7555
   41CHL1   C23 3019   4.918   5.923   3.678  0.3120  0.4264 -0.5376
   41CHL1  H23A 3020   5.011   5.899   3.622  2.0092 -0.3887  2.5052
   41CHL1  H23B 3021   4.943   5.981   3.770 -2.2534 -2.1249  1.8928
   41CHL1   C24 3022   4.845   5.802   3.747 -0.1500  0.4762  0.9803
   41CHL1  H24A 3023   4.757   5.835   3.807  0.1791  2.2682  0.5111
   41CHL1  H24B 3024   4.799   5.730   3.677  1.2312 -1.4139  1.9529
   41CHL1   C25 3025   4.939   5.727   3.840 -0.0480 -0.2701  0.0229
   41CHL1   H25 3026   4.980   5.813   3.897 -1.2192  0.2690  0.0600
   41CHL1   C26 3027   4.856   5.640   3.932  0.5898  0.2040 -0.5287
   41CHL1  H26A 3028   4.798   5.558   3.885 -0.7128  0.9345 -0.2525
   41CHL1  H26B 3029   4.909   5.586   4.013 -1.2873 -1.2085 -0.1792
   41CHL1  H26C 3030   4.792   5.710   3.991 -3.1821 -3.3749 -0.0997
   41CHL1   C27 3031   5.051   5.652   3.769  0.1567  0.3585 -0.2345
   41CHL1  H27A 3032   5.000   5.568   3.717  0.6350 -0.4489  0.5883
   41CHL1  H27B 3033   5.101   5.713   3.690 -2.0465  0.4213 -1.6285
   41CHL1  H27C 3034   5.131   5.627   3.842 -0.3468  0.4700  0.3574
   42CHL1    C3 3035   5.996   5.061   2.488  0.3423  0.2046 -0.2730
   42CHL1    H3 3036   6.041   5.162   2.502  0.6922 -0.1753  1.4009
   42CHL1    O3 3037   5.962   5.036   2.348  0.0392  0.1836  0.1226
   42CHL1   H3' 3038   5.876   5.077   2.339  0.3421  0.8969  0.3954
   42CHL1    C4 3039   6.104   4.958   2.525 -0.4898  0.0200  0.3961
   42CHL1   H4A 3040   6.082   4.855   2.491  1.5532 -0.5885  0.8715
   42CHL1   H4B 3041   6.197   4.980   2.469  0.9997 -2.8195  1.6585
   42CHL1    C5 3042   6.130   4.967   2.675 -0.4244 -0.1583 -0.9878
   42CHL1    C6 3043   6.255   4.982   2.723 -0.4905 -1.0635  0.5425
   42CHL1    H6 3044   6.340   4.982   2.654 -0.6940  4.3603  0.0838
   42CHL1    C7 3045   6.290   4.993   2.868 -0.2182  0.5228 -1.4651
   42CHL1   H7A 3046   6.372   4.922   2.892 -2.1528 -0.4938  2.6120
   42CHL1   H7B 3047   6.314   5.101   2.880  1.4956  0.3453 -2.9959
   42CHL1    C8 3048   6.173   4.956   2.958  0.0773 -0.1469  0.5162
   42CHL1    H8 3049   6.163   4.846   2.946  0.6332  0.1139 -3.1361
   42CHL1   C14 3050   6.201   5.002   3.097 -0.0688  0.0053  0.2762
   42CHL1   H14 3051   6.216   5.112   3.093  0.1637 -0.0853 -3.5647
   42CHL1   C15 3052   6.337   4.951   3.151 -0.1952  0.5927  0.0821
   42CHL1  H15A 3053   6.335   4.842   3.129 -0.9557  0.5246  0.4548
   42CHL1  H15B 3054   6.427   5.002   3.111 -0.3684  0.0342 -1.0491
   42CHL1   C16 3055   6.326   4.979   3.304 -0.8239 -0.1967  0.3198
   42CHL1  H16A 3056   6.358   4.892   3.366  0.2224 -1.7821 -2.3570
   42CHL1  H16B 3057   6.393   5.068   3.312 -0.9887  0.0480 -0.9778
   42CHL1   C17 3058   6.175   5.019   3.328 -0.0638  0.5701  0.1097
   42CHL1   H17 3059   6.172   5.130   3.331  0.6962  0.6158 -0.8048
   42CHL1   C13 3060   6.097   4.971   3.206  0.1865 -0.8125 -0.4018
   42CHL1   C18 3061   6.059   4.819   3.220 -0.5102 -0.0600  0.4897
   42CHL1  H18A 3062   6.020   4.773   3.126 -0.5070  1.7771 -0.4467
   42CHL1  H18B 3063   6.156   4.771   3.246  0.3290  1.4148  0.1325
   42CHL1  H18C 3064   5.978   4.800   3.293 -1.0182  1.0127  0.2164
   42CHL1   C12 3065   5.962   5.049   3.167 -0.6493  0.1026 -0.5680
   42CHL1  H12A 3066   5.885   5.002   3.231  2.0684 -1.8781  1.3877
   42CHL1  H12B 3067   5.972   5.157   3.190  0.7125  0.1189 -1.2006
   42CHL1   C11 3068   5.927   5.027   3.023 -0.8733  0.3472  0.9209
   42CHL1  H11A 3069   5.866   4.935   3.017  2.0442 -1.7936  2.7781
   42CHL1  H11B 3070   5.853   5.103   2.988  0.9252  1.9231  0.4386
   42CHL1    C9 3071   6.049   5.024   2.919 -0.5396 -0.7158 -0.1233
   42CHL1    H9 3072   6.080   5.131   2.919 -1.9266 -0.2802  1.7607
   42CHL1   C10 3073   6.006   4.985   2.776  0.6129  0.3158  0.2668
   42CHL1   C19 3074   5.941   4.838   2.771 -0.0486 -0.5647 -0.5063
   42CHL1  H19A 3075   5.840   4.834   2.816 -1.2950  0.9054 -3.0635
   42CHL1  H19B 3076   5.939   4.802   2.666 -2.4493  0.6427 -0.9079
   42CHL1  H19C 3077   6.022   4.776   2.814  0.1081  1.2798  1.9784
   42CHL1    C1 3078   5.898   5.086   2.723 -0.2321 -0.4044 -0.0651
   42CHL1   H1A 3079   5.805   5.088   2.785 -0.2090 -0.0444 -0.0405
   42CHL1   H1B 3080   5.942   5.188   2.733 -1.2402 -0.0456  0.9178
   42CHL1    C2 3081   5.867   5.069   2.576 -0.1597 -0.0282 -0.0602
   42CHL1   H2A 3082   5.820   5.162   2.539 -3.1106 -1.4978 -0.1686
   42CHL1   H2B 3083   5.791   4.989   2.564 -1.4622  1.3578 -1.2544
   42CHL1   C20 3084   6.131   4.989   3.474 -0.2092 -1.0980 -0.3804
   42CHL1   H20 3085   6.136   4.879   3.485  0.9475 -1.3613 -3.2353
   42CHL1   C21 3086   5.982   5.030   3.502 -0.6737 -0.5021 -0.2094
   42CHL1  H21A 3087   5.958   5.011   3.608 -2.2332  1.2203 -0.2236
   42CHL1  H21B 3088   5.922   4.961   3.439  0.0545  1.7856 -3.5672
   42CHL1  H21C 3089   5.963   5.139   3.486  1.1299 -0.4058 -1.9538
   42CHL1   C22 3090   6.230   5.045   3.579  0.7089 -0.5930 -0.2422
   42CHL1  H22A 3091   6.335   5.016   3.559  0.7117  0.5885 -2.0832
   42CHL1  H22B 3092   6.221   5.155   3.575 -1.2751 -0.7480 -0.5487
   42CHL1   C23 3093   6.202   4.980   3.719  0.2597  0.3804 -0.2674
   42CHL1  H23A 3094   6.106   5.019   3.760  1.1996  1.7792  0.6523
   42CHL1  H23B 3095   6.191   4.870   3.715 -2.4149  0.4956  2.3481
   42CHL1   C24 3096   6.318   5.010   3.819  0.6775  0.1555  0.5558
   42CHL1  H24A 3097   6.412   4.952   3.809 -1.4208 -3.3873  0.4098
   42CHL1  H24B 3098   6.342   5.118   3.804 -0.3186  0.3531  0.2937
   42CHL1   C25 3099   6.289   4.996   3.969 -0.1289 -0.2636 -0.0331
   42CHL1   H25 3100   6.218   5.076   4.001 -2.1058 -1.1875 -1.9939
   42CHL1   C26 3101   6.215   4.864   3.991  0.0960  0.1154  0.0202
   42CHL1  H26A 3102   6.276   4.773   3.974  0.4685  0.3689 -0.0050
   42CHL1  H26B 3103   6.184   4.852   4.097 -0.9470 -2.4605 -0.5374
   42CHL1  H26C 3104   6.121   4.859   3.932  0.4889 -1.9144 -0.4741
   42CHL1   C27 3105   6.412   4.995   4.057 -0.2375 -0.6228  0.2803
   42CHL1  H27A 3106   6.472   5.088   4.044 -1.4522  0.2211  0.6723
   42CHL1  H27B 3107   6.384   4.974   4.162 -0.0142 -0.6809  0.3273
   42CHL1  H27C 3108   6.477   4.911   4.025 -0.5327 -0.5692 -0.4840
   43CHL1    C3 3109   2.319   5.744   2.601  0.4477  0.2760 -0.0079
   43CHL1    H3 3110   2.240   5.677   2.641  1.0349  0.0865  0.8244
   43CHL1    O3 3111   2.321   5.752   2.456  0.4526 -0.6500  0.3269
   43CHL1   H3' 3112   2.355   5.666   2.429  0.0211 -1.3572  1.9188
   43CHL1    C4 3113   2.290   5.886   2.657 -0.0296  0.3555 -0.0393
   43CHL1   H4A 3114   2.356   5.960   2.607  0.7175 -1.5105 -1.8694
   43CHL1   H4B 3115   2.189   5.922   2.626  0.1556 -0.1404 -1.2652
   43CHL1    C5 3116   2.305   5.890   2.810  0.1587 -0.0651  0.1637
   43CHL1    C6 3117   2.202   5.920   2.893  0.0198 -0.0354 -0.8278
   43CHL1    H6 3118   2.107   5.954   2.850 -0.4652  0.3056  0.4881
   43CHL1    C7 3119   2.221   5.933   3.045 -0.2770  0.2853  0.6556
   43CHL1   H7A 3120   2.168   6.027   3.075  0.1732  0.5482  0.6271
   43CHL1   H7B 3121   2.171   5.848   3.097 -1.1213 -0.6642 -1.6478
   43CHL1    C8 3122   2.366   5.939   3.091 -0.2605 -0.3790 -0.1457
   43CHL1    H8 3123   2.409   6.040   3.072 -2.6634  0.7776  0.4082
   43CHL1   C14 3124   2.372   5.917   3.239  0.2180 -0.1770  0.6829
   43CHL1   H14 3125   2.338   5.812   3.252  0.2892 -0.2884 -0.0220
   43CHL1   C15 3126   2.275   6.008   3.328 -0.4607  0.3665 -0.4314
   43CHL1  H15A 3127   2.286   6.115   3.300  0.9053  0.5727  0.8375
   43CHL1  H15B 3128   2.165   5.995   3.320 -0.3911 -1.0142  0.7409
   43CHL1   C16 3129   2.325   5.985   3.473  0.2306  0.1232 -0.2943
   43CHL1  H16A 3130   2.336   6.085   3.521 -1.1871 -0.7000  1.7908
   43CHL1  H16B 3131   2.262   5.923   3.540  0.8476 -0.4695 -0.2604
   43CHL1   C17 3132   2.466   5.917   3.460 -0.3244  0.6172  0.7433
   43CHL1   H17 3133   2.448   5.809   3.474 -2.5906  1.0291  1.1693
   43CHL1   C13 3134   2.504   5.933   3.301  0.4742  0.1089 -0.3869
   43CHL1   C18 3135   2.561   6.074   3.279 -0.3681  0.1212 -0.5793
   43CHL1  H18A 3136   2.494   6.153   3.319 -2.0910 -1.8474  0.5165
   43CHL1  H18B 3137   2.654   6.075   3.340 -2.6519 -2.6061  3.1864
   43CHL1  H18C 3138   2.578   6.091   3.170  0.2270  0.1266 -0.4872
   43CHL1   C12 3139   2.602   5.824   3.244  0.2911 -0.0763 -0.8109
   43CHL1  H12A 3140   2.705   5.832   3.284  0.8873 -0.4317 -2.2585
   43CHL1  H12B 3141   2.556   5.723   3.258 -1.9194  1.2691  2.1125
   43CHL1   C11 3142   2.604   5.839   3.092  0.2019  0.0296  0.5267
   43CHL1  H11A 3143   2.667   5.928   3.071  1.7126 -1.0880  0.2943
   43CHL1  H11B 3144   2.666   5.756   3.053  1.9049  0.5823  2.0091
   43CHL1    C9 3145   2.459   5.838   3.023  0.6094  0.1366 -0.8912
   43CHL1    H9 3146   2.414   5.739   3.049  1.8719  0.5074  3.0440
   43CHL1   C10 3147   2.446   5.848   2.867 -0.3667  0.5763  0.1055
   43CHL1   C19 3148   2.551   5.950   2.824  0.0550  0.3771 -0.0429
   43CHL1  H19A 3149   2.650   5.899   2.818 -0.0099  0.2728 -0.2116
   43CHL1  H19B 3150   2.530   5.993   2.724  1.6260 -1.2853 -1.1128
   43CHL1  H19C 3151   2.548   6.026   2.905  0.9100  0.1287  0.2280
   43CHL1    C1 3152   2.481   5.712   2.804 -0.7007  0.2640  0.9640
   43CHL1   H1A 3153   2.584   5.684   2.833 -0.6582 -1.9010 -1.1361
   43CHL1   H1B 3154   2.415   5.632   2.845 -0.3773  0.1619  1.2921
   43CHL1    C2 3155   2.454   5.704   2.651 -0.5362  0.6947 -0.2642
   43CHL1   H2A 3156   2.470   5.600   2.615  1.4826  0.5423  1.0048
   43CHL1   H2B 3157   2.522   5.778   2.606  0.1012  0.3785  0.1688
   43CHL1   C20 3158   2.564   5.969   3.577 -0.2470  0.1743 -0.4295
   43CHL1   H20 3159   2.583   6.078   3.567 -2.5062  0.9265  2.8257
   43CHL1   C21 3160   2.705   5.905   3.559 -0.6581 -0.0197 -0.5975
   43CHL1  H21A 3161   2.769   5.943   3.476  0.9506  0.1116  0.6684
   43CHL1  H21B 3162   2.696   5.795   3.546 -1.4650 -0.1666  1.2034
   43CHL1  H21C 3163   2.763   5.927   3.651 -1.8177  1.4560 -0.2068
   43CHL1   C22 3164   2.495   5.957   3.722 -0.0196  0.8725 -0.6013
   43CHL1  H22A 3165   2.393   6.000   3.731  0.2721  1.8636 -1.9278
   43CHL1  H22B 3166   2.475   5.849   3.737  2.3305  0.7122  1.7149
   43CHL1   C23 3167   2.588   6.014   3.832  0.2277 -0.1979  0.3028
   43CHL1  H23A 3168   2.694   5.982   3.821  0.8267  1.3086  1.4986
   43CHL1  H23B 3169   2.595   6.124   3.814 -0.6949  0.2181  2.3066
   43CHL1   C24 3170   2.549   5.995   3.977 -0.9966  0.0486 -0.1692
   43CHL1  H24A 3171   2.607   6.074   4.028 -1.0546  1.1068 -1.7157
   43CHL1  H24B 3172   2.440   6.018   3.982 -0.8921  0.1173  2.1306
   43CHL1   C25 3173   2.562   5.856   4.031 -0.3484 -0.2831  0.8508
   43CHL1   H25 3174   2.480   5.802   3.978 -1.2676  2.9686 -1.1451
   43CHL1   C26 3175   2.691   5.791   4.015 -0.7013 -0.8536 -0.1346
   43CHL1  H26A 3176   2.704   5.774   3.906  0.4484  1.1319 -0.3263
   43CHL1  H26B 3177   2.772   5.863   4.038 -1.7058  0.5241 -0.8641
   43CHL1  H26C 3178   2.690   5.697   4.075  2.0369 -0.0791  1.2017
   43CHL1   C27 3179   2.533   5.855   4.179 -0.6434  0.2516 -0.1489
   43CHL1  H27A 3180   2.428   5.887   4.198 -0.5249 -0.0962  1.1319
   43CHL1  H27B 3181   2.538   5.750   4.213  0.3883  0.1510 -0.6003
   43CHL1  H27C 3182   2.599   5.919   4.241 -0.2848 -0.3735  0.1146
   44CHL1    C3 3183   5.957   5.631   2.532  0.3523  0.5968  0.4184
   44CHL1    H3 3184   5.894   5.719   2.555 -1.3573 -0.7245  0.8839
   44CHL1    O3 3185   5.999   5.606   2.400 -0.4212  0.3106 -0.2534
   44CHL1   H3' 3186   6.071   5.544   2.405  0.3187  1.2083  0.5402
   44CHL1    C4 3187   6.082   5.655   2.619 -0.6278  0.9624  0.2949
   44CHL1   H4A 3188   6.165   5.584   2.599 -0.7929  0.3661  1.7123
   44CHL1   H4B 3189   6.127   5.743   2.568 -0.4444 -0.0561 -1.3378
   44CHL1    C5 3190   6.044   5.658   2.766 -0.5091  0.3371 -0.3710
   44CHL1    C6 3191   6.076   5.771   2.837 -0.3247 -0.2955  0.5477
   44CHL1    H6 3192   6.138   5.843   2.782  0.0122 -1.4493 -0.6180
   44CHL1    C7 3193   6.046   5.793   2.982 -0.1709 -0.0618  0.0337
   44CHL1   H7A 3194   6.137   5.839   3.027 -0.9221  2.1797 -0.6386
   44CHL1   H7B 3195   5.954   5.853   2.998  1.2120  1.4387  2.7239
   44CHL1    C8 3196   6.033   5.654   3.052 -0.2935 -0.0740 -0.1422
   44CHL1    H8 3197   6.132   5.605   3.066 -0.5816 -0.9593 -1.1533
   44CHL1   C14 3198   5.977   5.686   3.193 -0.7900  0.0676  0.5056
   44CHL1   H14 3199   5.891   5.748   3.159 -2.4771 -2.5628 -0.1817
   44CHL1   C15 3200   6.061   5.778   3.285 -0.9476  0.2778  0.2750
   44CHL1  H15A 3201   6.160   5.732   3.303 -1.6263 -1.3228 -0.0040
   44CHL1  H15B 3202   6.066   5.886   3.261  1.0928  0.3207  0.7830
   44CHL1   C16 3203   5.975   5.768   3.417  0.6207 -0.1847  1.0620
   44CHL1  H16A 3204   6.031   5.750   3.511  2.1959 -0.2979  0.1191
   44CHL1  H16B 3205   5.912   5.853   3.451  0.5547 -0.9040  2.7719
   44CHL1   C17 3206   5.872   5.645   3.396  0.1400 -1.0436 -0.0026
   44CHL1   H17 3207   5.773   5.685   3.368 -0.0745 -1.6491 -0.1138
   44CHL1   C13 3208   5.928   5.566   3.275  0.4117  0.6451  0.5605
   44CHL1   C18 3209   6.043   5.481   3.316  0.5531 -0.3846  0.7083
   44CHL1  H18A 3210   6.122   5.534   3.374  1.8844 -1.3336 -0.2045
   44CHL1  H18B 3211   6.003   5.398   3.377 -0.4465 -2.2806 -2.3778
   44CHL1  H18C 3212   6.094   5.432   3.230 -1.5394  0.2743 -0.9664
   44CHL1   C12 3213   5.817   5.494   3.191  0.5997  0.2150  0.4475
   44CHL1  H12A 3214   5.804   5.398   3.246  1.9300  0.4347  1.1925
   44CHL1  H12B 3215   5.725   5.554   3.185 -0.4852 -1.5188 -0.6836
   44CHL1   C11 3216   5.878   5.450   3.059  0.9413 -0.7271 -1.1072
   44CHL1  H11A 3217   5.953   5.369   3.067  1.5622 -0.0389  0.0085
   44CHL1  H11B 3218   5.788   5.400   3.015 -0.3444  1.0150 -0.5079
   44CHL1    C9 3219   5.929   5.566   2.973 -0.3380  0.0915  0.3222
   44CHL1    H9 3220   5.844   5.634   2.950  0.0398  0.1731 -0.8793
   44CHL1   C10 3221   5.981   5.529   2.826  0.0818  0.6143 -0.2092
   44CHL1   C19 3222   6.076   5.416   2.838 -0.7032  1.2801 -0.1545
   44CHL1  H19A 3223   6.159   5.450   2.903 -0.3531 -1.3573  0.8270
   44CHL1  H19B 3224   6.042   5.317   2.874 -1.4997  2.1047  1.4276
   44CHL1  H19C 3225   6.126   5.405   2.740  0.9662  0.1431  0.8095
   44CHL1    C1 3226   5.856   5.500   2.742 -0.1786  0.3315  0.5545
   44CHL1   H1A 3227   5.810   5.401   2.763  0.3511 -0.1582 -0.5532
   44CHL1   H1B 3228   5.783   5.583   2.749 -0.6387 -0.0934  0.7820
   44CHL1    C2 3229   5.890   5.500   2.585  0.4770 -0.3119  0.1638
   44CHL1   H2A 3230   5.805   5.473   2.519  1.2713 -3.9454  0.4971
   44CHL1   H2B 3231   5.962   5.416   2.569  2.9464  2.1167 -2.1006
   44CHL1   C20 3232   5.841   5.565   3.530 -0.2033 -0.4346  1.3771
   44CHL1   H20 3233   5.928   5.504   3.561  2.1951  2.4472  0.5210
   44CHL1   C21 3234   5.723   5.465   3.511 -0.1021 -0.1583 -0.4307
   44CHL1  H21A 3235   5.754   5.386   3.439 -0.8839 -0.8752  0.0006
   44CHL1  H21B 3236   5.633   5.506   3.460 -0.9724 -0.0411  1.1656
   44CHL1  H21C 3237   5.686   5.419   3.606 -0.4147  0.2732 -0.3402
   44CHL1   C22 3238   5.807   5.656   3.656  0.1833  0.4434 -0.3971
   44CHL1  H22A 3239   5.879   5.739   3.674 -0.7929  1.3259 -0.5537
   44CHL1  H22B 3240   5.709   5.691   3.618 -0.7590 -0.0166  1.5840
   44CHL1   C23 3241   5.792   5.579   3.788 -0.1273 -0.1065  0.6842
   44CHL1  H23A 3242   5.716   5.499   3.798 -2.0033  1.6702  0.8632
   44CHL1  H23B 3243   5.894   5.537   3.804  0.8233  1.6103 -0.7074
   44CHL1   C24 3244   5.770   5.667   3.913 -0.5818 -0.2305 -0.0474
   44CHL1  H24A 3245   5.832   5.758   3.903 -1.4087  0.3333 -0.0874
   44CHL1  H24B 3246   5.666   5.706   3.917  0.2595  2.2043 -1.0519
   44CHL1   C25 3247   5.810   5.600   4.050 -0.0304 -0.1769  0.4698
   44CHL1   H25 3248   5.799   5.673   4.134 -3.0248  0.9165 -0.8034
   44CHL1   C26 3249   5.718   5.471   4.072 -0.4587  0.1714 -0.0438
   44CHL1  H26A 3250   5.611   5.503   4.079 -0.3696  0.2626  1.0744
   44CHL1  H26B 3251   5.735   5.393   3.996  1.9772  0.5098  0.1186
   44CHL1  H26C 3252   5.739   5.431   4.173 -0.1396 -2.6111 -1.1882
   44CHL1   C27 3253   5.960   5.562   4.053 -0.1741 -0.1464  0.4314
   44CHL1  H27A 3254   5.997   5.528   4.152  0.2244 -0.1920  0.2650
   44CHL1  H27B 3255   5.959   5.469   3.992 -1.4196 -0.0760  0.3302
   44CHL1  H27C 3256   6.037   5.634   4.018 -1.3315  0.6954 -0.4267
   45CHL1    C3 3257   1.111   4.862   2.608  0.7241  0.2427  0.3984
   45CHL1    H3 3258   1.139   4.792   2.690  0.6819  0.5550  0.6797
   45CHL1    O3 3259   1.099   4.789   2.487  0.0485 -0.1224  0.2330
   45CHL1   H3' 3260   1.187   4.771   2.453 -0.1799 -3.1311  1.0961
   45CHL1    C4 3261   0.975   4.934   2.639 -0.7202 -1.1725  0.2828
   45CHL1   H4A 3262   0.937   5.002   2.560 -0.6840 -1.3260  0.1331
   45CHL1   H4B 3263   0.907   4.847   2.645 -0.8603 -1.2047 -1.5359
   45CHL1    C5 3264   0.978   5.018   2.770 -0.5316  0.4404  0.8873
   45CHL1    C6 3265   0.903   4.986   2.878  0.1202 -0.5338  0.2489
   45CHL1    H6 3266   0.837   4.901   2.857 -0.5453  0.2670 -1.0435
   45CHL1    C7 3267   0.911   5.067   3.001 -0.4971  0.5469  0.3808
   45CHL1   H7A 3268   0.810   5.083   3.046 -0.5763  0.6283  0.1745
   45CHL1   H7B 3269   0.979   5.009   3.067 -0.8381 -0.5675 -0.2307
   45CHL1    C8 3270   0.970   5.209   2.967 -0.0272  0.3504 -0.3306
   45CHL1    H8 3271   0.903   5.271   2.903 -0.5569 -0.1245 -0.2392
   45CHL1   C14 3272   1.003   5.276   3.101  0.3351 -0.2501  0.1746
   45CHL1   H14 3273   1.070   5.207   3.157  0.4256 -0.2060  0.1215
   45CHL1   C15 3274   0.874   5.293   3.190  0.4653  0.0248  0.2330
   45CHL1  H15A 3275   0.790   5.324   3.125  2.1741  1.4409 -1.3628
   45CHL1  H15B 3276   0.841   5.201   3.244 -0.2992 -0.9640 -1.8926
   45CHL1   C16 3277   0.913   5.397   3.288  0.4486  0.2095 -0.1068
   45CHL1  H16A 3278   0.841   5.481   3.279 -0.5301 -0.6206 -0.1811
   45CHL1  H16B 3279   0.919   5.359   3.393 -1.1231 -0.3638 -0.1950
   45CHL1   C17 3280   1.055   5.462   3.244 -0.1581  0.4952 -0.7238
   45CHL1   H17 3281   1.116   5.390   3.302 -1.2757  1.5923  1.8908
   45CHL1   C13 3282   1.071   5.412   3.093  0.2958 -0.8900 -0.4288
   45CHL1   C18 3283   0.989   5.510   3.012 -0.2297 -0.2091  0.0622
   45CHL1  H18A 3284   0.977   5.480   2.906  0.0556 -0.1510  0.0117
   45CHL1  H18B 3285   0.890   5.525   3.059  0.3913  0.2332  1.2564
   45CHL1  H18C 3286   1.046   5.605   3.014 -1.1722  0.3840 -1.1233
   45CHL1   C12 3287   1.209   5.391   3.029 -0.7158 -0.0151  0.7875
   45CHL1  H12A 3288   1.271   5.483   3.022 -0.6201 -0.0461  1.2123
   45CHL1  H12B 3289   1.267   5.320   3.092  0.2396 -1.2926 -1.4508
   45CHL1   C11 3290   1.198   5.326   2.893  0.2117  0.2270 -0.0505
   45CHL1  H11A 3291   1.154   5.410   2.836  2.0912  1.4764  0.2751
   45CHL1  H11B 3292   1.298   5.307   2.847  0.2773  0.4033  0.0211
   45CHL1    C9 3293   1.107   5.197   2.895 -0.6102 -0.2421  0.1590
   45CHL1    H9 3294   1.166   5.122   2.952  1.1347  1.0520  0.0930
   45CHL1   C10 3295   1.089   5.123   2.757  0.2474  0.7100  0.1214
   45CHL1   C19 3296   1.033   5.236   2.664  0.3559  0.1500  0.3277
   45CHL1  H19A 3297   1.113   5.313   2.653  1.1566 -0.9313 -1.7012
   45CHL1  H19B 3298   1.023   5.193   2.562  1.6895  2.7151 -0.9414
   45CHL1  H19C 3299   0.939   5.287   2.694 -0.6095  0.0694 -2.4035
   45CHL1    C1 3300   1.231   5.075   2.712 -0.7656  0.0282 -0.3817
   45CHL1   H1A 3301   1.293   5.164   2.690 -0.7860 -0.0898 -0.9256
   45CHL1   H1B 3302   1.286   5.022   2.792 -0.4809 -1.8486 -1.7684
   45CHL1    C2 3303   1.219   4.971   2.594 -0.3183  0.1264 -0.5224
   45CHL1   H2A 3304   1.319   4.928   2.571  0.4960  0.5821  2.0218
   45CHL1   H2B 3305   1.190   5.028   2.503 -1.3890 -0.5898 -0.6333
   45CHL1   C20 3306   1.083   5.601   3.290  0.0830 -0.9624 -0.2031
   45CHL1   H20 3307   1.024   5.672   3.227  1.4393 -1.0000 -1.5303
   45CHL1   C21 3308   1.234   5.630   3.263  0.1370  0.3427  0.5563
   45CHL1  H21A 3309   1.294   5.551   3.313 -0.5146  0.4363  1.4938
   45CHL1  H21B 3310   1.260   5.727   3.309  0.5868 -0.0729  1.1789
   45CHL1  H21C 3311   1.264   5.645   3.157  1.4713 -2.0643  0.5544
   45CHL1   C22 3312   1.058   5.634   3.438  0.0080  0.1014 -0.1195
   45CHL1  H22A 3313   0.960   5.596   3.473  0.8261 -1.7743  0.2160
   45CHL1  H22B 3314   1.137   5.582   3.497 -2.7129 -1.3857  2.3301
   45CHL1   C23 3315   1.080   5.783   3.477  0.8210 -0.1242  0.1559
   45CHL1  H23A 3316   1.182   5.819   3.456  0.7777 -1.1169 -1.8507
   45CHL1  H23B 3317   1.016   5.835   3.403 -0.1501 -1.1168  0.2760
   45CHL1   C24 3318   1.033   5.809   3.616 -0.1046  0.2566  0.6043
   45CHL1  H24A 3319   1.027   5.918   3.636  0.4197  0.5961 -0.9689
   45CHL1  H24B 3320   0.938   5.763   3.649 -0.8158  1.3124  0.0389
   45CHL1   C25 3321   1.125   5.738   3.724 -0.1665  0.6569  0.6212
   45CHL1   H25 3322   1.102   5.630   3.717 -3.0343  1.3008 -0.7845
   45CHL1   C26 3323   1.277   5.762   3.700  0.0140 -0.2256 -0.5138
   45CHL1  H26A 3324   1.331   5.727   3.791  1.0299 -0.2677 -1.1253
   45CHL1  H26B 3325   1.322   5.706   3.615 -1.5093  0.8756 -2.0766
   45CHL1  H26C 3326   1.299   5.871   3.691  2.4824 -0.6698 -0.2337
   45CHL1   C27 3327   1.089   5.795   3.863  0.2856  0.0439 -0.3286
   45CHL1  H27A 3328   1.126   5.728   3.943 -1.7876 -0.5046  0.2070
   45CHL1  H27B 3329   1.121   5.901   3.872 -1.0012  0.3680  0.5447
   45CHL1  H27C 3330   0.978   5.801   3.864  0.3014  0.3519 -0.4189
   46CHL1    C3 3331   4.974   6.336   2.513 -0.4105 -0.2287  0.1014
   46CHL1    H3 3332   4.876   6.357   2.465 -0.0193  1.7982  0.1536
   46CHL1    O3 3333   5.061   6.302   2.403  0.4494  0.0497  0.1409
   46CHL1   H3' 3334   5.125   6.235   2.427 -0.8415 -2.0461 -2.1557
   46CHL1    C4 3335   5.030   6.463   2.578  0.4510 -0.3451 -0.3409
   46CHL1   H4A 3336   5.136   6.451   2.611 -0.4358 -1.9324  1.9632
   46CHL1   H4B 3337   5.010   6.539   2.499 -1.5301 -3.2221 -2.6981
   46CHL1    C5 3338   4.951   6.500   2.704 -0.3933  0.0169  0.2904
   46CHL1    C6 3339   4.902   6.626   2.719 -0.9022 -0.5525  0.1377
   46CHL1    H6 3340   4.915   6.706   2.645  1.5910 -0.4699  0.6258
   46CHL1    C7 3341   4.825   6.666   2.838  0.4341  0.6735  0.0014
   46CHL1   H7A 3342   4.851   6.767   2.877 -1.4607  0.5048  1.7553
   46CHL1   H7B 3343   4.716   6.653   2.820  0.4581 -2.1025  1.6205
   46CHL1    C8 3344   4.850   6.562   2.950  0.1493  0.1503  0.8320
   46CHL1    H8 3345   4.957   6.582   2.967  0.1001  0.8784  0.3046
   46CHL1   C14 3346   4.753   6.589   3.077  0.2651 -0.3739  0.4614
   46CHL1   H14 3347   4.651   6.605   3.034  0.6376 -0.6849 -0.5640
   46CHL1   C15 3348   4.770   6.731   3.140 -0.8899 -0.2168  0.3104
   46CHL1  H15A 3349   4.877   6.744   3.168 -0.8594  1.4228 -0.4542
   46CHL1  H15B 3350   4.739   6.816   3.075  0.3928 -0.8894 -1.2245
   46CHL1   C16 3351   4.691   6.707   3.268 -0.1741  0.2412 -0.2028
   46CHL1  H16A 3352   4.741   6.761   3.351  2.9225 -1.1552 -1.1154
   46CHL1  H16B 3353   4.592   6.757   3.255 -1.1375 -1.5709 -0.0054
   46CHL1   C17 3354   4.675   6.560   3.298 -0.3724  0.4371 -0.3121
   46CHL1   H17 3355   4.573   6.533   3.263  0.9593 -0.5189 -3.6438
   46CHL1   C13 3356   4.768   6.488   3.184 -0.7225 -0.1966 -0.0669
   46CHL1   C18 3357   4.914   6.481   3.237  1.0185  0.4573 -0.4081
   46CHL1  H18A 3358   4.987   6.471   3.154 -0.6113  0.6049 -1.8782
   46CHL1  H18B 3359   4.919   6.581   3.287  2.0517 -0.8588  2.2350
   46CHL1  H18C 3360   4.915   6.402   3.315 -1.8470  0.0158 -0.7879
   46CHL1   C12 3361   4.721   6.353   3.128  0.1961 -0.2017  0.3127
   46CHL1  H12A 3362   4.709   6.270   3.201  1.3502 -0.3781  0.3093
   46CHL1  H12B 3363   4.621   6.377   3.085  0.8803 -1.2086 -1.8729
   46CHL1   C11 3364   4.802   6.310   3.015 -0.0072 -0.2166 -0.6156
   46CHL1  H11A 3365   4.901   6.303   3.064 -0.9719 -1.0308  1.2673
   46CHL1  H11B 3366   4.766   6.210   2.982  1.2168 -0.8909  0.0788
   46CHL1    C9 3367   4.825   6.417   2.899 -0.0742  0.6906  0.1430
   46CHL1    H9 3368   4.726   6.426   2.850 -0.8874  0.6973  1.7364
   46CHL1   C10 3369   4.934   6.384   2.800 -0.0438  0.4939  0.1644
   46CHL1   C19 3370   5.071   6.358   2.866  0.2584 -0.0065  0.0684
   46CHL1  H19A 3371   5.143   6.307   2.799 -2.9723 -2.4024 -1.6999
   46CHL1  H19B 3372   5.120   6.451   2.902 -2.5225  0.5309  2.6828
   46CHL1  H19C 3373   5.061   6.275   2.939 -1.6990 -0.1117 -0.2853
   46CHL1    C1 3374   4.885   6.261   2.725  0.1836  0.7256 -0.8742
   46CHL1   H1A 3375   4.876   6.173   2.793  1.6243  0.5924 -0.8372
   46CHL1   H1B 3376   4.782   6.286   2.691  0.4613  0.0962 -2.1690
   46CHL1    C2 3377   4.970   6.218   2.607  0.3588  0.4574  0.1700
   46CHL1   H2A 3378   4.931   6.122   2.566  0.7115  0.3669  0.0482
   46CHL1   H2B 3379   5.071   6.201   2.649 -0.0816 -1.1106  0.6365
   46CHL1   C20 3380   4.690   6.521   3.444  0.1376 -0.2700  0.2876
   46CHL1   H20 3381   4.788   6.565   3.474  1.5245 -1.9576 -1.6516
   46CHL1   C21 3382   4.682   6.367   3.465 -0.3162 -0.1929  0.3254
   46CHL1  H21A 3383   4.576   6.335   3.455 -0.5890  1.3623 -2.2241
   46CHL1  H21B 3384   4.701   6.350   3.573 -0.2801 -4.0351 -0.2031
   46CHL1  H21C 3385   4.762   6.309   3.413 -0.7875 -0.4858 -0.0843
   46CHL1   C22 3386   4.595   6.604   3.531 -0.1495 -0.2674 -0.5404
   46CHL1  H22A 3387   4.603   6.573   3.638 -1.7920  2.4336  0.4112
   46CHL1  H22B 3388   4.631   6.709   3.537 -0.1384 -0.3586  1.3404
   46CHL1   C23 3389   4.441   6.603   3.500  0.2440  0.1448 -0.8326
   46CHL1  H23A 3390   4.422   6.635   3.396  1.6598 -0.3605 -1.2599
   46CHL1  H23B 3391   4.390   6.506   3.518  1.4075  0.1090  2.7514
   46CHL1   C24 3392   4.360   6.700   3.591  0.3619  0.7907  0.2072
   46CHL1  H24A 3393   4.392   6.678   3.696 -1.7570 -2.8927  0.1467
   46CHL1  H24B 3394   4.391   6.805   3.570 -1.8713  1.1369 -1.4820
   46CHL1   C25 3395   4.204   6.687   3.583 -0.3014 -1.0378 -0.3167
   46CHL1   H25 3396   4.171   6.593   3.634  1.1202 -0.8297  1.0339
   46CHL1   C26 3397   4.138   6.785   3.675 -0.1834 -0.0180  0.1282
   46CHL1  H26A 3398   4.136   6.889   3.637 -1.6583  0.0395  0.3001
   46CHL1  H26B 3399   4.035   6.753   3.704 -1.4437  2.4015 -1.4954
   46CHL1  H26C 3400   4.193   6.800   3.770 -1.3353  0.5358  0.7210
   46CHL1   C27 3401   4.150   6.688   3.442  0.1116  0.1447 -0.7578
   46CHL1  H27A 3402   4.189   6.775   3.384 -1.5649  0.3724 -1.5683
   46CHL1  H27B 3403   4.187   6.596   3.392 -0.2293  0.1835 -1.0796
   46CHL1  H27C 3404   4.039   6.690   3.444  0.1093  1.9438 -1.6058
   47CHL1    C3 3405   1.326   1.230   2.528 -0.0636  0.0095  0.5911
   47CHL1    H3 3406   1.215   1.231   2.534 -0.1503 -3.0451 -0.1324
   47CHL1    O3 3407   1.360   1.165   2.400 -0.1991  0.1465 -0.3657
   47CHL1   H3' 3408   1.454   1.148   2.397  0.4181  2.6055  2.5622
   47CHL1    C4 3409   1.387   1.379   2.528 -0.2025  0.1282  0.5425
   47CHL1   H4A 3410   1.496   1.362   2.514 -0.6750 -1.2093 -1.8331
   47CHL1   H4B 3411   1.355   1.428   2.434 -1.2970  0.3816  1.0399
   47CHL1    C5 3412   1.360   1.445   2.663 -0.0755  0.1996  0.3164
   47CHL1    C6 3413   1.296   1.559   2.661 -0.1164 -0.5352  0.0416
   47CHL1    H6 3414   1.279   1.604   2.562  0.2764 -0.1139  0.1642
   47CHL1    C7 3415   1.252   1.624   2.790 -0.4542 -0.5105 -0.5135
   47CHL1   H7A 3416   1.260   1.734   2.782  0.7160 -0.5177  0.6072
   47CHL1   H7B 3417   1.147   1.603   2.822 -0.3302  3.4672  2.8035
   47CHL1    C8 3418   1.339   1.584   2.909 -0.3033 -0.8587 -0.0499
   47CHL1    H8 3419   1.439   1.629   2.897 -1.3053  1.1346 -1.1352
   47CHL1   C14 3420   1.282   1.645   3.035 -0.4313 -0.2515 -0.1944
   47CHL1   H14 3421   1.177   1.609   3.036 -0.1251 -1.1300  0.2608
   47CHL1   C15 3422   1.278   1.797   3.037 -0.4345  0.6639 -0.2361
   47CHL1  H15A 3423   1.368   1.845   2.991 -0.4574  1.9457  1.0348
   47CHL1  H15B 3424   1.191   1.835   2.979 -2.8661 -0.4816  2.5615
   47CHL1   C16 3425   1.260   1.821   3.188 -0.0193 -0.4230  0.7706
   47CHL1  H16A 3426   1.339   1.889   3.225 -0.5970 -0.9487  3.0367
   47CHL1  H16B 3427   1.157   1.859   3.207 -0.6255 -1.4536 -0.4055
   47CHL1   C17 3428   1.267   1.685   3.264 -0.2052 -0.4864  0.2220
   47CHL1   H17 3429   1.161   1.652   3.272  0.1639 -1.7753 -0.1416
   47CHL1   C13 3430   1.337   1.594   3.166 -0.7837 -0.0347  0.2253
   47CHL1   C18 3431   1.486   1.624   3.178 -0.0196 -0.0948 -0.3645
   47CHL1  H18A 3432   1.525   1.573   3.268 -0.5095 -0.5403 -0.4057
   47CHL1  H18B 3433   1.535   1.594   3.083  0.1820  0.6694 -0.5108
   47CHL1  H18C 3434   1.497   1.735   3.187  0.9476 -0.2556  0.4678
   47CHL1   C12 3435   1.311   1.442   3.168 -1.0276  0.4581 -0.2853
   47CHL1  H12A 3436   1.353   1.398   3.261 -0.6936 -0.4228 -0.8432
   47CHL1  H12B 3437   1.202   1.421   3.169 -0.9747 -0.1188 -2.5306
   47CHL1   C11 3438   1.370   1.366   3.053 -0.2440 -0.6939 -0.7110
   47CHL1  H11A 3439   1.481   1.362   3.063 -0.1245  0.9799 -1.1522
   47CHL1  H11B 3440   1.334   1.261   3.050  0.6663 -0.9757 -2.5516
   47CHL1    C9 3441   1.338   1.432   2.917  0.5242 -0.4214  0.3093
   47CHL1    H9 3442   1.229   1.415   2.912  0.2937  1.0555  0.2969
   47CHL1   C10 3443   1.387   1.364   2.785 -0.3853  0.1378  0.1517
   47CHL1   C19 3444   1.542   1.353   2.806  0.6322  0.0915 -0.2242
   47CHL1  H19A 3445   1.583   1.455   2.822 -0.5450  0.5138  0.1814
   47CHL1  H19B 3446   1.563   1.278   2.885  1.7065 -0.6360 -1.1837
   47CHL1  H19C 3447   1.585   1.324   2.708  0.0937  1.8631 -1.0167
   47CHL1    C1 3448   1.329   1.220   2.777  0.2593 -0.3143 -0.5205
   47CHL1   H1A 3449   1.367   1.153   2.858 -3.0017 -2.9804 -1.1041
   47CHL1   H1B 3450   1.219   1.219   2.784  0.2400 -1.2157 -0.9313
   47CHL1    C2 3451   1.370   1.143   2.641 -0.3381 -0.0195  0.7439
   47CHL1   H2A 3452   1.306   1.052   2.641 -1.1436  0.5287  2.9363
   47CHL1   H2B 3453   1.479   1.122   2.638 -0.0812  1.2913  0.6438
   47CHL1   C20 3454   1.319   1.698   3.411 -1.0420  0.1380 -0.4198
   47CHL1   H20 3455   1.424   1.735   3.407 -0.7373 -0.9376 -3.0849
   47CHL1   C21 3456   1.319   1.557   3.485  0.0672 -1.0156  0.0367
   47CHL1  H21A 3457   1.344   1.576   3.592 -0.4911  1.3845 -0.2232
   47CHL1  H21B 3458   1.390   1.489   3.433 -1.1959 -1.6443 -0.8637
   47CHL1  H21C 3459   1.222   1.505   3.498 -1.6827  2.2750  0.8151
   47CHL1   C22 3460   1.227   1.799   3.490  0.3426  0.4354  0.0214
   47CHL1  H22A 3461   1.220   1.892   3.430  3.7859  0.6819 -0.1112
   47CHL1  H22B 3462   1.123   1.761   3.490  0.3876  0.2889  1.1431
   47CHL1   C23 3463   1.273   1.836   3.632 -0.4499  0.2683  1.0155
   47CHL1  H23A 3464   1.266   1.739   3.685  0.8193 -1.2038 -1.4239
   47CHL1  H23B 3465   1.379   1.868   3.628  0.5104 -2.9178 -2.0151
   47CHL1   C24 3466   1.179   1.933   3.700 -0.1896 -0.1867 -0.5496
   47CHL1  H24A 3467   1.154   2.010   3.623  1.2795 -1.2599 -2.1378
   47CHL1  H24B 3468   1.092   1.868   3.720 -0.6922  0.4347 -0.7082
   47CHL1   C25 3469   1.238   2.005   3.818 -0.7726 -0.0434 -0.2024
   47CHL1   H25 3470   1.332   2.059   3.793 -1.3244  0.7454 -0.5820
   47CHL1   C26 3471   1.131   2.097   3.867  0.1875  0.2638 -0.1025
   47CHL1  H26A 3472   1.048   2.031   3.899  1.0303 -0.0478  1.5437
   47CHL1  H26B 3473   1.178   2.141   3.958  1.0117 -2.1200  0.6667
   47CHL1  H26C 3474   1.104   2.177   3.794  0.2037  0.8627  0.5362
   47CHL1   C27 3475   1.274   1.925   3.946 -0.3069 -0.4224  0.7083
   47CHL1  H27A 3476   1.349   1.852   3.908 -1.2728 -0.2498 -1.5576
   47CHL1  H27B 3477   1.318   1.996   4.019  0.7724  0.1458 -0.4892
   47CHL1  H27C 3478   1.190   1.881   4.005 -1.5667  0.3148 -0.5269
   48CHL1    C3 3479   6.891   2.604   2.541  0.1174 -0.9748 -0.0129
   48CHL1    H3 3480   6.782   2.583   2.535  0.5085 -2.6279 -1.4112
   48CHL1    O3 3481   6.950   2.668   2.427 -0.5312  0.1430  0.4710
   48CHL1   H3' 3482   6.894   2.745   2.416  1.8898  1.9144  0.3763
   48CHL1    C4 3483   6.918   2.688   2.663 -0.0744 -0.0133  0.1427
   48CHL1   H4A 3484   7.026   2.712   2.663 -0.3575  1.3596  1.6880
   48CHL1   H4B 3485   6.867   2.785   2.650 -1.6791 -0.3522  3.2470
   48CHL1    C5 3486   6.880   2.637   2.807 -0.6370  0.7100 -0.0261
   48CHL1    C6 3487   6.796   2.700   2.888  0.0012 -0.6125 -0.8511
   48CHL1    H6 3488   6.758   2.801   2.865 -1.7630 -1.4081 -1.4453
   48CHL1    C7 3489   6.748   2.639   3.018 -0.7963 -1.1925  0.1152
   48CHL1   H7A 3490   6.754   2.721   3.092 -2.0952 -0.0958 -0.9719
   48CHL1   H7B 3491   6.639   2.622   3.010 -1.4306  2.9442 -1.6064
   48CHL1    C8 3492   6.826   2.517   3.068  1.0553  0.4081 -0.3279
   48CHL1    H8 3493   6.922   2.557   3.107  0.0868  1.9122  0.5805
   48CHL1   C14 3494   6.758   2.440   3.179 -0.3680 -0.0005 -0.5395
   48CHL1   H14 3495   6.661   2.409   3.134 -0.5753 -0.7418  0.4055
   48CHL1   C15 3496   6.730   2.517   3.316 -0.2066 -0.1131 -0.2680
   48CHL1  H15A 3497   6.812   2.589   3.338 -1.9281  2.2056 -1.3098
   48CHL1  H15B 3498   6.644   2.587   3.315 -0.8431 -0.8460  1.2552
   48CHL1   C16 3499   6.704   2.401   3.417 -0.6003 -0.3092  0.9037
   48CHL1  H16A 3500   6.771   2.414   3.504  0.0551  0.8932  0.2378
   48CHL1  H16B 3501   6.597   2.409   3.446 -1.0661 -0.0816 -0.8093
   48CHL1   C17 3502   6.728   2.273   3.335  0.3669 -0.7366 -0.2348
   48CHL1   H17 3503   6.630   2.257   3.284 -0.4840  1.3587  0.6542
   48CHL1   C13 3504   6.829   2.313   3.225  0.0239 -0.4466 -0.7318
   48CHL1   C18 3505   6.964   2.347   3.294 -0.6031 -0.4033  0.3914
   48CHL1  H18A 3506   6.963   2.414   3.382 -3.2342  1.9118 -1.3151
   48CHL1  H18B 3507   7.022   2.259   3.330  0.9698  1.4058  2.4095
   48CHL1  H18C 3508   7.025   2.392   3.212  0.4029 -0.1148  1.2782
   48CHL1   C12 3509   6.837   2.214   3.107 -0.0588 -0.5128 -0.1294
   48CHL1  H12A 3510   6.888   2.124   3.145  0.9058 -0.4615 -1.2826
   48CHL1  H12B 3511   6.736   2.186   3.070  0.3787 -0.9279 -1.0278
   48CHL1   C11 3512   6.910   2.280   2.990 -0.0402 -0.5222 -0.3884
   48CHL1  H11A 3513   7.014   2.288   3.028 -0.3414 -0.8333  0.4972
   48CHL1  H11B 3514   6.902   2.206   2.907 -1.3789 -1.0519  0.2148
   48CHL1    C9 3515   6.856   2.424   2.955  0.0796  0.2221  1.0990
   48CHL1    H9 3516   6.757   2.408   2.907  0.2567  3.4732 -0.4624
   48CHL1   C10 3517   6.937   2.493   2.836  0.6184 -0.2959 -0.2109
   48CHL1   C19 3518   7.087   2.508   2.877 -0.1751 -0.4174 -0.0396
   48CHL1  H19A 3519   7.158   2.551   2.803 -0.0866 -0.8234 -0.1894
   48CHL1  H19B 3520   7.103   2.561   2.974  0.6267  0.5017 -0.6580
   48CHL1  H19C 3521   7.138   2.415   2.908  2.7532  1.2658  0.4294
   48CHL1    C1 3522   6.940   2.402   2.707  0.2391  0.4800 -0.2524
   48CHL1   H1A 3523   7.020   2.328   2.726 -0.1575  0.4186  1.3143
   48CHL1   H1B 3524   6.842   2.349   2.704 -0.5489  1.9540 -0.8911
   48CHL1    C2 3525   6.961   2.469   2.574 -0.0149  0.9248 -0.0479
   48CHL1   H2A 3526   6.931   2.403   2.490  0.3971  3.0560 -1.9126
   48CHL1   H2B 3527   7.070   2.489   2.572 -0.1330  1.5204 -0.5626
   48CHL1   C20 3528   6.754   2.140   3.406  0.5517  0.0578  0.1191
   48CHL1   H20 3529   6.853   2.098   3.378 -0.0674 -1.4837  0.2107
   48CHL1   C21 3530   6.656   2.030   3.361  0.4474 -0.2424  0.0019
   48CHL1  H21A 3531   6.658   1.928   3.404  2.2874 -0.4427 -0.5174
   48CHL1  H21B 3532   6.687   2.012   3.256 -2.6287  1.2502 -1.2330
   48CHL1  H21C 3533   6.553   2.072   3.356  0.2158 -0.9031 -0.9503
   48CHL1   C22 3534   6.761   2.148   3.566  0.3009 -0.9084  0.2695
   48CHL1  H22A 3535   6.785   2.045   3.602  2.6451 -0.2674  0.5942
   48CHL1  H22B 3536   6.841   2.221   3.591 -1.1375  0.8520 -0.2123
   48CHL1   C23 3537   6.628   2.182   3.635 -0.0190 -0.7953 -0.0633
   48CHL1  H23A 3538   6.598   2.284   3.604 -0.4997 -0.5785  1.1056
   48CHL1  H23B 3539   6.548   2.123   3.584  0.7319 -0.7623 -1.3086
   48CHL1   C24 3540   6.614   2.153   3.787  0.3975 -0.6686 -0.0101
   48CHL1  H24A 3541   6.518   2.196   3.822  0.1897  0.7101 -2.2199
   48CHL1  H24B 3542   6.633   2.048   3.817  0.9706 -1.1582 -2.0113
   48CHL1   C25 3543   6.716   2.237   3.880 -0.2581 -0.3286 -0.1072
   48CHL1   H25 3544   6.818   2.213   3.844  0.8247 -1.1968  3.3810
   48CHL1   C26 3545   6.692   2.393   3.869 -0.2664  0.4980  0.1924
   48CHL1  H26A 3546   6.709   2.415   3.761 -1.8262 -1.4937 -0.5084
   48CHL1  H26B 3547   6.583   2.411   3.884 -0.1264  0.1386  1.6868
   48CHL1  H26C 3548   6.754   2.447   3.943 -0.3648  0.1084  0.5645
   48CHL1   C27 3549   6.710   2.180   4.016  0.2533  0.2467 -0.1898
   48CHL1  H27A 3550   6.777   2.235   4.085 -0.3041  0.6632  0.0208
   48CHL1  H27B 3551   6.609   2.186   4.061 -0.1367  0.3324 -1.0851
   48CHL1  H27C 3552   6.744   2.075   4.025 -1.5101 -0.3186  0.0343
   49CHL1    C3 3553   0.951   6.507   2.563 -0.5043 -0.0333  0.5716
   49CHL1    H3 3554   1.043   6.538   2.618  0.5768 -2.1427  0.0080
   49CHL1    O3 3555   0.964   6.541   2.424  0.1535  0.1718 -0.3529
   49CHL1   H3' 3556   0.874   6.535   2.389 -0.3737  0.3250  0.9629
   49CHL1    C4 3557   0.938   6.356   2.571 -0.2707  0.2317  0.3453
   49CHL1   H4A 3558   0.854   6.311   2.514 -0.4558 -1.2589  1.7275
   49CHL1   H4B 3559   1.034   6.323   2.526  0.9631  3.1405  0.7716
   49CHL1    C5 3560   0.909   6.311   2.712  0.4742  0.2286  0.4440
   49CHL1    C6 3561   0.977   6.201   2.757  0.3562  0.0681  0.4600
   49CHL1    H6 3562   1.040   6.146   2.686  1.1521  1.2314  0.2416
   49CHL1    C7 3563   0.955   6.141   2.891 -0.1539 -0.0587 -0.3503
   49CHL1   H7A 3564   0.933   6.032   2.886  1.9407 -0.5198 -0.0237
   49CHL1   H7B 3565   1.053   6.153   2.941 -0.7643  0.4280  0.7406
   49CHL1    C8 3566   0.841   6.202   2.974  0.2771 -0.4810  0.7600
   49CHL1    H8 3567   0.742   6.158   2.947 -0.4172  1.8703 -0.7376
   49CHL1   C14 3568   0.862   6.188   3.132 -0.2417 -0.6368 -0.1987
   49CHL1   H14 3569   0.948   6.256   3.149 -1.5265  0.8107  0.6080
   49CHL1   C15 3570   0.916   6.056   3.190  0.0080 -0.9306 -0.3954
   49CHL1  H15A 3571   0.846   5.975   3.162  0.3974 -0.6272 -2.2714
   49CHL1  H15B 3572   1.021   6.033   3.163 -0.1261 -1.3534 -0.5430
   49CHL1   C16 3573   0.906   6.085   3.337  0.2097  0.4551  0.1138
   49CHL1  H16A 3574   0.857   5.998   3.385  0.4402  0.3253  0.1131
   49CHL1  H16B 3575   1.003   6.114   3.381  0.0844 -1.1834  1.5160
   49CHL1   C17 3576   0.808   6.204   3.356 -0.0279 -0.6044  0.0301
   49CHL1   H17 3577   0.875   6.292   3.369 -1.7360  0.9030 -1.1371
   49CHL1   C13 3578   0.747   6.241   3.217 -0.6715  0.7398 -0.0144
   49CHL1   C18 3579   0.625   6.151   3.193 -0.2736 -0.0385  0.2951
   49CHL1  H18A 3580   0.585   6.157   3.090 -1.2883  0.6999  0.7247
   49CHL1  H18B 3581   0.654   6.046   3.215 -1.2945 -0.4961 -0.5272
   49CHL1  H18C 3582   0.552   6.169   3.275 -2.5838 -2.0780 -1.2471
   49CHL1   C12 3583   0.723   6.391   3.192  0.2688  0.0313  0.1873
   49CHL1  H12A 3584   0.629   6.420   3.244  0.5638 -0.2604  0.8802
   49CHL1  H12B 3585   0.806   6.454   3.229  0.5904 -0.2750 -0.0029
   49CHL1   C11 3586   0.714   6.421   3.038  0.4605  0.9156  0.2557
   49CHL1  H11A 3587   0.613   6.392   3.002  1.0611 -1.2477  0.2332
   49CHL1  H11B 3588   0.717   6.532   3.040 -0.3287  0.9539 -0.5121
   49CHL1    C9 3589   0.826   6.351   2.949  0.3753  0.4482 -0.5064
   49CHL1    H9 3590   0.923   6.401   2.966  0.5141 -0.7547  2.5417
   49CHL1   C10 3591   0.809   6.385   2.795  0.3341 -0.1365 -0.1049
   49CHL1   C19 3592   0.673   6.347   2.742 -0.2093 -0.0837  0.3214
   49CHL1  H19A 3593   0.595   6.407   2.794 -2.0272 -1.7460 -0.4397
   49CHL1  H19B 3594   0.650   6.372   2.636  0.6602 -0.5387  0.0141
   49CHL1  H19C 3595   0.654   6.241   2.770  0.2184 -0.3826 -0.5031
   49CHL1    C1 3596   0.822   6.531   2.775  0.6677 -0.5407 -0.1389
   49CHL1   H1A 3597   0.739   6.585   2.826  2.2282 -0.0657  1.9573
   49CHL1   H1B 3598   0.912   6.569   2.827 -0.4548 -0.9098  2.1290
   49CHL1    C2 3599   0.830   6.576   2.622 -0.5179 -0.1394  0.3012
   49CHL1   H2A 3600   0.847   6.686   2.624 -1.0770 -0.0097 -1.3378
   49CHL1   H2B 3601   0.746   6.548   2.555 -1.1621  1.2882  0.5075
   49CHL1   C20 3602   0.725   6.210   3.488 -0.1823 -0.0261 -0.1909
   49CHL1   H20 3603   0.661   6.120   3.495 -0.7115  0.4733  1.4557
   49CHL1   C21 3604   0.647   6.340   3.499  0.7726  0.6953 -0.9078
   49CHL1  H21A 3605   0.709   6.431   3.484 -1.3252  2.0287 -1.6216
   49CHL1  H21B 3606   0.600   6.338   3.600  2.4580 -0.2299 -0.1124
   49CHL1  H21C 3607   0.570   6.343   3.419  0.2069 -1.7946 -0.4875
   49CHL1   C22 3608   0.820   6.206   3.614 -0.3945  0.3224  0.9857
   49CHL1  H22A 3609   0.901   6.131   3.598  0.2932  1.2636 -0.0951
   49CHL1  H22B 3610   0.880   6.299   3.629  0.3293 -0.5357  3.6230
   49CHL1   C23 3611   0.755   6.169   3.754 -0.3361 -0.4773  0.0073
   49CHL1  H23A 3612   0.667   6.234   3.774  1.0292  1.6273 -0.5846
   49CHL1  H23B 3613   0.704   6.070   3.753 -0.9090 -0.1853  0.0661
   49CHL1   C24 3614   0.857   6.178   3.868  0.3164 -0.2479  0.2988
   49CHL1  H24A 3615   0.944   6.114   3.845 -1.2691 -1.2308 -3.3115
   49CHL1  H24B 3616   0.888   6.285   3.865  0.8063 -0.4123 -0.8709
   49CHL1   C25 3617   0.804   6.142   4.006 -0.3595  0.2817  0.2720
   49CHL1   H25 3618   0.717   6.203   4.039 -1.1696 -0.2799 -0.8036
   49CHL1   C26 3619   0.765   6.000   4.013  0.2742  0.1127  0.8028
   49CHL1  H26A 3620   0.693   5.964   3.937 -0.9641 -0.5267  2.2417
   49CHL1  H26B 3621   0.860   5.946   3.995  0.0532 -0.4542  1.3084
   49CHL1  H26C 3622   0.736   5.978   4.118 -1.7296 -0.9727  0.0639
   49CHL1   C27 3623   0.908   6.171   4.118 -0.5295 -0.4182  0.1847
   49CHL1  H27A 3624   0.989   6.097   4.132  0.8568  1.3261  1.7534
   49CHL1  H27B 3625   0.954   6.272   4.110  0.1710 -0.8147 -0.8080
   49CHL1  H27C 3626   0.852   6.173   4.214 -1.4772  1.2752 -0.3727
   50CHL1    C3 3627   5.305   6.934   2.505  0.1938 -0.7519 -0.6140
   50CHL1    H3 3628   5.236   7.016   2.535 -1.0946 -2.6878  1.8882
   50CHL1    O3 3629   5.330   6.942   2.370  0.1306  0.1245 -0.7691
   50CHL1   H3' 3630   5.248   6.922   2.325  0.5533 -1.1328 -0.9953
   50CHL1    C4 3631   5.440   6.953   2.577  0.1493  0.1389 -0.4413
   50CHL1   H4A 3632   5.524   6.888   2.547 -1.0994 -0.3729 -2.9578
   50CHL1   H4B 3633   5.469   7.056   2.547  0.1301  0.5014  0.7314
   50CHL1    C5 3634   5.406   6.958   2.726  0.5396 -0.1636  0.0507
   50CHL1    C6 3635   5.430   7.064   2.801 -0.7002  0.0970 -0.4742
   50CHL1    H6 3636   5.469   7.155   2.754 -2.5363  1.4028  0.4586
   50CHL1    C7 3637   5.386   7.080   2.944 -0.8492 -0.5186  0.6292
   50CHL1   H7A 3638   5.463   7.144   2.994 -0.7374 -0.1070 -0.0665
   50CHL1   H7B 3639   5.289   7.133   2.955 -1.3176 -1.3044  0.2955
   50CHL1    C8 3640   5.368   6.948   3.019 -0.4314 -0.0250 -0.0856
   50CHL1    H8 3641   5.469   6.902   3.024  0.3909  1.7735 -0.0195
   50CHL1   C14 3642   5.303   6.974   3.152  0.0558  0.3900 -0.0071
   50CHL1   H14 3643   5.202   7.009   3.120  1.0635  2.8504 -0.5551
   50CHL1   C15 3644   5.355   7.090   3.245 -0.4836 -0.8577  0.2698
   50CHL1  H15A 3645   5.463   7.083   3.271 -0.9172 -2.4224  1.7196
   50CHL1  H15B 3646   5.324   7.190   3.207  2.1543  0.4334  1.3361
   50CHL1   C16 3647   5.283   7.061   3.374  0.4549  0.0961  0.1151
   50CHL1  H16A 3648   5.350   7.075   3.462 -0.5073  1.2792  0.6707
   50CHL1  H16B 3649   5.201   7.135   3.383  1.9254  1.7831 -0.0104
   50CHL1   C17 3650   5.215   6.920   3.355  0.8603  0.1882  0.0627
   50CHL1   H17 3651   5.111   6.942   3.321  0.2870 -1.0106  0.9538
   50CHL1   C13 3652   5.287   6.857   3.239 -0.7309 -0.0341 -1.1156
   50CHL1   C18 3653   5.424   6.805   3.281 -0.2164 -0.5325 -0.0702
   50CHL1  H18A 3654   5.414   6.716   3.346 -1.1819 -2.0476 -2.2267
   50CHL1  H18B 3655   5.487   6.765   3.198  3.1401  1.5282  1.3607
   50CHL1  H18C 3656   5.480   6.880   3.341 -1.3682  2.6148 -2.7407
   50CHL1   C12 3657   5.212   6.743   3.157  0.9395 -0.2528  0.1014
   50CHL1  H12A 3658   5.208   6.643   3.205 -1.8647  0.5434  1.6359
   50CHL1  H12B 3659   5.105   6.775   3.160  1.6946  2.3483  0.5840
   50CHL1   C11 3660   5.263   6.713   3.017  0.0220  0.3054  0.5412
   50CHL1  H11A 3661   5.360   6.658   3.024  1.0536  1.9332 -0.6464
   50CHL1  H11B 3662   5.185   6.652   2.968  0.5831  1.1225 -1.3935
   50CHL1    C9 3663   5.290   6.843   2.936 -0.6316  0.6592  0.2068
   50CHL1    H9 3664   5.191   6.891   2.921 -1.6860 -0.9422  1.8622
   50CHL1   C10 3665   5.345   6.824   2.786 -0.0593 -0.5191  0.1158
   50CHL1   C19 3666   5.460   6.721   2.775 -0.1459  0.7395 -0.5858
   50CHL1  H19A 3667   5.415   6.621   2.796  1.8075  0.1757  1.0352
   50CHL1  H19B 3668   5.515   6.720   2.678  0.8200 -1.4124 -0.0492
   50CHL1  H19C 3669   5.542   6.743   2.847 -1.0304  0.9813  0.3471
   50CHL1    C1 3670   5.217   6.786   2.697  0.1006  0.4085 -0.3982
   50CHL1   H1A 3671   5.184   6.683   2.723 -0.0234  0.5203 -0.1075
   50CHL1   H1B 3672   5.128   6.851   2.715 -0.5264 -0.8341  1.0928
   50CHL1    C2 3673   5.247   6.793   2.548  0.0341 -0.3296  0.5957
   50CHL1   H2A 3674   5.149   6.780   2.498  0.2504  0.9978 -0.1711
   50CHL1   H2B 3675   5.315   6.709   2.521 -0.1175 -0.7682  1.5518
   50CHL1   C20 3676   5.206   6.853   3.489 -0.2947 -0.2021  0.2394
   50CHL1   H20 3677   5.308   6.824   3.521 -0.6345  1.6699  3.2683
   50CHL1   C21 3678   5.116   6.731   3.469 -0.2451 -0.0346  0.2175
   50CHL1  H21A 3679   5.167   6.652   3.411 -1.5543 -0.4775 -0.3354
   50CHL1  H21B 3680   5.030   6.758   3.404 -0.1604  0.6366  0.3769
   50CHL1  H21C 3681   5.086   6.695   3.570 -2.4469  0.3445 -0.2767
   50CHL1   C22 3682   5.161   6.938   3.613  0.3221 -0.0225  1.3088
   50CHL1  H22A 3683   5.159   7.047   3.593 -0.0328 -0.1057  0.8926
   50CHL1  H22B 3684   5.056   6.910   3.634  0.0336 -0.1630 -0.2508
   50CHL1   C23 3685   5.238   6.896   3.739  0.0093  0.8565  0.5230
   50CHL1  H23A 3686   5.183   6.918   3.833 -1.2168  0.7270 -0.1515
   50CHL1  H23B 3687   5.229   6.786   3.740  0.8271  0.7727  3.4678
   50CHL1   C24 3688   5.386   6.927   3.752  0.1136  0.2621 -0.1745
   50CHL1  H24A 3689   5.445   6.921   3.658 -0.0115 -0.0345 -0.2329
   50CHL1  H24B 3690   5.387   7.026   3.803 -0.8134 -0.0164  0.3847
   50CHL1   C25 3691   5.459   6.846   3.864 -0.5517 -0.0553  0.7767
   50CHL1   H25 3692   5.397   6.859   3.956 -2.8097  1.6270 -0.8943
   50CHL1   C26 3693   5.478   6.693   3.824 -0.7989 -0.3830 -0.0524
   50CHL1  H26A 3694   5.523   6.630   3.903 -1.7218 -1.9998 -0.7897
   50CHL1  H26B 3695   5.384   6.652   3.781 -1.4639  3.8943 -2.9709
   50CHL1  H26C 3696   5.554   6.696   3.742 -0.6747  0.6732  0.0947
   50CHL1   C27 3697   5.596   6.916   3.898  0.1257  0.0505  0.3384
   50CHL1  H27A 3698   5.651   6.897   3.804 -1.3664 -0.6032 -0.4082
   50CHL1  H27B 3699   5.587   7.020   3.936 -3.0845 -0.1114  0.1850
   50CHL1  H27C 3700   5.652   6.856   3.973  1.5699 -0.0326 -0.7875
   51CHL1    C3 3701   1.200   7.043   2.560 -0.3313  0.6657 -1.1219
   51CHL1    H3 3702   1.234   7.148   2.555  0.6379  0.2842 -3.0748
   51CHL1    O3 3703   1.186   6.990   2.431 -0.1528 -0.5705 -0.0458
   51CHL1   H3' 3704   1.180   6.895   2.445 -0.2444 -0.6743 -0.7926
   51CHL1    C4 3705   1.322   6.971   2.628  0.1160  0.6238  0.2340
   51CHL1   H4A 3706   1.305   6.863   2.611  2.5547  0.0790  1.1556
   51CHL1   H4B 3707   1.411   7.001   2.568 -0.1306 -1.0198 -0.9796
   51CHL1    C5 3708   1.343   6.994   2.775  0.0120  0.3004 -0.7172
   51CHL1    C6 3709   1.463   7.018   2.831 -0.2717 -0.5836  0.4314
   51CHL1    H6 3710   1.551   7.026   2.766  1.2739  0.1707  2.5470
   51CHL1    C7 3711   1.484   7.013   2.980 -0.1725 -0.5487 -0.4663
   51CHL1   H7A 3712   1.568   6.943   3.002 -1.6019 -2.7551 -1.8790
   51CHL1   H7B 3713   1.506   7.116   3.018 -0.7496 -1.4523  2.4801
   51CHL1    C8 3714   1.362   6.968   3.072  0.0275 -0.2557 -0.0989
   51CHL1    H8 3715   1.370   6.857   3.073 -3.1806 -0.5988 -3.0639
   51CHL1   C14 3716   1.374   7.029   3.214  0.2734  0.6162 -0.6503
   51CHL1   H14 3717   1.382   7.140   3.210 -2.0555  0.8892  1.3786
   51CHL1   C15 3718   1.505   6.994   3.291  0.0212 -0.2259  0.3614
   51CHL1  H15A 3719   1.512   6.883   3.296 -0.7714 -0.2469  1.1583
   51CHL1  H15B 3720   1.604   7.031   3.257 -0.5971  0.6849 -0.4799
   51CHL1   C16 3721   1.460   7.015   3.436 -0.4926 -0.2990  0.0019
   51CHL1  H16A 3722   1.480   6.931   3.506  0.7228  0.4498  0.5694
   51CHL1  H16B 3723   1.518   7.100   3.477 -1.0743  0.5643 -0.9433
   51CHL1   C17 3724   1.310   7.033   3.437  0.6080 -0.6289  0.0325
   51CHL1   H17 3725   1.288   7.142   3.437 -1.3671 -0.9957 -0.9520
   51CHL1   C13 3726   1.256   6.982   3.303 -0.5791 -0.4884 -0.9024
   51CHL1   C18 3727   1.252   6.832   3.312 -0.1892 -0.0915  0.5484
   51CHL1  H18A 3728   1.157   6.788   3.349  0.2571 -1.3684  0.1977
   51CHL1  H18B 3729   1.264   6.774   3.219  2.3784 -1.2724  1.5776
   51CHL1  H18C 3730   1.335   6.790   3.373  0.5737  0.9112  0.2223
   51CHL1   C12 3731   1.127   7.044   3.244  0.3066  0.0841 -1.0221
   51CHL1  H12A 3732   1.035   7.011   3.297 -0.2738  0.1031 -1.9942
   51CHL1  H12B 3733   1.147   7.154   3.242 -0.3113  0.1947 -1.5307
   51CHL1   C11 3734   1.116   7.005   3.093  0.0675  0.9727 -0.1756
   51CHL1  H11A 3735   1.078   6.901   3.089 -3.0674  2.0333  0.7568
   51CHL1  H11B 3736   1.022   7.057   3.064 -0.1084  0.7603  0.0206
   51CHL1    C9 3737   1.239   7.028   3.007 -0.1124  0.6640  0.6943
   51CHL1    H9 3738   1.261   7.136   3.017  2.3590  0.2223  0.4784
   51CHL1   C10 3739   1.216   6.990   2.855  0.6688 -0.1218  0.0600
   51CHL1   C19 3740   1.172   6.837   2.863 -0.5092  0.5679 -0.0492
   51CHL1  H19A 3741   1.196   6.794   2.763  0.1518 -1.4202  0.9569
   51CHL1  H19B 3742   1.237   6.786   2.937 -1.6932 -1.2482 -0.2502
   51CHL1  H19C 3743   1.064   6.842   2.888 -1.5426 -0.6915 -3.7858
   51CHL1    C1 3744   1.111   7.074   2.787  0.6064  0.0860 -0.1787
   51CHL1   H1A 3745   1.010   7.064   2.831 -0.1956  1.6376 -1.6618
   51CHL1   H1B 3746   1.126   7.183   2.797  3.4790  0.0470 -3.2528
   51CHL1    C2 3747   1.073   7.031   2.643 -0.4598  0.9922  0.3806
   51CHL1   H2A 3748   0.996   7.100   2.602 -0.2315  1.0930  0.1239
   51CHL1   H2B 3749   1.031   6.928   2.641  0.5212  0.6149 -1.4623
   51CHL1   C20 3750   1.242   6.988   3.569  0.3384 -0.3660  0.0571
   51CHL1   H20 3751   1.247   6.878   3.585  0.3963 -0.5944 -1.5436
   51CHL1   C21 3752   1.088   7.014   3.558  0.0042 -0.0723  0.4131
   51CHL1  H21A 3753   1.040   6.948   3.483  0.8727  1.1026 -1.2183
   51CHL1  H21B 3754   1.074   7.116   3.515  1.3013 -0.3883 -0.7754
   51CHL1  H21C 3755   1.042   7.005   3.659 -0.4748 -1.7987  0.0603
   51CHL1   C22 3756   1.304   7.044   3.698  0.3342 -0.6341 -0.1854
   51CHL1  H22A 3757   1.414   7.057   3.685  0.3811  0.5021  1.2398
   51CHL1  H22B 3758   1.259   7.142   3.726  0.0605 -1.1145  1.1011
   51CHL1   C23 3759   1.274   6.948   3.820 -0.2964  0.1640  0.3737
   51CHL1  H23A 3760   1.165   6.939   3.838 -0.5358 -0.0690 -1.1398
   51CHL1  H23B 3761   1.303   6.847   3.784  0.2576  0.3079  0.4077
   51CHL1   C24 3762   1.358   6.981   3.945  0.0463 -0.5771 -0.0571
   51CHL1  H24A 3763   1.467   6.969   3.923  0.1394 -1.2569  0.7380
   51CHL1  H24B 3764   1.344   7.090   3.964  0.0331 -0.3880 -1.1306
   51CHL1   C25 3765   1.335   6.896   4.071  0.5478 -0.5773  0.4383
   51CHL1   H25 3766   1.400   6.809   4.049  0.8053  0.2620 -2.2781
   51CHL1   C26 3767   1.391   6.962   4.198  0.2247  0.0471  0.0834
   51CHL1  H26A 3768   1.498   6.989   4.182 -0.0896  0.3972 -1.5277
   51CHL1  H26B 3769   1.335   7.056   4.217 -1.2416 -0.7109 -0.4920
   51CHL1  H26C 3770   1.387   6.903   4.292  1.5176  0.0173  0.1346
   51CHL1   C27 3771   1.186   6.867   4.084 -0.2328  0.9518  0.3288
   51CHL1  H27A 3772   1.144   6.809   3.999  0.4383 -1.3643  1.5478
   51CHL1  H27B 3773   1.171   6.792   4.164 -0.5228 -0.4989 -1.0677
   51CHL1  H27C 3774   1.137   6.965   4.103 -3.0741 -0.5966  1.2794
   52CHL1    C3 3775   6.729   0.600   2.568 -0.2071  0.2423  0.3373
   52CHL1    H3 3776   6.709   0.708   2.583  0.8261  0.3955  0.6480
   52CHL1    O3 3777   6.781   0.607   2.436  0.3140  0.2419  0.0901
   52CHL1   H3' 3778   6.792   0.515   2.410  1.2695  0.5133 -0.4608
   52CHL1    C4 3779   6.845   0.572   2.664  0.3363 -0.0761  0.0782
   52CHL1   H4A 3780   6.885   0.472   2.639  0.9294 -0.0157  0.7320
   52CHL1   H4B 3781   6.934   0.638   2.654 -0.7259  1.1762 -1.2958
   52CHL1    C5 3782   6.787   0.570   2.805  0.3752 -0.0781  0.2718
   52CHL1    C6 3783   6.843   0.647   2.902  0.5678  0.1408  0.4761
   52CHL1    H6 3784   6.935   0.706   2.888 -0.0064  0.4431 -2.0891
   52CHL1    C7 3785   6.809   0.638   3.047  0.1435 -0.4744 -0.5899
   52CHL1   H7A 3786   6.900   0.613   3.105  0.0742 -0.7735 -0.6043
   52CHL1   H7B 3787   6.761   0.728   3.090  1.9905  0.7330 -1.0065
   52CHL1    C8 3788   6.716   0.519   3.083 -0.3994  0.4739  1.0852
   52CHL1    H8 3789   6.784   0.432   3.073  0.0157  1.0725 -1.8313
   52CHL1   C14 3790   6.641   0.549   3.210  0.1773  0.3226 -0.2094
   52CHL1   H14 3791   6.572   0.628   3.175 -1.6481 -0.9428  0.4239
   52CHL1   C15 3792   6.723   0.607   3.334  0.5963  0.1055  0.1087
   52CHL1  H15A 3793   6.814   0.543   3.332 -0.4893 -1.5170  0.8983
   52CHL1  H15B 3794   6.739   0.716   3.326  0.6682  0.0868 -0.0008
   52CHL1   C16 3795   6.643   0.570   3.457  0.1959 -0.7129  0.5455
   52CHL1  H16A 3796   6.700   0.506   3.527  0.1835  1.8975  3.0196
   52CHL1  H16B 3797   6.616   0.661   3.515 -1.4667 -1.1908  0.5523
   52CHL1   C17 3798   6.524   0.489   3.395 -0.8575 -0.3782  0.7609
   52CHL1   H17 3799   6.444   0.563   3.371  0.1512  0.4064 -0.2248
   52CHL1   C13 3800   6.563   0.427   3.264 -0.0114 -0.3264  0.0749
   52CHL1   C18 3801   6.664   0.302   3.292  0.2099  0.0710 -0.1472
   52CHL1  H18A 3802   6.709   0.263   3.198 -0.0455  0.0633 -0.2651
   52CHL1  H18B 3803   6.747   0.338   3.357 -0.3237  1.4357 -0.1943
   52CHL1  H18C 3804   6.624   0.211   3.341 -0.6068 -0.6260 -2.0569
   52CHL1   C12 3805   6.455   0.393   3.163  0.4626 -0.4857  0.0138
   52CHL1  H12A 3806   6.388   0.320   3.214  0.6001  0.9853  2.3529
   52CHL1  H12B 3807   6.388   0.481   3.153 -3.0391 -3.0266  0.0937
   52CHL1   C11 3808   6.512   0.376   3.025  0.3250 -0.5173  0.2074
   52CHL1  H11A 3809   6.576   0.286   3.024  1.1597  0.0535  1.2620
   52CHL1  H11B 3810   6.428   0.361   2.953  0.3152 -0.3212  0.1781
   52CHL1    C9 3811   6.604   0.492   2.974  0.8732 -0.2454 -0.4498
   52CHL1    H9 3812   6.542   0.584   2.967 -0.4931 -1.0785  0.4294
   52CHL1   C10 3813   6.662   0.473   2.826  0.3453 -1.3118 -0.3086
   52CHL1   C19 3814   6.705   0.322   2.805 -0.0823 -0.3009  0.3105
   52CHL1  H19A 3815   6.614   0.261   2.789 -0.8444  1.2185 -1.2184
   52CHL1  H19B 3816   6.775   0.307   2.720  0.9501 -0.3027  1.1483
   52CHL1  H19C 3817   6.750   0.284   2.900  1.1445 -3.1943 -1.3503
   52CHL1    C1 3818   6.554   0.520   2.721  0.6479 -0.3450  0.5542
   52CHL1   H1A 3819   6.465   0.455   2.729  1.4134 -1.3195  1.4349
   52CHL1   H1B 3820   6.525   0.624   2.747 -2.0865 -1.7318  3.4765
   52CHL1    C2 3821   6.601   0.506   2.575 -0.5484 -0.3149 -0.2214
   52CHL1   H2A 3822   6.522   0.547   2.508  0.3479  2.1261  0.1959
   52CHL1   H2B 3823   6.631   0.407   2.534 -0.2559  0.3252 -1.5935
   52CHL1   C20 3824   6.442   0.386   3.491 -0.3413  0.1964 -0.8187
   52CHL1   H20 3825   6.399   0.299   3.438  1.3996 -0.8893 -0.4907
   52CHL1   C21 3826   6.338   0.481   3.551  0.6029  0.1418 -0.4412
   52CHL1  H21A 3827   6.396   0.549   3.617  0.9814 -0.4767 -0.1287
   52CHL1  H21B 3828   6.267   0.424   3.614  1.4865 -1.4845 -0.8957
   52CHL1  H21C 3829   6.274   0.536   3.478  0.0222  0.0335 -0.0132
   52CHL1   C22 3830   6.536   0.325   3.611  0.3638  0.1077 -0.8022
   52CHL1  H22A 3831   6.615   0.261   3.567  1.3010  1.0163 -0.4758
   52CHL1  H22B 3832   6.588   0.411   3.659  0.6796 -0.6239  0.1669
   52CHL1   C23 3833   6.457   0.249   3.714 -0.0808  0.0193  0.3450
   52CHL1  H23A 3834   6.369   0.307   3.750 -0.1322 -0.4778  1.0302
   52CHL1  H23B 3835   6.423   0.158   3.660 -0.2841  0.7026 -0.7103
   52CHL1   C24 3836   6.527   0.194   3.836 -0.8882 -0.6256  0.1352
   52CHL1  H24A 3837   6.611   0.125   3.814  0.6967  0.9825  0.8981
   52CHL1  H24B 3838   6.581   0.283   3.877 -1.5674 -0.7503  1.3320
   52CHL1   C25 3839   6.436   0.145   3.942  0.5914  0.4215  0.6667
   52CHL1   H25 3840   6.342   0.202   3.951  0.6834  0.8314 -0.9582
   52CHL1   C26 3841   6.402  -0.003   3.919 -0.5526 -0.3834  0.1916
   52CHL1  H26A 3842   6.487  -0.070   3.943 -1.0563 -0.7648  0.9390
   52CHL1  H26B 3843   6.319  -0.035   3.985 -1.6348 -2.7827 -2.2103
   52CHL1  H26C 3844   6.371  -0.017   3.813  3.0918  1.1366 -1.1583
   52CHL1   C27 3845   6.502   0.170   4.077  0.3925 -0.0772 -0.4669
   52CHL1  H27A 3846   6.525   0.276   4.100  2.2659 -0.5413 -0.0977
   52CHL1  H27B 3847   6.445   0.107   4.149 -2.1786  1.1304 -1.3978
   52CHL1  H27C 3848   6.604   0.126   4.067 -0.2789 -1.8450  0.3295
   53CHL1    C3 3849   1.813   7.189   2.435 -0.3729  0.2239 -1.3053
   53CHL1    H3 3850   1.714   7.239   2.422 -0.0053  1.1056 -0.6977
   53CHL1    O3 3851   1.860   7.125   2.317 -0.0301 -0.2687  0.0495
   53CHL1   H3' 3852   1.956   7.124   2.328 -0.1956 -1.3912  1.5869
   53CHL1    C4 3853   1.914   7.309   2.469 -0.6686  0.8524  0.6937
   53CHL1   H4A 3854   2.014   7.261   2.470  0.0676  2.3061 -0.8824
   53CHL1   H4B 3855   1.914   7.388   2.390 -0.2316 -0.2342 -0.3996
   53CHL1    C5 3856   1.901   7.356   2.615  0.2519  0.0927  0.0473
   53CHL1    C6 3857   1.908   7.483   2.648  0.6767  0.3947 -0.6508
   53CHL1    H6 3858   1.924   7.559   2.570  0.8537  0.0191 -0.9816
   53CHL1    C7 3859   1.914   7.542   2.783 -0.2619  0.4993 -0.1667
   53CHL1   H7A 3860   1.983   7.627   2.799  0.0606  0.9354 -3.4570
   53CHL1   H7B 3861   1.820   7.594   2.810 -0.4920 -0.9056  1.8776
   53CHL1    C8 3862   1.935   7.438   2.890 -0.0105  0.4034 -0.5176
   53CHL1    H8 3863   2.043   7.416   2.895 -0.5020 -1.9424  0.6454
   53CHL1   C14 3864   1.880   7.492   3.022 -0.2006 -0.3704 -0.0270
   53CHL1   H14 3865   1.770   7.504   3.010 -0.0064  0.5747 -0.9076
   53CHL1   C15 3866   1.931   7.629   3.060 -0.0708  0.3144  0.2078
   53CHL1  H15A 3867   2.039   7.644   3.039 -0.5226  1.3266 -1.4823
   53CHL1  H15B 3868   1.873   7.702   3.000 -0.5622 -2.3526 -2.6707
   53CHL1   C16 3869   1.904   7.636   3.213 -0.0499 -0.1552 -0.3652
   53CHL1  H16A 3870   1.993   7.679   3.265 -1.2057 -0.1737  1.6326
   53CHL1  H16B 3871   1.817   7.701   3.234 -0.8377 -1.1565 -0.5458
   53CHL1   C17 3872   1.866   7.498   3.263  0.5407  0.0249  0.9781
   53CHL1   H17 3873   1.755   7.497   3.270  0.5385  1.4872  1.3646
   53CHL1   C13 3874   1.904   7.407   3.146  0.1380 -0.5786 -0.8541
   53CHL1   C18 3875   2.056   7.370   3.162  0.0463  0.3759 -0.1676
   53CHL1  H18A 3876   2.122   7.459   3.152 -0.2575  0.4996 -1.1487
   53CHL1  H18B 3877   2.070   7.317   3.259  1.4245 -0.8229 -1.0089
   53CHL1  H18C 3878   2.089   7.305   3.078 -1.0334 -0.5742  0.1257
   53CHL1   C12 3879   1.819   7.279   3.117 -0.0872 -0.0664 -0.3936
   53CHL1  H12A 3880   1.829   7.207   3.201 -1.8564  1.7415  1.4117
   53CHL1  H12B 3881   1.711   7.304   3.116 -0.1955 -0.3359  1.7534
   53CHL1   C11 3882   1.847   7.207   2.989  0.5651 -0.4710 -0.2688
   53CHL1  H11A 3883   1.939   7.147   3.004  0.7669 -0.2098 -0.4583
   53CHL1  H11B 3884   1.770   7.131   2.966  0.6120  0.2912 -3.2234
   53CHL1    C9 3885   1.852   7.306   2.869  0.7378  0.3310 -0.1501
   53CHL1    H9 3886   1.750   7.350   2.864  0.7130  0.3658  0.5069
   53CHL1   C10 3887   1.893   7.250   2.728 -0.3399 -1.0091 -0.5302
   53CHL1   C19 3888   2.026   7.172   2.745 -0.3325  0.6390 -0.5522
   53CHL1  H19A 3889   2.090   7.224   2.819 -0.5827 -0.0187  0.1286
   53CHL1  H19B 3890   2.012   7.081   2.808  1.7580  0.0342 -0.9143
   53CHL1  H19C 3891   2.079   7.156   2.648 -0.3249  0.3556 -0.5036
   53CHL1    C1 3892   1.791   7.147   2.691  0.3607  0.4498  0.4424
   53CHL1   H1A 3893   1.798   7.065   2.765 -1.0420  0.4872  0.6318
   53CHL1   H1B 3894   1.694   7.201   2.684  0.3316  0.2050 -1.3011
   53CHL1    C2 3895   1.811   7.085   2.548 -0.4849 -0.2127 -0.5904
   53CHL1   H2A 3896   1.744   6.999   2.528 -2.8284  0.9258  2.0958
   53CHL1   H2B 3897   1.913   7.040   2.540 -0.9358 -1.3627  0.0976
   53CHL1   C20 3898   1.907   7.471   3.408 -0.1366  0.3230  0.4482
   53CHL1   H20 3899   2.015   7.460   3.427 -0.0852 -1.8881 -0.8697
   53CHL1   C21 3900   1.837   7.333   3.455  0.1655  0.0184  0.1572
   53CHL1  H21A 3901   1.726   7.334   3.460  0.1486  1.6228 -0.2891
   53CHL1  H21B 3902   1.857   7.295   3.557 -1.6277 -0.8857  0.1869
   53CHL1  H21C 3903   1.873   7.247   3.394 -0.6738  0.2564 -0.6888
   53CHL1   C22 3904   1.857   7.584   3.496  0.1410  0.8445 -0.0362
   53CHL1  H22A 3905   1.902   7.682   3.468 -1.9684  1.7476 -0.3613
   53CHL1  H22B 3906   1.748   7.599   3.478  0.4282  1.2739 -1.4480
   53CHL1   C23 3907   1.890   7.563   3.641  0.6253  0.0667 -0.4290
   53CHL1  H23A 3908   1.825   7.484   3.683  0.6552  0.8555  1.1276
   53CHL1  H23B 3909   1.995   7.530   3.649  0.2505 -0.8384  0.7425
   53CHL1   C24 3910   1.869   7.701   3.723 -0.1367  0.0939  0.9448
   53CHL1  H24A 3911   1.915   7.782   3.661 -0.9415 -0.1260  0.0488
   53CHL1  H24B 3912   1.760   7.720   3.732 -0.1146 -0.2191  1.9695
   53CHL1   C25 3913   1.933   7.702   3.865 -0.0144 -0.0560 -0.0720
   53CHL1   H25 3914   2.032   7.653   3.869  0.7592  1.5364  0.4220
   53CHL1   C26 3915   1.949   7.841   3.927 -0.1967  0.2889 -0.1519
   53CHL1  H26A 3916   1.990   7.833   4.030 -0.0811 -1.7521 -0.3367
   53CHL1  H26B 3917   2.024   7.888   3.860 -0.8752 -0.2371 -1.2987
   53CHL1  H26C 3918   1.848   7.886   3.917 -0.3284 -0.4691 -2.4845
   53CHL1   C27 3919   1.849   7.610   3.962 -0.4469  0.3894 -0.1346
   53CHL1  H27A 3920   1.746   7.649   3.975 -0.7203 -1.1836  2.8887
   53CHL1  H27B 3921   1.851   7.504   3.927  0.0373  1.4753 -3.5877
   53CHL1  H27C 3922   1.887   7.617   4.066  0.7659 -0.2513 -0.5229
   54CHL1    C3 3923   0.415   6.942   2.565  0.8453  0.0515  0.0191
   54CHL1    H3 3924   0.435   7.048   2.590 -1.6260  0.4623  0.4458
   54CHL1    O3 3925   0.389   6.930   2.429  0.3497  0.3154 -0.1689
   54CHL1   H3' 3926   0.347   7.014   2.408 -1.2107 -0.2272  0.6878
   54CHL1    C4 3927   0.529   6.860   2.601  0.3761 -0.1764 -0.3619
   54CHL1   H4A 3928   0.505   6.754   2.574 -2.7342  0.9045 -2.1933
   54CHL1   H4B 3929   0.622   6.883   2.545 -0.0814 -1.6565 -1.7881
   54CHL1    C5 3930   0.556   6.866   2.748  0.4022 -0.1702  0.8251
   54CHL1    C6 3931   0.678   6.912   2.782 -0.6764  0.2189 -0.1287
   54CHL1    H6 3932   0.752   6.928   2.702  0.5675 -3.0255  0.2983
   54CHL1    C7 3933   0.717   6.924   2.922  0.3667 -0.5659  0.3754
   54CHL1   H7A 3934   0.821   6.884   2.931  0.6416 -1.1442 -4.1233
   54CHL1   H7B 3935   0.712   7.033   2.947  1.8414 -0.7395  1.5292
   54CHL1    C8 3936   0.618   6.847   3.018 -0.1628  0.3765  0.5933
   54CHL1    H8 3937   0.646   6.739   3.013  0.7343  0.5931  0.7419
   54CHL1   C14 3938   0.651   6.897   3.164  0.7443 -0.8689 -0.3466
   54CHL1   H14 3939   0.640   7.008   3.165  0.2783 -0.9097 -0.6024
   54CHL1   C15 3940   0.792   6.880   3.220 -0.3355 -0.2713  0.2862
   54CHL1  H15A 3941   0.832   6.782   3.187  1.4171 -0.0610  1.7087
   54CHL1  H15B 3942   0.856   6.961   3.177 -0.4950 -1.4092 -2.1522
   54CHL1   C16 3943   0.772   6.905   3.370 -0.0491 -0.2514 -0.5885
   54CHL1  H16A 3944   0.846   6.837   3.418 -0.0702 -0.9074 -1.4819
   54CHL1  H16B 3945   0.812   7.003   3.404 -2.9262  0.8018 -0.1079
   54CHL1   C17 3946   0.617   6.916   3.392  0.3221  0.1934 -0.6734
   54CHL1   H17 3947   0.596   7.025   3.387 -2.5972 -0.4093 -2.3194
   54CHL1   C13 3948   0.550   6.850   3.267  0.1353 -0.0287 -0.5826
   54CHL1   C18 3949   0.561   6.705   3.288 -0.2840  0.8813 -0.1301
   54CHL1  H18A 3950   0.561   6.654   3.190 -0.6483  1.9106 -0.6774
   54CHL1  H18B 3951   0.656   6.681   3.340 -0.3680 -1.5672 -1.0424
   54CHL1  H18C 3952   0.481   6.656   3.347  0.2926  2.0304  1.6689
   54CHL1   C12 3953   0.408   6.895   3.233 -1.1634  0.5636  0.2008
   54CHL1  H12A 3954   0.348   6.856   3.318 -1.5831  1.0389  0.1277
   54CHL1  H12B 3955   0.410   7.005   3.226 -2.1687  0.6133  0.6194
   54CHL1   C11 3956   0.370   6.843   3.094 -0.5565 -0.2833 -0.1577
   54CHL1  H11A 3957   0.380   6.733   3.089 -0.6054 -0.2338 -1.6213
   54CHL1  H11B 3958   0.267   6.869   3.063 -0.2632  2.5364  1.0935
   54CHL1    C9 3959   0.470   6.887   2.983  0.2561 -0.1825 -0.3336
   54CHL1    H9 3960   0.473   6.998   2.984  2.5326 -0.2221  1.2275
   54CHL1   C10 3961   0.436   6.846   2.839 -0.4215  0.3710 -0.3508
   54CHL1   C19 3962   0.405   6.693   2.830 -0.3762  0.1667 -0.4905
   54CHL1  H19A 3963   0.490   6.636   2.874  0.4477  0.2939 -1.8783
   54CHL1  H19B 3964   0.312   6.665   2.882  0.2701  2.1486  1.8586
   54CHL1  H19C 3965   0.396   6.653   2.726 -0.3429 -4.0473  1.0421
   54CHL1    C1 3966   0.314   6.927   2.787 -0.0940  0.3330  0.1869
   54CHL1   H1A 3967   0.221   6.890   2.837 -0.6145  0.2713 -0.8272
   54CHL1   H1B 3968   0.336   7.035   2.798  0.2233  0.4883 -1.7894
   54CHL1    C2 3969   0.286   6.908   2.640  0.0096  0.3827  1.4270
   54CHL1   H2A 3970   0.202   6.974   2.611  1.3837  1.6900  0.2986
   54CHL1   H2B 3971   0.253   6.802   2.634 -0.1850  0.5994 -1.7161
   54CHL1   C20 3972   0.565   6.868   3.526 -0.2254  0.3409  0.6762
   54CHL1   H20 3973   0.463   6.831   3.503  0.8563 -1.4073 -1.5646
   54CHL1   C21 3974   0.536   6.990   3.607  0.9117  0.6487 -0.5793
   54CHL1  H21A 3975   0.634   7.036   3.632  1.8089 -2.0813  1.0510
   54CHL1  H21B 3976   0.478   6.971   3.699  0.9404 -1.3090 -0.9509
   54CHL1  H21C 3977   0.464   7.054   3.551  0.0928 -0.9011 -1.3362
   54CHL1   C22 3978   0.660   6.776   3.607  0.6829  0.0446  0.1015
   54CHL1  H22A 3979   0.682   6.687   3.545  4.9769  1.5912 -0.8087
   54CHL1  H22B 3980   0.759   6.828   3.612  0.2533  1.3454 -3.5338
   54CHL1   C23 3981   0.615   6.724   3.741  0.0842 -0.5210 -0.7022
   54CHL1  H23A 3982   0.577   6.812   3.798 -0.1494 -1.0995  0.0342
   54CHL1  H23B 3983   0.525   6.665   3.714  0.2701 -1.9541  1.7244
   54CHL1   C24 3984   0.711   6.654   3.825  0.3466 -0.1743 -0.4599
   54CHL1  H24A 3985   0.737   6.560   3.772 -0.1048  0.1801 -1.3217
   54CHL1  H24B 3986   0.801   6.715   3.847 -0.3277  0.1855  1.4470
   54CHL1   C25 3987   0.662   6.616   3.970  0.2331  0.0350 -0.1377
   54CHL1   H25 3988   0.552   6.608   3.961  0.1909  0.2891  0.1395
   54CHL1   C26 3989   0.724   6.484   4.017 -0.1048  0.2427  0.3561
   54CHL1  H26A 3990   0.691   6.463   4.121  1.8929 -0.0195  0.9677
   54CHL1  H26B 3991   0.717   6.394   3.952  1.2248 -2.0909  3.3224
   54CHL1  H26C 3992   0.833   6.497   4.034  0.5470 -3.6679 -0.4313
   54CHL1   C27 3993   0.693   6.738   4.063 -0.1589 -0.5987  0.6120
   54CHL1  H27A 3994   0.801   6.764   4.057  0.3068 -2.3951  0.8939
   54CHL1  H27B 3995   0.637   6.827   4.029  2.2262 -0.1059 -2.2117
   54CHL1  H27C 3996   0.669   6.726   4.171  0.3484  0.5658  0.8607
   55CHL1    C3 3997   7.228   6.579   2.585 -0.7475  0.8173 -0.9456
   55CHL1    H3 3998   7.126   6.557   2.545  0.2889 -2.6212 -1.8720
   55CHL1    O3 3999   7.306   6.585   2.466  0.3253  0.5581 -0.2504
   55CHL1   H3' 4000   7.269   6.665   2.428 -0.5063  1.3030  2.0186
   55CHL1    C4 4001   7.236   6.712   2.660 -0.2056  0.1221  0.3681
   55CHL1   H4A 4002   7.341   6.735   2.686 -0.1088  2.5704 -1.9964
   55CHL1   H4B 4003   7.203   6.787   2.585  0.7304 -0.6479 -0.8480
   55CHL1    C5 4004   7.150   6.703   2.782  0.3073 -0.2802 -0.0073
   55CHL1    C6 4005   7.053   6.784   2.786  0.4841 -0.3281 -0.0536
   55CHL1    H6 4006   7.037   6.858   2.706  0.1674 -1.5877 -1.1665
   55CHL1    C7 4007   6.967   6.810   2.905 -0.0231 -1.0018 -0.3152
   55CHL1   H7A 4008   6.982   6.919   2.918 -2.2445 -0.7494  0.2403
   55CHL1   H7B 4009   6.864   6.774   2.887  0.3857 -1.0854 -2.6499
   55CHL1    C8 4010   7.010   6.740   3.035 -0.4857 -0.1905  0.0867
   55CHL1    H8 4011   7.100   6.792   3.074  0.8938 -2.9824  0.7408
   55CHL1   C14 4012   6.898   6.720   3.139 -0.3048 -0.1633  0.2661
   55CHL1   H14 4013   6.826   6.649   3.094 -0.2042 -0.5038  0.6381
   55CHL1   C15 4014   6.822   6.846   3.181 -0.2757  0.6449  0.4033
   55CHL1  H15A 4015   6.882   6.938   3.195  0.1164  0.5276 -0.4680
   55CHL1  H15B 4016   6.740   6.879   3.113  0.0955 -0.1502 -0.4427
   55CHL1   C16 4017   6.755   6.817   3.319  0.5008  0.1905 -0.1407
   55CHL1  H16A 4018   6.787   6.892   3.395 -4.5013  0.6868  1.6569
   55CHL1  H16B 4019   6.644   6.822   3.310  0.5660 -1.2344 -1.9265
   55CHL1   C17 4020   6.813   6.677   3.350 -0.6670  0.0598  0.0053
   55CHL1   H17 4021   6.741   6.601   3.315 -0.8749  0.0966  0.3554
   55CHL1   C13 4022   6.945   6.659   3.267  0.2125 -0.1475  0.2363
   55CHL1   C18 4023   7.057   6.747   3.328  0.1359 -0.0054 -0.7487
   55CHL1  H18A 4024   7.016   6.850   3.334 -0.4098 -0.2728  0.0748
   55CHL1  H18B 4025   7.088   6.713   3.429 -0.5658  0.1843 -0.4664
   55CHL1  H18C 4026   7.152   6.757   3.270 -0.3141 -1.6114 -1.8147
   55CHL1   C12 4027   6.988   6.511   3.233  0.4153  0.0310  0.4789
   55CHL1  H12A 4028   7.031   6.452   3.317  1.1314  1.0511  0.8378
   55CHL1  H12B 4029   6.912   6.446   3.183  0.5487 -0.2999  0.7023
   55CHL1   C11 4030   7.093   6.506   3.124  0.6715  0.0690 -0.1859
   55CHL1  H11A 4031   7.180   6.564   3.161  0.4105  0.2499  0.1479
   55CHL1  H11B 4032   7.134   6.406   3.099  3.1701  0.9579  0.2546
   55CHL1    C9 4033   7.064   6.591   2.997  0.3625 -0.5510 -0.7278
   55CHL1    H9 4034   6.980   6.547   2.940 -1.7481  0.2747  1.6566
   55CHL1   C10 4035   7.187   6.603   2.892 -0.2828  0.8481 -0.2867
   55CHL1   C19 4036   7.320   6.644   2.962  0.7224 -0.5161  0.6037
   55CHL1  H19A 4037   7.400   6.648   2.885 -1.0769 -1.6687 -1.3550
   55CHL1  H19B 4038   7.300   6.747   2.999 -1.0810 -0.0263 -1.6877
   55CHL1  H19C 4039   7.347   6.577   3.046  0.8597 -0.0643  0.9228
   55CHL1    C1 4040   7.206   6.468   2.817 -0.3084  0.1371 -0.6191
   55CHL1   H1A 4041   7.247   6.385   2.878 -0.1195  0.3651 -0.4351
   55CHL1   H1B 4042   7.102   6.443   2.788 -0.7718  1.7276 -0.3706
   55CHL1    C2 4043   7.268   6.464   2.682  0.5493 -0.1689  0.9287
   55CHL1   H2A 4044   7.232   6.370   2.634  0.5462  0.4737 -0.3358
   55CHL1   H2B 4045   7.379   6.460   2.685  0.6500  1.7176  0.5607
   55CHL1   C20 4046   6.823   6.645   3.497  0.5055 -0.6174 -0.0233
   55CHL1   H20 4047   6.906   6.703   3.543  1.4614 -1.6832 -0.3700
   55CHL1   C21 4048   6.844   6.494   3.522 -0.5191  0.5576  0.4935
   55CHL1  H21A 4049   6.951   6.468   3.537 -0.6309 -0.7770 -0.8813
   55CHL1  H21B 4050   6.784   6.432   3.453  1.2180 -0.4238 -0.1783
   55CHL1  H21C 4051   6.805   6.472   3.623  0.0366 -0.4897  0.4892
   55CHL1   C22 4052   6.692   6.687   3.567 -0.5695 -0.8073 -0.3606
   55CHL1  H22A 4053   6.641   6.778   3.529  1.8166 -0.1807 -2.1626
   55CHL1  H22B 4054   6.619   6.603   3.560  0.6725 -2.1719  2.3824
   55CHL1   C23 4055   6.715   6.725   3.714 -0.1904  0.6982 -0.1822
   55CHL1  H23A 4056   6.746   6.632   3.766 -0.8884 -0.2168 -1.3952
   55CHL1  H23B 4057   6.802   6.793   3.727  0.1155  0.6150 -1.6384
   55CHL1   C24 4058   6.580   6.770   3.773  0.1462  0.5202  0.6526
   55CHL1  H24A 4059   6.548   6.864   3.722  1.8575 -0.0789 -1.6255
   55CHL1  H24B 4060   6.506   6.690   3.749 -0.2130 -0.5011  4.8269
   55CHL1   C25 4061   6.585   6.784   3.920  0.6394 -0.2185  0.7575
   55CHL1   H25 4062   6.637   6.696   3.963 -0.2561 -0.7115  0.8239
   55CHL1   C26 4063   6.665   6.910   3.955 -0.7677 -0.7508 -0.7474
   55CHL1  H26A 4064   6.617   6.999   3.910 -2.7222 -1.7309 -0.6349
   55CHL1  H26B 4065   6.662   6.926   4.065 -0.6470  1.0733 -1.0049
   55CHL1  H26C 4066   6.775   6.894   3.943 -0.2615  1.3631  0.8454
   55CHL1   C27 4067   6.445   6.790   3.975  0.5006 -0.0565 -0.4544
   55CHL1  H27A 4068   6.382   6.863   3.920 -0.8193  0.9195  2.2742
   55CHL1  H27B 4069   6.394   6.692   3.962  2.3096 -0.7589 -2.5184
   55CHL1  H27C 4070   6.455   6.812   4.084  0.5737 -2.0230 -0.0414
   56CHL1    C3 4071   0.085   0.502   2.558  0.1888  0.1076 -0.9030
   56CHL1    H3 4072   0.141   0.406   2.549  0.2659  0.1320 -0.6970
   56CHL1    O3 4073   0.102   0.574   2.432  0.4738  0.1990  0.4758
   56CHL1   H3' 4074   0.048   0.653   2.436 -0.7912 -0.6852  1.7869
   56CHL1    C4 4075  -0.069   0.489   2.592 -0.6082  0.4013  0.0926
   56CHL1   H4A 4076  -0.120   0.587   2.582  0.4600  0.8700 -0.9608
   56CHL1   H4B 4077  -0.118   0.429   2.512  1.2443  3.3468 -3.4184
   56CHL1    C5 4078  -0.090   0.427   2.728 -0.2955 -0.0184  0.2087
   56CHL1    C6 4079  -0.156   0.307   2.735  0.2258  0.4711 -0.5977
   56CHL1    H6 4080  -0.198   0.265   2.642 -1.7068  1.4500 -0.1970
   56CHL1    C7 4081  -0.202   0.248   2.868 -0.0521  0.2888 -0.2487
   56CHL1   H7A 4082  -0.309   0.217   2.868 -0.0751  0.3687 -0.0131
   56CHL1   H7B 4083  -0.137   0.160   2.886 -1.3589 -0.9066 -1.2707
   56CHL1    C8 4084  -0.172   0.340   2.989 -0.1264  0.1138 -0.5426
   56CHL1    H8 4085  -0.249   0.421   2.989 -0.1026  0.1817 -3.6919
   56CHL1   C14 4086  -0.173   0.261   3.129 -0.3003 -0.4230 -0.2904
   56CHL1   H14 4087  -0.095   0.182   3.123 -0.4185 -0.5654  0.0646
   56CHL1   C15 4088  -0.301   0.197   3.170  0.1418  0.3369  0.7839
   56CHL1  H15A 4089  -0.385   0.267   3.156 -1.8899 -2.2080 -0.2299
   56CHL1  H15B 4090  -0.326   0.103   3.116  0.6202 -0.3132  1.6823
   56CHL1   C16 4091  -0.292   0.171   3.323  0.1742 -0.1167  0.5771
   56CHL1  H16A 4092  -0.384   0.207   3.373  0.2552  0.7721  0.0981
   56CHL1  H16B 4093  -0.282   0.061   3.338 -0.4872 -0.3155 -0.3625
   56CHL1   C17 4094  -0.164   0.249   3.373  0.1638 -0.4127 -0.1094
   56CHL1   H17 4095  -0.081   0.176   3.371  0.3647 -0.2177  0.8043
   56CHL1   C13 4096  -0.139   0.349   3.254 -0.2792 -0.1985 -0.4037
   56CHL1   C18 4097  -0.235   0.474   3.269  0.4510 -0.3925  0.0519
   56CHL1  H18A 4098  -0.230   0.556   3.194  1.0877 -0.1100  0.3997
   56CHL1  H18B 4099  -0.342   0.442   3.274 -0.5799  2.5125 -1.9751
   56CHL1  H18C 4100  -0.211   0.523   3.365  1.4461  0.2377 -0.5109
   56CHL1   C12 4101   0.009   0.387   3.232  0.6160  0.2046  0.3834
   56CHL1  H12A 4102   0.045   0.446   3.319 -2.3518 -0.3614  2.0568
   56CHL1  H12B 4103   0.087   0.307   3.234 -0.0846 -0.5194 -0.6941
   56CHL1   C11 4104   0.034   0.471   3.104 -0.2786 -0.2275 -0.5219
   56CHL1  H11A 4105  -0.023   0.566   3.105 -1.7717 -1.0857 -2.1474
   56CHL1  H11B 4106   0.144   0.487   3.094  0.1965 -2.7339  0.2384
   56CHL1    C9 4107  -0.029   0.408   2.978 -0.7191  0.1990 -0.2910
   56CHL1    H9 4108   0.042   0.324   2.960  0.5059  1.0294  0.5977
   56CHL1   C10 4109  -0.021   0.495   2.848  0.1055 -0.5634 -0.3352
   56CHL1   C19 4110  -0.075   0.637   2.873  0.2716  0.3548 -0.0582
   56CHL1  H19A 4111  -0.174   0.630   2.924  0.2868  2.1827  0.2525
   56CHL1  H19B 4112  -0.002   0.698   2.929 -1.1257 -0.9609  3.3347
   56CHL1  H19C 4113  -0.092   0.693   2.779  1.5006 -1.3761 -1.3618
   56CHL1    C1 4114   0.132   0.513   2.806 -0.7116 -0.1939 -0.5968
   56CHL1   H1A 4115   0.187   0.575   2.880 -2.9000  0.0066  0.9082
   56CHL1   H1B 4116   0.177   0.412   2.814  1.4352  0.7643  0.0558
   56CHL1    C2 4117   0.150   0.574   2.674 -0.3960  0.5133  0.6075
   56CHL1   H2A 4118   0.256   0.586   2.645 -1.1552 -0.3007 -2.7517
   56CHL1   H2B 4119   0.108   0.677   2.674 -1.6435  0.0332  1.6716
   56CHL1   C20 4120  -0.154   0.310   3.516 -0.1234  0.6278  0.2127
   56CHL1   H20 4121  -0.093   0.402   3.502 -0.1610  0.8728  1.6756
   56CHL1   C21 4122  -0.091   0.211   3.612 -0.0710 -0.4292 -0.0827
   56CHL1  H21A 4123  -0.059   0.268   3.702 -1.9624 -1.4483  1.2443
   56CHL1  H21B 4124  -0.003   0.166   3.561  0.3675  2.4333 -1.9736
   56CHL1  H21C 4125  -0.159   0.133   3.649  0.1469 -0.4280  0.3160
   56CHL1   C22 4126  -0.289   0.353   3.573 -0.1526  0.3165 -0.1212
   56CHL1  H22A 4127  -0.346   0.420   3.506 -1.2560  1.1855  1.6515
   56CHL1  H22B 4128  -0.345   0.257   3.583  0.5560 -0.1463 -0.5873
   56CHL1   C23 4129  -0.286   0.435   3.701 -0.1340 -0.0792 -0.4885
   56CHL1  H23A 4130  -0.236   0.374   3.780 -1.1252  0.4495  0.5599
   56CHL1  H23B 4131  -0.224   0.526   3.684  0.4206 -0.1933  0.8376
   56CHL1   C24 4132  -0.423   0.475   3.763 -0.1423 -0.0567  0.4511
   56CHL1  H24A 4133  -0.470   0.534   3.681 -0.1362  0.5565  0.8935
   56CHL1  H24B 4134  -0.488   0.390   3.794 -0.2701 -0.1929 -0.1830
   56CHL1   C25 4135  -0.430   0.587   3.870  0.6046 -0.0652  0.7338
   56CHL1   H25 4136  -0.392   0.544   3.965 -2.1461 -1.6186  1.1964
   56CHL1   C26 4137  -0.337   0.708   3.831 -0.2308 -0.4748  0.0790
   56CHL1  H26A 4138  -0.234   0.671   3.813 -0.4173 -1.3678  0.7631
   56CHL1  H26B 4139  -0.368   0.747   3.732  2.4376 -0.2469 -0.6917
   56CHL1  H26C 4140  -0.352   0.785   3.910 -0.0966  0.2722 -0.6147
   56CHL1   C27 4141  -0.581   0.626   3.900 -0.3542  0.3269 -0.1858
   56CHL1  H27A 4142  -0.652   0.547   3.933 -0.3996  0.3234 -0.2899
   56CHL1  H27B 4143  -0.585   0.705   3.977  2.7135  0.4157 -0.0763
   56CHL1  H27C 4144  -0.626   0.668   3.807  2.2983  0.4191 -1.4935
   57SAPC     N 4145   4.360   3.502   6.361 -0.5257 -0.2934 -0.1200
   57SAPC   C12 4146   4.501   3.473   6.416 -0.3053 -0.0561 -0.3862
   57SAPC  H12A 4147   4.492   3.449   6.521 -1.4589 -0.3721 -0.5547
   57SAPC  H12B 4148   4.563   3.560   6.406  0.3509 -0.0298  3.3154
   57SAPC   C13 4149   4.271   3.382   6.355  0.6203 -0.1056 -0.1507
   57SAPC  H13A 4150   4.251   3.328   6.446  1.1315 -1.1867 -0.6776
   57SAPC  H13B 4151   4.173   3.397   6.312  0.2993 -0.9489  0.2738
   57SAPC  H13C 4152   4.309   3.307   6.287 -0.6385 -0.7830 -0.1247
   57SAPC   C14 4153   4.288   3.605   6.449  0.9964  0.0897 -0.1268
   57SAPC  H14A 4154   4.263   3.568   6.547  0.1335  1.4080  0.1581
   57SAPC  H14B 4155   4.349   3.692   6.472  0.6799 -0.2008  1.8874
   57SAPC  H14C 4156   4.192   3.627   6.406  1.8238  0.6383 -1.7457
   57SAPC   C15 4157   4.374   3.560   6.220 -0.3109  0.4628  0.0795
   57SAPC  H15A 4158   4.434   3.650   6.228  0.8074  0.0215 -2.6307
   57SAPC  H15B 4159   4.423   3.494   6.150 -1.5080 -0.9278  0.5426
   57SAPC  H15C 4160   4.281   3.585   6.171 -0.6677  0.2391  0.6489
   57SAPC   C11 4161   4.582   3.355   6.343  0.2446 -0.5267  0.1590
   57SAPC  H11A 4162   4.529   3.264   6.378  0.2157 -0.6312 -0.1542
   57SAPC  H11B 4163   4.686   3.350   6.381  0.5007  0.0923 -0.4518
   57SAPC     P 4164   4.552   3.261   6.096 -0.1241 -0.1055 -0.1391
   57SAPC   O13 4165   4.568   3.117   6.140 -0.1799  0.7720 -0.3901
   57SAPC   O14 4166   4.419   3.306   6.047  0.1561  0.1923  0.0370
   57SAPC   O12 4167   4.588   3.370   6.203  0.6144 -0.0711  0.0875
   57SAPC   O11 4168   4.666   3.276   5.982 -0.5521  0.0173 -0.3479
   57SAPC    C1 4169   4.796   3.321   6.014 -0.3124 -0.6737 -0.2567
   57SAPC    HA 4170   4.783   3.412   6.076  0.5494 -0.3819 -0.4946
   57SAPC    HB 4171   4.846   3.251   6.085 -1.0128  0.5571  1.4868
   57SAPC    C2 4172   4.888   3.367   5.896  0.9977  0.0951 -0.4259
   57SAPC    HS 4173   4.955   3.451   5.923 -0.5232  1.3775 -0.6222
   57SAPC   O21 4174   4.807   3.412   5.787 -0.1608 -0.8758 -0.0706
   57SAPC   C21 4175   4.766   3.537   5.799 -0.0839  1.0799 -0.2013
   57SAPC   O22 4176   4.797   3.609   5.888  0.0652  0.1360  0.3175
   57SAPC   C22 4177   4.670   3.564   5.680 -0.4480 -0.7232 -0.6766
   57SAPC   H2R 4178   4.725   3.636   5.615 -0.8447  0.1811 -0.0292
   57SAPC   H2S 4179   4.657   3.473   5.618 -2.1684 -1.9585  1.4216
   57SAPC    C3 4180   4.981   3.246   5.845 -0.2100  0.0832 -0.2349
   57SAPC    HX 4181   5.043   3.209   5.929 -0.8810 -1.5087 -0.4356
   57SAPC    HY 4182   5.060   3.286   5.777 -0.8692  0.0679 -1.0239
   57SAPC   O31 4183   4.903   3.138   5.784 -0.9182 -0.0538  0.5320
   57SAPC   C31 4184   4.878   3.154   5.660  0.2294 -0.3289 -0.6599
   57SAPC   O32 4185   4.940   3.228   5.584  0.2383 -0.4857 -0.1131
   57SAPC   C32 4186   4.764   3.063   5.627 -0.1938  0.2629 -0.0543
   57SAPC   H2X 4187   4.683   3.082   5.701 -0.6091  1.5347 -0.8179
   57SAPC   H2Y 4188   4.812   2.963   5.630  1.9219  1.2226 -0.4845
   57SAPC   C23 4189   4.540   3.637   5.713  0.1220 -0.4964  0.1971
   57SAPC   H3R 4190   4.567   3.724   5.777 -0.0571 -0.2094 -0.1172
   57SAPC   H3S 4191   4.474   3.570   5.773 -1.1571  1.7468  1.3809
   57SAPC   C24 4192   4.457   3.687   5.588  0.4748 -0.4064  0.3319
   57SAPC   H4R 4193   4.370   3.746   5.624  0.5144 -0.2941  0.2446
   57SAPC   H4S 4194   4.418   3.599   5.533 -0.7185 -0.7541  1.7233
   57SAPC   C25 4195   4.546   3.774   5.500  0.2730  0.2944 -0.6861
   57SAPC   H5R 4196   4.617   3.838   5.554 -1.4630  0.3139  1.6436
   57SAPC   C26 4197   4.554   3.782   5.370 -0.4086 -0.0204 -0.6877
   57SAPC   H6R 4198   4.605   3.866   5.320 -4.3143  1.8665 -1.6825
   57SAPC   C27 4199   4.474   3.706   5.272 -0.3380  0.3159  0.1572
   57SAPC   H7R 4200   4.379   3.759   5.249 -0.2847  0.5319  0.4295
   57SAPC   H7S 4201   4.436   3.609   5.311 -1.9501 -0.0598 -2.2803
   57SAPC   C28 4202   4.554   3.682   5.150 -0.0943 -0.3106  0.7270
   57SAPC   H8R 4203   4.612   3.589   5.145 -0.0920 -0.1771 -3.7540
   57SAPC   C29 4204   4.586   3.768   5.049  0.3955 -0.1325  0.3514
   57SAPC   H9R 4205   4.645   3.732   4.963  0.4807 -0.2206  0.4454
   57SAPC  C210 4206   4.538   3.914   5.043  0.2177  0.9337 -0.4147
   57SAPC  H10R 4207   4.526   3.960   5.143 -1.3708 -1.7624  0.6793
   57SAPC  H10S 4208   4.434   3.914   5.003  0.2591  1.9717 -0.5407
   57SAPC  C211 4209   4.629   3.999   4.961 -0.0672  0.0947  0.2728
   57SAPC  H11R 4210   4.720   4.039   5.008 -0.3490  2.0797 -0.7979
   57SAPC  C212 4211   4.630   4.018   4.825  0.5238 -0.0074  0.5233
   57SAPC  H12R 4212   4.685   4.103   4.783 -0.0749 -0.4002 -1.1200
   57SAPC  C213 4213   4.533   3.952   4.730  0.1716  0.4655 -0.4702
   57SAPC  H13R 4214   4.465   4.030   4.690 -0.5608 -0.2270 -0.6014
   57SAPC  H13S 4215   4.464   3.885   4.786 -1.1635  0.7828 -1.7012
   57SAPC  C214 4216   4.611   3.880   4.615 -0.1394  0.0682 -0.4524
   57SAPC  H14R 4217   4.603   3.770   4.621 -0.9333  0.0845 -1.1575
   57SAPC  C215 4218   4.668   3.932   4.503 -0.3689  0.8600  0.5670
   57SAPC  H15R 4219   4.714   3.869   4.425 -1.1439  0.6487  0.2693
   57SAPC  C216 4220   4.659   4.078   4.457  0.5950 -0.2528 -0.0647
   57SAPC  H16R 4221   4.759   4.127   4.453  0.5469 -0.0528  1.0393
   57SAPC  H16S 4222   4.600   4.125   4.538 -0.5227  0.0682 -1.0523
   57SAPC  C217 4223   4.586   4.097   4.324  0.0699  0.0372  0.5541
   57SAPC  H17R 4224   4.486   4.048   4.320  0.8405 -1.7171  2.4115
   57SAPC  H17S 4225   4.653   4.060   4.244 -1.0539 -0.0081 -0.3943
   57SAPC  C218 4226   4.544   4.244   4.322  0.1690 -0.0166  0.3548
   57SAPC  H18R 4227   4.635   4.305   4.342 -0.2303  0.6892  0.0497
   57SAPC  H18S 4228   4.457   4.262   4.388  1.3313  1.3378  1.5428
   57SAPC  C219 4229   4.492   4.299   4.185  0.2798  0.3092  0.2534
   57SAPC  H19R 4230   4.569   4.281   4.107 -0.9959 -0.9292 -0.7480
   57SAPC  H19S 4231   4.486   4.410   4.193 -1.3943  0.2985 -0.6747
   57SAPC  C220 4232   4.369   4.233   4.124  0.5790 -0.5507 -0.4039
   57SAPC  H20R 4233   4.360   4.126   4.153  1.0820 -0.2536  0.8844
   57SAPC  H20S 4234   4.369   4.246   4.014 -1.1368 -0.2745 -0.3823
   57SAPC  H20T 4235   4.281   4.284   4.167  0.7183  1.9543 -2.9439
   57SAPC   C33 4236   4.711   3.068   5.480  0.4833 -0.5355  0.3966
   57SAPC   H3X 4237   4.646   2.980   5.459  0.1693 -0.6110  1.6240
   57SAPC   H3Y 4238   4.799   3.075   5.413  0.4590  0.7176  0.4855
   57SAPC   C34 4239   4.621   3.191   5.468 -0.3711 -0.6741  0.2629
   57SAPC   H4X 4240   4.694   3.273   5.483  0.4622 -1.1690 -0.9376
   57SAPC   H4Y 4241   4.540   3.199   5.543  0.0317 -0.0402  0.6297
   57SAPC   C35 4242   4.556   3.197   5.326  0.7611 -0.0116  0.2357
   57SAPC   H5X 4243   4.476   3.119   5.330 -0.7292  1.5059  0.6317
   57SAPC   H5Y 4244   4.619   3.187   5.235 -1.1871  1.1790 -1.2965
   57SAPC   C36 4245   4.482   3.336   5.308  0.5631  0.4255  0.5416
   57SAPC   H6X 4246   4.561   3.411   5.284  0.7633  0.1030  0.1817
   57SAPC   H6Y 4247   4.421   3.352   5.399 -0.7802 -3.1161  0.3305
   57SAPC   C37 4248   4.384   3.339   5.189  0.0841  0.0302  0.0146
   57SAPC   H7X 4249   4.336   3.439   5.183 -0.4721 -0.3130 -1.3519
   57SAPC   H7Y 4250   4.308   3.264   5.218  1.8272 -1.0843  1.8737
   57SAPC   C38 4251   4.429   3.321   5.038 -0.9912 -0.4158  0.2108
   57SAPC   H8X 4252   4.503   3.238   5.038  0.4483  0.8482  1.1081
   57SAPC   H8Y 4253   4.483   3.417   5.029 -2.2062  0.2123 -0.5820
   57SAPC   C39 4254   4.316   3.323   4.940 -0.4350 -0.2698 -0.1194
   57SAPC   H9X 4255   4.268   3.422   4.926 -2.4039 -1.3991 -1.5404
   57SAPC   H9Y 4256   4.241   3.252   4.981  0.7543 -0.9080  0.9810
   57SAPC  C310 4257   4.350   3.244   4.812 -0.6799 -0.7205 -0.0010
   57SAPC  H10X 4258   4.251   3.223   4.767 -0.9830 -0.1984  0.4253
   57SAPC  H10Y 4259   4.396   3.149   4.847  0.5474  0.5298  1.9143
   57SAPC  C311 4260   4.443   3.313   4.710  0.2332 -0.2115  0.2036
   57SAPC  H11X 4261   4.464   3.237   4.631  2.2352 -1.5873  1.9702
   57SAPC  H11Y 4262   4.532   3.359   4.758 -1.5948  1.3639  2.1742
   57SAPC  C312 4263   4.379   3.437   4.640  0.0247 -0.5411  0.1022
   57SAPC  H12X 4264   4.409   3.532   4.691  0.3925  0.1704 -1.4129
   57SAPC  H12Y 4265   4.268   3.430   4.641 -0.1773  1.8697 -1.6733
   57SAPC  C313 4266   4.429   3.460   4.498  0.3509 -0.4395  0.1133
   57SAPC  H13X 4267   4.392   3.372   4.440 -0.0139 -0.3118  0.1509
   57SAPC  H13Y 4268   4.539   3.467   4.502  0.2092  2.5177 -0.2288
   57SAPC  C314 4269   4.370   3.594   4.443  0.2981  0.5600 -0.4952
   57SAPC  H14X 4270   4.443   3.677   4.448  0.3135  0.5973 -1.2116
   57SAPC  H14Y 4271   4.272   3.618   4.489 -0.4262 -2.7830 -0.1700
   57SAPC  C315 4272   4.334   3.578   4.294  0.8632  0.9910 -0.0922
   57SAPC  H15X 4273   4.289   3.478   4.279  0.9783  0.9098  0.0963
   57SAPC  H15Y 4274   4.427   3.584   4.233  0.7679  0.3492 -0.2982
   57SAPC  C316 4275   4.247   3.699   4.250  0.1087  0.9822 -0.5522
   57SAPC  H16X 4276   4.317   3.785   4.247  1.2539  0.2166  2.4848
   57SAPC  H16Y 4277   4.183   3.718   4.339  0.4141 -3.4659  0.7464
   57SAPC  C317 4278   4.153   3.672   4.132 -0.2437 -0.3595 -0.7668
   57SAPC  H17X 4279   4.087   3.586   4.154  0.8828 -0.9299  0.4571
   57SAPC  H17Y 4280   4.216   3.648   4.044 -1.5543  2.7345 -2.6489
   57SAPC  C318 4281   4.060   3.790   4.099 -0.8172  0.6526 -0.3388
   57SAPC  H18X 4282   4.126   3.876   4.078  2.3471 -1.8930 -1.3278
   57SAPC  H18Y 4283   3.996   3.809   4.188  1.8883 -0.7788  1.9983
   57SAPC  H18Z 4284   3.990   3.762   4.017 -1.0742 -0.6028  0.2827
   58SAPC     N 4285   3.734   2.518   6.194  0.1408  0.1264  0.1291
   58SAPC   C12 4286   3.703   2.390   6.274 -0.0476  0.2063 -0.2483
   58SAPC  H12A 4287   3.792   2.331   6.289 -1.1558 -1.8216 -1.3061
   58SAPC  H12B 4288   3.639   2.327   6.213 -0.5332  1.9418 -1.5480
   58SAPC   C13 4289   3.613   2.597   6.175  0.3260  0.4755 -0.0961
   58SAPC  H13A 4290   3.632   2.685   6.115 -0.2671 -0.5297 -1.7917
   58SAPC  H13B 4291   3.542   2.537   6.120  0.1850  1.6643 -1.2212
   58SAPC  H13C 4292   3.567   2.636   6.264  1.1097  1.9569 -0.3181
   58SAPC   C14 4293   3.833   2.606   6.259  0.8631 -0.5842  0.7884
   58SAPC  H14A 4294   3.794   2.633   6.357  2.7499  4.1627  0.3978
   58SAPC  H14B 4295   3.925   2.552   6.274  0.7275 -1.0325  0.0056
   58SAPC  H14C 4296   3.853   2.697   6.204 -3.1297 -0.3953 -0.5331
   58SAPC   C15 4297   3.777   2.480   6.059 -0.1332 -0.3043  0.4037
   58SAPC  H15A 4298   3.743   2.548   5.984  0.2987  0.2547  0.7126
   58SAPC  H15B 4299   3.885   2.485   6.057 -0.1804  0.1028 -1.5791
   58SAPC  H15C 4300   3.740   2.382   6.033 -0.1993  0.8059 -3.9773
   58SAPC   C11 4301   3.634   2.402   6.413 -0.6447 -0.2756 -0.5286
   58SAPC  H11A 4302   3.696   2.464   6.482  1.2146 -2.6210 -0.0189
   58SAPC  H11B 4303   3.622   2.311   6.475 -0.1781  1.9560  3.0243
   58SAPC     P 4304   3.385   2.389   6.363 -0.3937  0.0925 -0.7017
   58SAPC   O13 4305   3.312   2.333   6.480  0.2337 -0.5164  0.1469
   58SAPC   O14 4306   3.301   2.479   6.278  0.6765 -0.3330  0.0154
   58SAPC   O12 4307   3.509   2.472   6.399  0.3437 -0.0819  0.1940
   58SAPC   O11 4308   3.448   2.267   6.280 -0.4959 -0.6447  0.4103
   58SAPC    C1 4309   3.378   2.142   6.291 -0.0421 -0.6888 -0.0819
   58SAPC    HA 4310   3.324   2.125   6.386  1.4654  0.8171  1.0608
   58SAPC    HB 4311   3.298   2.127   6.215 -0.4749 -0.2738  0.2865
   58SAPC    C2 4312   3.479   2.020   6.290  0.1700 -0.3843  0.2717
   58SAPC    HS 4313   3.540   2.037   6.381 -0.7997  1.3204  0.6344
   58SAPC   O21 4314   3.560   2.032   6.170 -0.2664  0.1338 -0.1746
   58SAPC   C21 4315   3.677   1.961   6.164 -0.4025  1.2683 -0.6007
   58SAPC   O22 4316   3.720   1.891   6.255 -0.2416  0.1559  0.0741
   58SAPC   C22 4317   3.756   1.976   6.033 -0.2783  0.3044 -1.0388
   58SAPC   H2R 4318   3.800   2.078   6.031 -1.9936  1.0729  0.0399
   58SAPC   H2S 4319   3.842   1.906   6.037 -0.2585  0.4201  1.7438
   58SAPC    C3 4320   3.401   1.882   6.294 -0.3728 -0.4217 -0.4213
   58SAPC    HX 4321   3.334   1.884   6.382  0.0345  0.5962 -0.1279
   58SAPC    HY 4322   3.474   1.801   6.315  0.4069  0.2117 -0.6447
   58SAPC   O31 4323   3.326   1.866   6.171  0.1989  0.0966  0.0670
   58SAPC   C31 4324   3.377   1.801   6.076 -0.0388  0.2333 -0.9695
   58SAPC   O32 4325   3.479   1.730   6.083  0.0580 -0.6414  0.0147
   58SAPC   C32 4326   3.283   1.810   5.956  0.8372  0.6610 -0.1232
   58SAPC   H2X 4327   3.187   1.845   6.000  0.9065 -1.7714  2.0967
   58SAPC   H2Y 4328   3.252   1.711   5.916 -0.9719  0.6293  1.3052
   58SAPC   C23 4329   3.675   1.967   5.902  0.5309 -0.0374 -0.5383
   58SAPC   H3R 4330   3.593   2.041   5.915 -0.7054 -1.4936  0.1440
   58SAPC   H3S 4331   3.624   1.869   5.895 -0.0839  0.2169  0.2720
   58SAPC   C24 4332   3.755   1.998   5.772 -0.0648  0.3619 -0.1550
   58SAPC   H4R 4333   3.806   2.096   5.764  0.9115 -0.1857 -0.9215
   58SAPC   H4S 4334   3.677   2.008   5.694 -0.3948  0.3250  0.1730
   58SAPC   C25 4335   3.848   1.882   5.741  0.0563  0.4175 -0.5984
   58SAPC   H5R 4336   3.950   1.894   5.780 -0.5400  0.1283  1.0948
   58SAPC   C26 4337   3.813   1.765   5.680  0.3145  0.3700  0.3124
   58SAPC   H6R 4338   3.875   1.677   5.704 -0.1219 -0.1914 -0.6048
   58SAPC   C27 4339   3.682   1.720   5.620  0.2479  0.4064 -0.5053
   58SAPC   H7R 4340   3.670   1.733   5.510 -3.7322 -0.4536 -0.2588
   58SAPC   H7S 4341   3.604   1.789   5.660 -0.1591 -1.4894  2.1313
   58SAPC   C28 4342   3.636   1.581   5.665  1.2755 -0.5179  0.1639
   58SAPC   H8R 4343   3.713   1.526   5.720  1.6466 -1.2269 -1.0456
   58SAPC   C29 4344   3.531   1.519   5.606 -0.3450 -0.1860  0.0925
   58SAPC   H9R 4345   3.497   1.420   5.641  1.5707 -1.4459 -1.5359
   58SAPC  C210 4346   3.439   1.574   5.499 -0.1658  0.0449 -0.4846
   58SAPC  H10R 4347   3.433   1.499   5.417 -2.0152 -0.3532 -0.0084
   58SAPC  H10S 4348   3.474   1.662   5.442  0.1406  0.7611  0.8058
   58SAPC  C211 4349   3.297   1.615   5.534  0.6290  0.0666  0.3735
   58SAPC  H11R 4350   3.270   1.595   5.639 -0.6448 -1.5629 -0.2468
   58SAPC  C212 4351   3.204   1.668   5.449 -0.3454 -0.3279 -0.4372
   58SAPC  H12R 4352   3.106   1.697   5.488 -0.3751 -0.5251 -0.3629
   58SAPC  C213 4353   3.224   1.702   5.301 -0.2162  0.1074  0.3004
   58SAPC  H13R 4354   3.311   1.768   5.279  1.1184 -1.9453 -0.7300
   58SAPC  H13S 4355   3.141   1.770   5.273 -1.6539 -0.9914  1.7588
   58SAPC  C214 4356   3.215   1.592   5.199 -1.5026  0.6626  1.0981
   58SAPC  H14R 4357   3.178   1.494   5.233  0.3769 -0.8904 -1.1214
   58SAPC  C215 4358   3.278   1.589   5.072 -0.1481  0.3297 -0.7123
   58SAPC  H15R 4359   3.260   1.503   5.006  0.3665 -0.5358  0.2574
   58SAPC  C216 4360   3.364   1.704   5.019  0.3015 -0.2064  0.0830
   58SAPC  H16R 4361   3.446   1.655   4.963  2.0037  1.9752  0.6235
   58SAPC  H16S 4362   3.423   1.758   5.096  0.8120  1.3107 -1.3679
   58SAPC  C217 4363   3.295   1.801   4.928 -0.5057  0.5441 -0.0248
   58SAPC  H17R 4364   3.357   1.892   4.913 -0.8149  0.3560 -2.5752
   58SAPC  H17S 4365   3.206   1.845   4.979 -0.0884  1.4511 -0.0660
   58SAPC  C218 4366   3.240   1.744   4.795  0.3992  1.0710  0.5630
   58SAPC  H18R 4367   3.165   1.665   4.817  0.4921  1.0055  0.6411
   58SAPC  H18S 4368   3.324   1.699   4.739  1.6612  0.9459  2.5193
   58SAPC  C219 4369   3.176   1.852   4.698  0.2166  0.4935 -0.0105
   58SAPC  H19R 4370   3.250   1.934   4.685 -0.3771  0.6760 -2.5503
   58SAPC  H19S 4371   3.095   1.898   4.759  0.4124  0.0926  0.5501
   58SAPC  C220 4372   3.128   1.789   4.568 -0.3254  0.5048  0.3497
   58SAPC  H20R 4373   3.095   1.869   4.498  0.2286 -1.9370 -2.8352
   58SAPC  H20S 4374   3.049   1.713   4.584  1.9533 -2.0389 -0.1266
   58SAPC  H20T 4375   3.220   1.744   4.524 -0.6082  0.5268 -0.2750
   58SAPC   C33 4376   3.336   1.910   5.850  0.4530 -0.1488  0.3287
   58SAPC   H3X 4377   3.412   1.857   5.788 -1.5387 -3.5444  0.6124
   58SAPC   H3Y 4378   3.374   2.003   5.895  1.4988  0.6877 -2.2112
   58SAPC   C34 4379   3.218   1.961   5.762  0.2186 -0.2316 -0.3339
   58SAPC   H4X 4380   3.165   2.043   5.814  0.4970 -0.6220  0.5755
   58SAPC   H4Y 4381   3.155   1.873   5.736  1.3659 -1.5044  1.0875
   58SAPC   C35 4382   3.265   2.029   5.629  0.3612 -0.2314 -0.2856
   58SAPC   H5X 4383   3.166   2.041   5.581 -0.3689  2.5733  1.7650
   58SAPC   H5Y 4384   3.315   1.950   5.569  1.3173 -0.8620  1.3045
   58SAPC   C36 4385   3.349   2.154   5.649 -0.1482  0.4607 -0.4447
   58SAPC   H6X 4386   3.445   2.128   5.698  1.5428  1.6777 -3.0300
   58SAPC   H6Y 4387   3.310   2.230   5.719 -0.5458  1.4918 -1.7623
   58SAPC   C37 4388   3.361   2.229   5.515 -0.2436  0.0098 -0.3855
   58SAPC   H7X 4389   3.440   2.306   5.534 -0.7850  0.8254 -1.3826
   58SAPC   H7Y 4390   3.265   2.281   5.497 -0.3750 -0.0003  0.2797
   58SAPC   C38 4391   3.405   2.140   5.395  0.2297  0.3485  0.4240
   58SAPC   H8X 4392   3.399   2.212   5.310 -0.7908  1.3975  1.3794
   58SAPC   H8Y 4393   3.329   2.063   5.371  2.0130 -1.7917  1.4547
   58SAPC   C39 4394   3.541   2.072   5.400  0.3780  0.6199  0.2227
   58SAPC   H9X 4395   3.549   2.004   5.488 -1.4809  0.6064  0.3842
   58SAPC   H9Y 4396   3.621   2.148   5.411 -0.3290  1.7576 -2.2035
   58SAPC  C310 4397   3.562   1.994   5.266 -0.9660 -0.6025  0.7123
   58SAPC  H10X 4398   3.533   2.067   5.187 -1.2502 -0.4255  0.9770
   58SAPC  H10Y 4399   3.489   1.910   5.260 -0.6344 -1.0385  2.4697
   58SAPC  C311 4400   3.701   1.932   5.253 -0.2932  0.3413 -0.4978
   58SAPC  H11X 4401   3.724   1.877   5.347 -0.8307  0.7878 -0.0965
   58SAPC  H11Y 4402   3.779   2.009   5.238 -1.5810  1.7419 -0.1825
   58SAPC  C312 4403   3.705   1.844   5.131  0.5559  0.6105 -0.5797
   58SAPC  H12X 4404   3.643   1.754   5.153 -0.4294  1.7963  1.6109
   58SAPC  H12Y 4405   3.813   1.817   5.127  0.5696  0.4588  0.6144
   58SAPC  C313 4406   3.658   1.903   5.002  0.0321  0.4575  0.1751
   58SAPC  H13X 4407   3.676   2.012   4.985 -1.1463  0.7010  0.4028
   58SAPC  H13Y 4408   3.547   1.909   5.005 -0.0992 -2.0699  1.0028
   58SAPC  C314 4409   3.700   1.813   4.884 -0.4646  0.4384 -0.4729
   58SAPC  H14X 4410   3.694   1.707   4.919 -1.5242  1.0754  1.3448
   58SAPC  H14Y 4411   3.809   1.835   4.883 -0.0856 -0.9797  3.2714
   58SAPC  C315 4412   3.630   1.843   4.748  0.1484  0.3517 -0.1800
   58SAPC  H15X 4413   3.634   1.954   4.734  0.2904  0.0854 -2.4311
   58SAPC  H15Y 4414   3.524   1.814   4.763  0.0891  0.1115 -1.0450
   58SAPC  C316 4415   3.693   1.763   4.633 -1.1622  0.8118 -0.9121
   58SAPC  H16X 4416   3.679   1.653   4.647 -3.0111  1.3142  1.5321
   58SAPC  H16Y 4417   3.802   1.772   4.612 -0.7910 -2.8596 -0.9216
   58SAPC  C317 4418   3.626   1.817   4.506  0.5054  0.2196 -0.0653
   58SAPC  H17X 4419   3.657   1.923   4.505 -0.8577  0.6203 -2.1546
   58SAPC  H17Y 4420   3.515   1.822   4.511  0.4233  0.7904 -2.0700
   58SAPC  C318 4421   3.684   1.744   4.382 -0.2891  0.3145  0.3512
   58SAPC  H18X 4422   3.640   1.643   4.367  1.1146 -0.1365 -0.8609
   58SAPC  H18Y 4423   3.794   1.738   4.396 -0.6678 -3.0827  2.5079
   58SAPC  H18Z 4424   3.658   1.806   4.293 -1.1392 -1.0736 -0.3987
   59SAPC     N 4425   1.899   4.289   6.446  0.4373  0.0204 -0.1165
   59SAPC   C12 4426   1.935   4.349   6.310  0.2104  0.6069  0.2431
   59SAPC  H12A 4427   2.043   4.353   6.311  0.2899 -0.0357 -2.3131
   59SAPC  H12B 4428   1.891   4.448   6.311  1.5234  1.1945  1.7332
   59SAPC   C13 4429   1.748   4.251   6.457  0.6743  0.2856  0.5902
   59SAPC  H13A 4430   1.691   4.342   6.465  0.9354  0.7001 -1.8205
   59SAPC  H13B 4431   1.708   4.205   6.367 -0.5704  0.9269  0.7968
   59SAPC  H13C 4432   1.727   4.193   6.545 -0.4773 -1.8598 -1.0264
   59SAPC   C14 4433   1.977   4.163   6.457  0.0197  0.5135  0.8360
   59SAPC  H14A 4434   2.084   4.175   6.462 -0.1538  1.5405  2.4487
   59SAPC  H14B 4435   1.939   4.103   6.538  1.4728  0.2001  1.3057
   59SAPC  H14C 4436   1.958   4.099   6.372  1.6186 -1.1731  1.7143
   59SAPC   C15 4437   1.933   4.381   6.561 -0.2368 -0.4222 -0.0308
   59SAPC  H15A 4438   1.879   4.472   6.540 -1.9009 -1.5473 -0.7664
   59SAPC  H15B 4439   1.890   4.349   6.654 -4.8673  0.4499 -1.7458
   59SAPC  H15C 4440   2.039   4.404   6.566 -0.0886 -1.0538 -0.2695
   59SAPC   C11 4441   1.907   4.271   6.176  0.2355 -0.3074  0.0924
   59SAPC  H11A 4442   1.964   4.175   6.179 -1.8458 -1.6303 -1.0514
   59SAPC  H11B 4443   1.950   4.331   6.093  0.6819  1.5495  1.6477
   59SAPC     P 4444   1.674   4.301   6.042  0.1095  0.2009 -0.0944
   59SAPC   O13 4445   1.544   4.235   6.062 -0.4122  0.0571  0.1325
   59SAPC   O14 4446   1.666   4.456   6.044  0.2611 -0.3978  0.5405
   59SAPC   O12 4447   1.769   4.246   6.155 -0.7484  0.2906  0.3049
   59SAPC   O11 4448   1.733   4.255   5.902  0.0230 -0.2789 -0.2890
   59SAPC    C1 4449   1.723   4.346   5.790 -0.5556  0.3684  0.3729
   59SAPC    HA 4450   1.745   4.448   5.828 -2.0304 -0.0629  2.5004
   59SAPC    HB 4451   1.806   4.323   5.720  1.3565  2.4843  1.8831
   59SAPC    C2 4452   1.578   4.338   5.722 -0.7443 -0.0453 -0.6211
   59SAPC    HS 4453   1.499   4.329   5.799 -1.0984  2.3636 -0.6820
   59SAPC   O21 4454   1.573   4.218   5.644  0.5037 -0.4284 -0.3654
   59SAPC   C21 4455   1.448   4.170   5.620  0.0952  0.0481 -0.7371
   59SAPC   O22 4456   1.346   4.218   5.675 -0.7679  0.1746  0.2216
   59SAPC   C22 4457   1.451   4.048   5.529  0.7073 -0.2555 -0.1880
   59SAPC   H2R 4458   1.535   4.052   5.456  1.3547  0.3291  0.5797
   59SAPC   H2S 4459   1.454   3.954   5.588 -2.5835 -0.9039 -0.9475
   59SAPC    C3 4460   1.565   4.456   5.636  0.6819  0.0973  0.3865
   59SAPC    HX 4461   1.580   4.546   5.700  2.1743  1.9201 -2.4291
   59SAPC    HY 4462   1.466   4.463   5.586 -0.9477 -0.4893  3.4313
   59SAPC   O31 4463   1.673   4.462   5.539 -0.1387 -0.0762  0.2468
   59SAPC   C31 4464   1.629   4.412   5.422 -0.0165  0.3809 -0.6470
   59SAPC   O32 4465   1.526   4.355   5.395  0.4260 -0.1187 -0.0906
   59SAPC   C32 4466   1.738   4.442   5.318 -0.5317 -0.4839 -0.6689
   59SAPC   H2X 4467   1.839   4.428   5.364  0.0670  1.3414 -1.3932
   59SAPC   H2Y 4468   1.718   4.551   5.321  0.6665 -0.1634 -2.6958
   59SAPC   C23 4469   1.330   4.061   5.441  0.2660  0.4038  0.0237
   59SAPC   H3R 4470   1.356   3.991   5.358  0.2249 -1.1156  1.2643
   59SAPC   H3S 4471   1.319   4.162   5.395  1.1789  0.5538  0.1196
   59SAPC   C24 4472   1.197   4.006   5.498 -0.5846  0.5937  0.1986
   59SAPC   H4R 4473   1.112   4.045   5.438 -1.2642 -2.9519 -1.2311
   59SAPC   H4S 4474   1.177   4.057   5.595 -0.7188 -1.8613  1.4975
   59SAPC   C25 4475   1.201   3.853   5.524  1.2522 -0.1554 -0.1803
   59SAPC   H5R 4476   1.217   3.817   5.627  0.6615 -1.5355 -0.5616
   59SAPC   C26 4477   1.195   3.759   5.426 -0.7154  0.5125 -0.7987
   59SAPC   H6R 4478   1.209   3.654   5.457 -1.1906  0.1412 -1.7933
   59SAPC   C27 4479   1.185   3.789   5.274 -0.0643  0.0415 -0.0596
   59SAPC   H7R 4480   1.179   3.899   5.265 -0.5873 -0.0311 -0.6249
   59SAPC   H7S 4481   1.085   3.751   5.244  0.5673 -2.7592  1.1611
   59SAPC   C28 4482   1.293   3.724   5.190  0.1647  0.0380  0.3535
   59SAPC   H8R 4483   1.358   3.654   5.244  0.9933  0.1922 -0.4345
   59SAPC   C29 4484   1.298   3.712   5.054 -0.5320 -0.1982 -0.3406
   59SAPC   H9R 4485   1.387   3.664   5.010  0.2678 -0.7738  1.7998
   59SAPC  C210 4486   1.197   3.759   4.954 -0.1762  0.7018  0.5233
   59SAPC  H10R 4487   1.103   3.789   5.007 -0.8866 -1.6278  0.6125
   59SAPC  H10S 4488   1.168   3.678   4.885 -0.1152  0.9181  0.2427
   59SAPC  C211 4489   1.258   3.869   4.875 -0.3571  0.0442 -0.0846
   59SAPC  H11R 4490   1.342   3.830   4.816  2.0504  4.5077  0.1235
   59SAPC  C212 4491   1.216   3.997   4.853  0.0327 -0.7373  0.0082
   59SAPC  H12R 4492   1.284   4.077   4.822 -4.2577  3.8044  1.6175
   59SAPC  C213 4493   1.085   4.055   4.910  0.2042  0.0383 -0.4509
   59SAPC  H13R 4494   1.021   3.973   4.949 -0.2668  0.3230 -0.6234
   59SAPC  H13S 4495   1.027   4.098   4.826  0.4189  1.7796  0.2636
   59SAPC  C214 4496   1.094   4.158   5.016  0.2584 -0.7472 -0.8970
   59SAPC  H14R 4497   1.170   4.139   5.094 -1.3413  2.2621  1.5082
   59SAPC  C215 4498   1.011   4.262   5.043 -0.1812 -0.3038 -0.1035
   59SAPC  H15R 4499   1.035   4.330   5.125  0.5029  0.1194 -0.6468
   59SAPC  C216 4500   0.892   4.299   4.960 -0.3160  0.6182  0.1178
   59SAPC  H16R 4501   0.810   4.328   5.029 -0.1895 -0.4625  0.7365
   59SAPC  H16S 4502   0.848   4.219   4.898 -3.6738  0.8729  2.0622
   59SAPC  C217 4503   0.922   4.426   4.872  0.8679 -0.7593  1.1429
   59SAPC  H17R 4504   0.975   4.504   4.931  2.3340  0.2585 -1.4396
   59SAPC  H17S 4505   0.833   4.475   4.829  1.1414 -1.6886 -0.5096
   59SAPC  C218 4506   1.010   4.387   4.749  0.3635 -0.0815  0.0096
   59SAPC  H18R 4507   0.972   4.298   4.694 -0.5578 -0.8796  1.8730
   59SAPC  H18S 4508   1.112   4.358   4.781 -0.5292 -0.4511  2.6723
   59SAPC  C219 4509   1.029   4.491   4.648  0.1685 -0.8453 -0.2067
   59SAPC  H19R 4510   1.106   4.455   4.576  1.4971 -2.4058  1.9157
   59SAPC  H19S 4511   1.094   4.565   4.701  0.6515 -0.0684 -1.8704
   59SAPC  C220 4512   0.913   4.548   4.567 -0.3723  0.3012 -0.6443
   59SAPC  H20R 4513   0.951   4.632   4.506  0.9804  0.7629  0.7676
   59SAPC  H20S 4514   0.834   4.581   4.639 -0.8361 -0.7907 -0.6385
   59SAPC  H20T 4515   0.864   4.469   4.506 -1.2345  0.1150  0.2646
   59SAPC   C33 4516   1.725   4.370   5.181  0.0804  0.0890  0.7511
   59SAPC   H3X 4517   1.616   4.365   5.163  0.4889 -1.1640 -1.5320
   59SAPC   H3Y 4518   1.762   4.266   5.165  1.0696  0.5892 -0.2981
   59SAPC   C34 4519   1.774   4.463   5.071  0.4987  0.1595 -0.5089
   59SAPC   H4X 4520   1.762   4.567   5.107  0.1072 -0.9059  2.6199
   59SAPC   H4Y 4521   1.703   4.441   4.989  2.5878 -3.2924 -1.4746
   59SAPC   C35 4522   1.914   4.429   5.015 -0.4864 -0.6911 -0.1043
   59SAPC   H5X 4523   1.911   4.321   4.988  0.6716 -0.8541  0.3805
   59SAPC   H5Y 4524   1.987   4.456   5.094 -1.7138 -1.3850  1.2803
   59SAPC   C36 4525   1.945   4.509   4.888  0.6251  0.4477 -0.7823
   59SAPC   H6X 4526   1.884   4.468   4.805  1.7027  1.3376 -2.0404
   59SAPC   H6Y 4527   2.053   4.484   4.876  0.7597  0.0700  1.1091
   59SAPC   C37 4528   1.929   4.663   4.899  0.2362 -0.4299  0.1562
   59SAPC   H7X 4529   2.028   4.706   4.926  0.4782 -1.2158  0.5256
   59SAPC   H7Y 4530   1.858   4.688   4.981 -2.0483 -2.3382 -1.1638
   59SAPC   C38 4531   1.885   4.730   4.765  0.6576 -0.5244 -0.8738
   59SAPC   H8X 4532   1.901   4.838   4.784  0.7280 -0.6819 -0.0173
   59SAPC   H8Y 4533   1.776   4.721   4.744  0.4421 -0.0769 -0.0020
   59SAPC   C39 4534   1.960   4.684   4.643  0.3292  0.3206 -0.9742
   59SAPC   H9X 4535   1.915   4.590   4.605  1.4154 -0.1616 -1.0869
   59SAPC   H9Y 4536   2.066   4.681   4.674 -0.1624 -2.8346  0.5966
   59SAPC  C310 4537   1.956   4.783   4.524 -0.2480 -0.5642 -0.5479
   59SAPC  H10X 4538   2.038   4.757   4.454  1.2226  1.7792  0.2332
   59SAPC  H10Y 4539   1.973   4.885   4.565 -0.2373 -0.9925  0.5390
   59SAPC  C311 4540   1.828   4.788   4.436  0.6639 -0.5010  0.5395
   59SAPC  H11X 4541   1.754   4.836   4.503  0.7597 -0.4465  0.6064
   59SAPC  H11Y 4542   1.790   4.688   4.407  0.9789 -0.7543  1.0108
   59SAPC  C312 4543   1.854   4.884   4.320 -0.0977 -0.5155 -0.6396
   59SAPC  H12X 4544   1.945   4.857   4.262  0.1907 -0.3791 -0.2535
   59SAPC  H12Y 4545   1.870   4.988   4.355  2.4360 -0.2939 -2.2872
   59SAPC  C313 4546   1.728   4.892   4.223  0.0319  0.0130  0.1717
   59SAPC  H13X 4547   1.655   4.962   4.269 -2.1314 -1.7021 -0.6186
   59SAPC  H13Y 4548   1.676   4.795   4.231  2.6635 -1.2374  3.3670
   59SAPC  C314 4549   1.754   4.928   4.075 -0.1330  1.2303  0.1095
   59SAPC  H14X 4550   1.802   4.850   4.013  3.0767  3.1046  0.1217
   59SAPC  H14Y 4551   1.823   5.015   4.086 -2.6641  3.0561  2.3105
   59SAPC  C315 4552   1.629   4.974   4.007  0.4137 -0.8868  0.1694
   59SAPC  H15X 4553   1.657   5.023   3.912  1.5955 -0.6226  0.6499
   59SAPC  H15Y 4554   1.580   5.057   4.062  0.5883 -0.7485  0.1145
   59SAPC  C316 4555   1.520   4.864   3.981 -0.6940 -0.1877  0.2148
   59SAPC  H16X 4556   1.481   4.828   4.079 -0.4781  2.8056  1.4388
   59SAPC  H16Y 4557   1.572   4.777   3.934 -2.0387 -0.7093 -0.3188
   59SAPC  C317 4558   1.411   4.912   3.887  0.1013  0.5724  0.0366
   59SAPC  H17X 4559   1.331   4.835   3.882  1.0076 -0.3917  0.2126
   59SAPC  H17Y 4560   1.440   4.924   3.781  1.0097 -1.7903 -0.0242
   59SAPC  C318 4561   1.333   5.036   3.946  0.4498  0.2427  0.8625
   59SAPC  H18X 4562   1.368   5.127   3.891  0.0275 -0.1526 -0.0731
   59SAPC  H18Y 4563   1.351   5.055   4.054 -1.9365  1.3950  1.1033
   59SAPC  H18Z 4564   1.225   5.033   3.921  0.8368 -0.1311 -0.8648
   60SAPC     N 4565   1.299   5.059   6.361 -0.0171  0.2385 -0.5268
   60SAPC   C12 4566   1.225   5.074   6.225 -0.1519 -0.0091  0.3991
   60SAPC  H12A 4567   1.207   5.180   6.215 -0.1750  0.2384  2.7248
   60SAPC  H12B 4568   1.128   5.031   6.241 -0.3206  0.9346  2.0199
   60SAPC   C13 4569   1.440   5.089   6.339  0.6086 -0.1937  0.5307
   60SAPC  H13A 4570   1.488   5.042   6.254 -0.9027  0.1238 -0.5302
   60SAPC  H13B 4571   1.451   5.196   6.329 -3.6852  0.4069  1.4998
   60SAPC  H13C 4572   1.507   5.063   6.420  1.6511 -0.9099 -0.5458
   60SAPC   C14 4573   1.243   5.162   6.457 -0.6170  0.4345 -0.0144
   60SAPC  H14A 4574   1.141   5.133   6.475 -1.4073  2.1976 -1.4384
   60SAPC  H14B 4575   1.279   5.162   6.559 -3.0341  1.5260  0.8885
   60SAPC  H14C 4576   1.250   5.257   6.406  2.1456  0.2864  0.0154
   60SAPC   C15 4577   1.281   4.927   6.416 -0.0969  0.5126 -0.5938
   60SAPC  H15A 4578   1.341   4.854   6.362  1.6178  0.3216  1.5065
   60SAPC  H15B 4579   1.310   4.923   6.520 -2.2941 -1.5685 -0.0202
   60SAPC  H15C 4580   1.179   4.892   6.410 -0.1783  0.3579  1.5384
   60SAPC   C11 4581   1.281   5.024   6.090 -0.4931  0.2735 -0.2679
   60SAPC  H11A 4582   1.390   5.042   6.079 -0.5578  1.5649  0.9851
   60SAPC  H11B 4583   1.228   5.078   6.009 -0.8104  0.7279  0.2411
   60SAPC     P 4584   1.126   4.798   6.074 -0.2423 -0.4325  0.1130
   60SAPC   O13 4585   1.135   4.681   6.160 -0.1049  0.2813 -0.4419
   60SAPC   O14 4586   1.010   4.888   6.091 -0.3462 -0.2567 -0.5168
   60SAPC   O12 4587   1.262   4.878   6.089 -0.2902 -0.2507  0.3599
   60SAPC   O11 4588   1.125   4.762   5.924  0.0081  0.1427  0.0847
   60SAPC    C1 4589   1.181   4.831   5.817 -0.0841  0.1625  0.1286
   60SAPC    HA 4590   1.168   4.941   5.826 -1.6247 -0.0225  0.1700
   60SAPC    HB 4591   1.289   4.803   5.814  0.4494  1.9042  2.0624
   60SAPC    C2 4592   1.125   4.780   5.673  0.5375  0.1722  0.7970
   60SAPC    HS 4593   1.016   4.799   5.681  0.6085  0.1354  1.9305
   60SAPC   O21 4594   1.171   4.637   5.653  0.5278 -0.2625  0.1952
   60SAPC   C21 4595   1.084   4.589   5.556 -0.9413 -0.1716 -0.2067
   60SAPC   O22 4596   0.973   4.630   5.537 -0.0065  0.5199 -0.6545
   60SAPC   C22 4597   1.153   4.481   5.485 -0.0677 -0.9959  0.5667
   60SAPC   H2R 4598   1.262   4.498   5.479 -0.1159 -0.4714  1.1329
   60SAPC   H2S 4599   1.135   4.383   5.535 -1.7271 -0.0110  1.9561
   60SAPC    C3 4600   1.183   4.884   5.566  0.6781 -0.1661  0.3209
   60SAPC    HX 4601   1.117   4.972   5.580 -0.6859 -1.3293  1.2811
   60SAPC    HY 4602   1.162   4.833   5.469 -0.2458  2.0718 -0.6893
   60SAPC   O31 4603   1.322   4.910   5.587  0.3849 -0.3284  0.1658
   60SAPC   C31 4604   1.412   4.819   5.540  0.0864 -0.0263 -0.4969
   60SAPC   O32 4605   1.393   4.717   5.474  0.6347 -0.3007  0.2761
   60SAPC   C32 4606   1.548   4.854   5.609  0.2086 -0.0918  0.1340
   60SAPC   H2X 4607   1.559   4.782   5.694  2.1771 -1.2499 -1.0494
   60SAPC   H2Y 4608   1.540   4.949   5.665  1.8988 -0.4073  0.9442
   60SAPC   C23 4609   1.104   4.454   5.349  0.4963 -0.1202  0.4983
   60SAPC   H3R 4610   0.995   4.436   5.351  0.4084  0.5106  1.3859
   60SAPC   H3S 4611   1.144   4.360   5.306 -0.8540 -1.2137  1.5763
   60SAPC   C24 4612   1.140   4.567   5.247  0.3694 -0.6596  0.4952
   60SAPC   H4R 4613   1.117   4.671   5.280  0.8596 -0.7178  1.0407
   60SAPC   H4S 4614   1.079   4.554   5.156  0.4740 -2.2114  0.6455
   60SAPC   C25 4615   1.289   4.558   5.215  0.3199  0.2589  0.6433
   60SAPC   H5R 4616   1.354   4.532   5.299  2.2641 -2.4674 -1.5654
   60SAPC   C26 4617   1.341   4.558   5.092 -0.1468  0.7603  0.1368
   60SAPC   H6R 4618   1.447   4.530   5.085 -0.3989  0.0802 -1.1136
   60SAPC   C27 4619   1.278   4.566   4.960 -0.0687 -0.1914 -0.3410
   60SAPC   H7R 4620   1.168   4.579   4.957 -0.3863 -1.1423  3.9931
   60SAPC   H7S 4621   1.295   4.466   4.915 -3.3576  0.0608 -2.3554
   60SAPC   C28 4622   1.359   4.674   4.899 -0.3452 -0.6619 -0.7301
   60SAPC   H8R 4623   1.468   4.665   4.886  0.1658  2.4836  0.8619
   60SAPC   C29 4624   1.313   4.791   4.854 -0.3765 -0.0071 -0.2500
   60SAPC   H9R 4625   1.380   4.850   4.790  0.7028  0.7136  1.4859
   60SAPC  C210 4626   1.175   4.855   4.857  0.0697 -0.0913  0.5080
   60SAPC  H10R 4627   1.104   4.782   4.901  0.5451 -0.1252  1.2338
   60SAPC  H10S 4628   1.143   4.893   4.758 -0.1662  0.4434  0.7899
   60SAPC  C211 4629   1.192   4.978   4.941  0.4540 -0.2264  0.7896
   60SAPC  H11R 4630   1.240   4.962   5.039  2.5735  0.9302 -0.0295
   60SAPC  C212 4631   1.152   5.101   4.907  0.2185 -0.3350  0.4491
   60SAPC  H12R 4632   1.174   5.180   4.981  3.3690  0.7221 -1.5430
   60SAPC  C213 4633   1.087   5.134   4.772  0.3383  0.0705  0.7876
   60SAPC  H13R 4634   1.012   5.064   4.730  0.3251 -0.1203  1.1334
   60SAPC  H13S 4635   1.164   5.142   4.692 -1.5616  2.4893 -0.8806
   60SAPC  C214 4636   1.028   5.269   4.785  0.5849  0.8362 -0.4232
   60SAPC  H14R 4637   1.102   5.349   4.803  1.5780 -0.3477  0.9534
   60SAPC  C215 4638   0.894   5.295   4.775  0.0096 -0.1895  0.2875
   60SAPC  H15R 4639   0.865   5.400   4.785 -0.1859 -0.1717 -0.4492
   60SAPC  C216 4640   0.785   5.196   4.750  0.7127  0.6820 -0.0420
   60SAPC  H16R 4641   0.690   5.222   4.802  0.3571  0.2124 -0.4534
   60SAPC  H16S 4642   0.810   5.091   4.780  0.8116  0.9792  0.9501
   60SAPC  C217 4643   0.754   5.184   4.597 -0.3090  0.5418 -0.5336
   60SAPC  H17R 4644   0.839   5.158   4.530  1.6725 -1.5930  2.6669
   60SAPC  H17S 4645   0.722   5.282   4.556  0.1773  0.1991 -1.7559
   60SAPC  C218 4646   0.656   5.065   4.568 -0.3851  0.2626  0.1084
   60SAPC  H18R 4647   0.585   5.067   4.654 -0.2185  0.0939  0.2519
   60SAPC  H18S 4648   0.715   4.971   4.563  1.1135  1.0845  1.5564
   60SAPC  C219 4649   0.578   5.083   4.439 -0.0088  0.1525 -0.2883
   60SAPC  H19R 4650   0.649   5.100   4.355 -1.1592  2.9042 -0.7743
   60SAPC  H19S 4651   0.500   5.163   4.439  2.1946  2.4204  2.1909
   60SAPC  C220 4652   0.505   4.960   4.406 -0.0842  0.5387 -0.3352
   60SAPC  H20R 4653   0.428   4.953   4.485 -0.2692  1.4775 -0.4206
   60SAPC  H20S 4654   0.565   4.867   4.400  0.6862  0.8104  2.4159
   60SAPC  H20T 4655   0.460   4.964   4.304 -0.1156 -1.1422 -0.4016
   60SAPC   C33 4656   1.664   4.851   5.514  0.6761  0.4595 -0.2767
   60SAPC   H3X 4657   1.665   4.764   5.445  0.5018  0.8330 -0.7493
   60SAPC   H3Y 4658   1.766   4.853   5.557  0.6338 -0.9054 -0.1037
   60SAPC   C34 4659   1.660   4.971   5.411  0.4224  0.7716 -0.1259
   60SAPC   H4X 4660   1.764   4.988   5.377 -0.3719 -0.4871 -3.3095
   60SAPC   H4Y 4661   1.630   5.064   5.464 -2.9427 -0.8545  0.9376
   60SAPC   C35 4662   1.579   4.937   5.286  0.2871  0.3812 -0.4578
   60SAPC   H5X 4663   1.473   4.941   5.320  0.7075 -0.2806  0.9444
   60SAPC   H5Y 4664   1.607   4.835   5.250  0.1382  0.8088 -1.8211
   60SAPC   C36 4665   1.588   5.029   5.162  0.4731  0.0324  0.1629
   60SAPC   H6X 4666   1.598   5.130   5.205  1.0148  0.0290  0.0448
   60SAPC   H6Y 4667   1.494   5.026   5.103  0.2183  1.3987  0.4900
   60SAPC   C37 4668   1.703   4.997   5.067  0.1530 -0.8701 -0.4561
   60SAPC   H7X 4669   1.698   4.899   5.017 -1.6003 -1.3680  0.6276
   60SAPC   H7Y 4670   1.789   4.999   5.137 -0.2609  2.0089  0.0686
   60SAPC   C38 4671   1.714   5.105   4.958 -1.0601 -0.4612 -0.4674
   60SAPC   H8X 4672   1.813   5.149   4.931 -0.9694  0.5556  1.4560
   60SAPC   H8Y 4673   1.657   5.189   5.003  1.2787 -0.4359  2.6572
   60SAPC   C39 4674   1.637   5.070   4.830  0.0204  0.6695 -0.4379
   60SAPC   H9X 4675   1.556   5.000   4.861  1.5900 -0.1080  2.0365
   60SAPC   H9Y 4676   1.708   5.019   4.761  1.8349  3.7497 -0.9031
   60SAPC  C310 4677   1.580   5.195   4.762 -0.5148  0.1304  0.3802
   60SAPC  H10X 4678   1.655   5.258   4.710  0.1837  0.4973  1.7822
   60SAPC  H10Y 4679   1.525   5.262   4.832 -1.6748  0.3352 -0.7166
   60SAPC  C311 4680   1.485   5.160   4.650  0.2936  0.3622  0.1995
   60SAPC  H11X 4681   1.406   5.094   4.694  1.2773 -0.0860  1.3277
   60SAPC  H11Y 4682   1.546   5.104   4.576  1.0208 -1.1351  1.8987
   60SAPC  C312 4683   1.422   5.279   4.576 -0.1415 -0.4433  0.4170
   60SAPC  H12X 4684   1.509   5.340   4.544  1.2726 -1.7776  1.6553
   60SAPC  H12Y 4685   1.351   5.334   4.642 -0.2714  0.8321 -0.7492
   60SAPC  C313 4686   1.342   5.242   4.446 -0.0077 -0.5290 -0.5574
   60SAPC  H13X 4687   1.265   5.165   4.469 -0.5445  0.0841 -0.2536
   60SAPC  H13Y 4688   1.413   5.193   4.377  2.3799 -0.3419  1.6749
   60SAPC  C314 4689   1.277   5.368   4.388  1.0709  0.0015  0.3338
   60SAPC  H14X 4690   1.349   5.453   4.382 -1.7945  2.4047 -2.0370
   60SAPC  H14Y 4691   1.205   5.414   4.459  2.2957  0.4841  1.2799
   60SAPC  C315 4692   1.201   5.340   4.254  0.0995  0.2257 -0.0716
   60SAPC  H15X 4693   1.263   5.263   4.204 -0.3978  0.4186 -1.0035
   60SAPC  H15Y 4694   1.199   5.430   4.189 -0.9559 -0.2802 -0.7589
   60SAPC  C316 4695   1.056   5.283   4.273  0.7869  0.5333 -0.1382
   60SAPC  H16X 4696   0.986   5.340   4.338  0.3019  1.7444 -1.6918
   60SAPC  H16Y 4697   1.071   5.184   4.322  0.2581  1.8189  2.7269
   60SAPC  C317 4698   0.985   5.262   4.136 -0.8976 -0.2176  0.3296
   60SAPC  H17X 4699   1.053   5.209   4.066  2.3159  1.4088  2.1320
   60SAPC  H17Y 4700   0.963   5.364   4.095 -1.1669  0.0441  1.1281
   60SAPC  C318 4701   0.850   5.183   4.161  0.5182 -0.3254 -0.8539
   60SAPC  H18X 4702   0.855   5.090   4.221 -0.5322 -1.2190 -2.1078
   60SAPC  H18Y 4703   0.801   5.161   4.063  1.8070 -0.2651 -1.5165
   60SAPC  H18Z 4704   0.773   5.240   4.217 -0.8107 -2.3629 -0.5438
   61SAPC     N 4705   6.400   4.843   5.949  0.2125  0.3706  0.6905
   61SAPC   C12 4706   6.513   4.808   6.055  0.0271  0.2137  0.5769
   61SAPC  H12A 4707   6.607   4.783   6.009  0.3432 -1.2156  1.9662
   61SAPC  H12B 4708   6.480   4.713   6.094 -1.9181  1.0990  1.1945
   61SAPC   C13 4709   6.404   4.737   5.838  0.3797  0.2586 -0.1234
   61SAPC  H13A 4710   6.346   4.756   5.749 -0.9441  1.1410  0.8994
   61SAPC  H13B 4711   6.507   4.729   5.807  0.2282  0.2261 -0.6201
   61SAPC  H13C 4712   6.357   4.649   5.881 -3.4939  0.6614 -3.2072
   61SAPC   C14 4713   6.256   4.851   6.007  0.4679  0.2093 -0.7561
   61SAPC  H14A 4714   6.181   4.855   5.929 -1.4820  1.1761  1.1013
   61SAPC  H14B 4715   6.232   4.760   6.061 -0.3321  0.2532 -1.0302
   61SAPC  H14C 4716   6.253   4.941   6.067 -0.4618  0.0455 -0.5482
   61SAPC   C15 4717   6.432   4.980   5.887 -0.6785 -0.0771 -0.0555
   61SAPC  H15A 4718   6.447   5.054   5.964 -2.1938  0.4111 -0.2132
   61SAPC  H15B 4719   6.525   4.969   5.835 -1.1253  0.2498 -0.9282
   61SAPC  H15C 4720   6.356   5.028   5.828  0.9687  0.1888 -1.9939
   61SAPC   C11 4721   6.531   4.903   6.177 -0.5122 -0.8100 -0.5577
   61SAPC  H11A 4722   6.567   4.992   6.123  2.9227 -0.8651  1.5083
   61SAPC  H11B 4723   6.610   4.877   6.251 -0.7225  0.5849  0.1775
   61SAPC     P 4724   6.355   5.061   6.285 -0.2254  0.0143 -0.0250
   61SAPC   O13 4725   6.293   5.116   6.166 -0.0311  0.1943  0.0906
   61SAPC   O14 4726   6.263   5.062   6.400 -0.4803 -0.1377 -0.4649
   61SAPC   O12 4727   6.414   4.922   6.262  0.3560  0.7206 -0.8048
   61SAPC   O11 4728   6.487   5.147   6.315  0.0916  0.6768  0.2315
   61SAPC    C1 4729   6.527   5.248   6.227 -0.0150  0.9847 -0.1610
   61SAPC    HA 4730   6.554   5.205   6.128 -0.5823 -1.0146  0.5326
   61SAPC    HB 4731   6.455   5.332   6.213  0.2823  0.9591 -2.0316
   61SAPC    C2 4732   6.658   5.310   6.274  0.2201 -0.0342  0.5068
   61SAPC    HS 4733   6.637   5.377   6.360  2.4714  0.2658  0.8386
   61SAPC   O21 4734   6.711   5.385   6.164 -0.0698 -0.5717 -0.3609
   61SAPC   C21 4735   6.809   5.475   6.190  0.1227 -0.2450 -0.4103
   61SAPC   O22 4736   6.853   5.509   6.298  0.1700 -0.3910  0.1029
   61SAPC   C22 4737   6.833   5.548   6.054 -0.1140  0.4407  0.0356
   61SAPC   H2R 4738   6.731   5.581   6.024 -0.3215 -1.2443 -1.1600
   61SAPC   H2S 4739   6.893   5.638   6.079  1.0557  0.4409 -2.6411
   61SAPC    C3 4740   6.758   5.190   6.324  0.0833  0.3952  0.5504
   61SAPC    HX 4741   6.715   5.137   6.412  0.3232 -0.4740  0.1478
   61SAPC    HY 4742   6.849   5.239   6.366 -0.4300  0.1928  1.9466
   61SAPC   O31 4743   6.786   5.095   6.225 -0.1990  0.0153 -0.1019
   61SAPC   C31 4744   6.908   5.099   6.157  1.1073  0.1328  0.2679
   61SAPC   O32 4745   6.992   5.186   6.172  0.2540  0.2507 -0.8543
   61SAPC   C32 4746   6.913   4.990   6.053  0.7097  0.1513  0.8292
   61SAPC   H2X 4747   6.840   4.910   6.080 -1.5857  0.9341 -2.7098
   61SAPC   H2Y 4748   7.021   4.964   6.053  0.9490  1.1427  0.5669
   61SAPC   C23 4749   6.912   5.473   5.957  0.4060 -0.2924 -0.6044
   61SAPC   H3R 4750   6.852   5.395   5.906  1.7086 -0.8089 -1.3751
   61SAPC   H3S 4751   7.005   5.426   5.997  0.4851 -0.1917 -0.6693
   61SAPC   C24 4752   6.959   5.563   5.840 -0.1466 -0.5637 -0.3280
   61SAPC   H4R 4753   7.050   5.516   5.797 -0.8387 -2.2059 -0.0471
   61SAPC   H4S 4754   6.986   5.663   5.878 -0.1986  0.0862 -1.9776
   61SAPC   C25 4755   6.850   5.579   5.741  0.1067  0.0760 -0.1386
   61SAPC   H5R 4756   6.784   5.662   5.771 -0.1110 -1.4564  3.9972
   61SAPC   C26 4757   6.834   5.505   5.630  0.1211  0.0413  1.1566
   61SAPC   H6R 4758   6.739   5.521   5.577  2.0535  2.9929 -1.6552
   61SAPC   C27 4759   6.914   5.388   5.571  0.0963 -0.1796 -0.3081
   61SAPC   H7R 4760   6.857   5.297   5.542 -1.4906  0.0309  1.9744
   61SAPC   H7S 4761   6.992   5.345   5.637  0.7083  0.1958 -0.7922
   61SAPC   C28 4762   6.988   5.443   5.449 -0.4869 -0.9875  0.2116
   61SAPC   H8R 4763   7.040   5.537   5.474 -0.7333 -0.5431 -0.9246
   61SAPC   C29 4764   7.002   5.384   5.329  0.5717 -0.5732 -0.1100
   61SAPC   H9R 4765   7.085   5.417   5.264  0.0257 -0.5872 -0.8134
   61SAPC  C210 4766   6.944   5.255   5.292  0.4969 -0.0628  0.0291
   61SAPC  H10R 4767   6.836   5.255   5.268  0.0671 -1.2227  1.8843
   61SAPC  H10S 4768   6.955   5.179   5.372 -0.2148 -0.2870 -0.0880
   61SAPC  C211 4769   7.010   5.194   5.167 -0.5663 -0.5143 -0.2534
   61SAPC  H11R 4770   6.998   5.253   5.075  0.7611 -0.9497 -0.7066
   61SAPC  C212 4771   7.082   5.081   5.163  0.1712 -0.2919  0.0971
   61SAPC  H12R 4772   7.128   5.054   5.066 -1.0901 -1.1453 -0.2660
   61SAPC  C213 4773   7.124   4.992   5.273 -0.0810 -0.6386 -0.9252
   61SAPC  H13R 4774   7.111   5.032   5.376 -2.2513  0.9320 -1.7584
   61SAPC  H13S 4775   7.234   4.976   5.267  0.6189  3.3735 -0.0959
   61SAPC  C214 4776   7.065   4.855   5.258  0.0695 -0.0209 -0.7953
   61SAPC  H14R 4777   6.958   4.840   5.279  0.4824 -2.1904 -0.1599
   61SAPC  C215 4778   7.136   4.745   5.215 -0.1411 -0.3550  0.1706
   61SAPC  H15R 4779   7.074   4.654   5.202 -0.2205  0.0535 -2.8502
   61SAPC  C216 4780   7.277   4.730   5.175 -0.0465 -0.9181  0.0108
   61SAPC  H16R 4781   7.320   4.644   5.230 -0.4546 -1.3557 -0.3518
   61SAPC  H16S 4782   7.332   4.824   5.196  2.8744 -2.6843  0.4379
   61SAPC  C217 4783   7.293   4.707   5.019 -0.0648 -0.8188  0.4738
   61SAPC  H17R 4784   7.402   4.701   5.000 -0.3400 -1.6133 -0.9500
   61SAPC  H17S 4785   7.267   4.801   4.965  1.1528 -0.5765  0.2883
   61SAPC  C218 4786   7.222   4.583   4.950  0.1601  0.0264  0.0005
   61SAPC  H18R 4787   7.117   4.618   4.937 -0.1058 -0.7143  0.1584
   61SAPC  H18S 4788   7.224   4.494   5.016 -0.3825 -1.1766 -1.5864
   61SAPC  C219 4789   7.291   4.557   4.815 -1.1468 -0.7578 -0.8165
   61SAPC  H19R 4790   7.392   4.512   4.816  0.6305  2.9894 -0.8897
   61SAPC  H19S 4791   7.309   4.657   4.768  0.3057 -0.1215  0.9987
   61SAPC  C220 4792   7.208   4.476   4.719  0.3204  0.3059 -0.1745
   61SAPC  H20R 4793   7.113   4.523   4.684 -0.3100 -0.3299  0.6401
   61SAPC  H20S 4794   7.182   4.373   4.751  0.4146  0.6293  0.9413
   61SAPC  H20T 4795   7.265   4.467   4.624 -0.1497  1.0316 -0.5326
   61SAPC   C33 4796   6.885   5.058   5.918 -0.2227 -0.0959 -0.2194
   61SAPC   H3X 4797   6.936   5.157   5.906 -0.0407 -0.3126 -1.3646
   61SAPC   H3Y 4798   6.780   5.092   5.912 -0.6180 -0.5750  3.0964
   61SAPC   C34 4799   6.917   4.970   5.798  0.3629 -0.1250 -1.0047
   61SAPC   H4X 4800   6.858   4.877   5.815  0.9747 -0.2297  0.6160
   61SAPC   H4Y 4801   7.025   4.944   5.798  0.6347  0.8253  1.3618
   61SAPC   C35 4802   6.892   5.030   5.662 -0.4630  0.5401 -0.2289
   61SAPC   H5X 4803   6.940   4.963   5.587  0.1496 -1.6361  2.0360
   61SAPC   H5Y 4804   6.959   5.119   5.665 -0.1578  0.2552  2.6049
   61SAPC   C36 4805   6.746   5.060   5.623 -0.1100 -0.0396  0.4917
   61SAPC   H6X 4806   6.766   5.121   5.532 -0.8160 -1.5431 -0.6900
   61SAPC   H6Y 4807   6.695   5.127   5.696  1.7758  0.8977  0.9641
   61SAPC   C37 4808   6.653   4.939   5.585 -0.6628 -0.2688 -0.5846
   61SAPC   H7X 4809   6.637   4.886   5.681  1.8927  0.2114  0.1487
   61SAPC   H7Y 4810   6.714   4.873   5.520  0.1048  0.0672 -0.2074
   61SAPC   C38 4811   6.529   4.965   5.504  0.2974 -0.5471  0.1530
   61SAPC   H8X 4812   6.477   5.046   5.560  1.1894 -1.0706  1.7790
   61SAPC   H8Y 4813   6.467   4.874   5.511  0.4009 -0.5400  1.2635
   61SAPC   C39 4814   6.545   5.010   5.357  0.4223  0.0169  0.1201
   61SAPC   H9X 4815   6.615   5.096   5.357  0.0086  0.3559 -0.5424
   61SAPC   H9Y 4816   6.455   5.061   5.315 -0.7663 -2.8942 -1.0379
   61SAPC  C310 4817   6.587   4.902   5.257 -0.2394  0.7233 -0.1280
   61SAPC  H10X 4818   6.512   4.823   5.281 -1.8121  1.3530 -2.7360
   61SAPC  H10Y 4819   6.685   4.858   5.286 -0.3063 -0.2647 -1.3916
   61SAPC  C311 4820   6.595   4.955   5.113 -0.2595  0.4430  0.2384
   61SAPC  H11X 4821   6.646   5.053   5.110  0.1767  0.2204  0.2416
   61SAPC  H11Y 4822   6.487   4.972   5.094  0.0668  0.0124 -2.1247
   61SAPC  C312 4823   6.641   4.864   5.000  0.2121  0.0090  0.2605
   61SAPC  H12X 4824   6.640   4.911   4.899  1.2032 -0.3403  0.0798
   61SAPC  H12Y 4825   6.562   4.787   5.007  1.5233 -1.5342 -1.3523
   61SAPC  C313 4826   6.782   4.814   5.026  0.7597  0.3215  0.3409
   61SAPC  H13X 4827   6.778   4.748   5.116  0.0083  0.9194  0.7541
   61SAPC  H13Y 4828   6.851   4.901   5.037  0.3237  0.4125  2.7868
   61SAPC  C314 4829   6.821   4.728   4.898  0.2688  0.3771 -0.1454
   61SAPC  H14X 4830   6.743   4.650   4.882 -0.0876  0.8158 -0.5677
   61SAPC  H14Y 4831   6.906   4.664   4.932  0.6034  0.8361 -0.1214
   61SAPC  C315 4832   6.849   4.802   4.770  0.0117  0.2736 -0.2854
   61SAPC  H15X 4833   6.757   4.851   4.730 -0.6550  0.1265  1.0336
   61SAPC  H15Y 4834   6.866   4.721   4.695 -3.2021 -0.5734 -0.1798
   61SAPC  C316 4835   6.964   4.890   4.799  0.0981 -0.2530 -0.5615
   61SAPC  H16X 4836   7.020   4.847   4.884 -0.0711  1.9938  0.7365
   61SAPC  H16Y 4837   6.914   4.983   4.835  0.8753 -0.5068  1.2058
   61SAPC  C317 4838   7.063   4.899   4.685  0.5341 -0.7023 -0.7286
   61SAPC  H17X 4839   7.093   4.794   4.666  0.5008 -0.6352 -1.1557
   61SAPC  H17Y 4840   7.152   4.947   4.731  0.5970  1.6972 -3.2333
   61SAPC  C318 4841   7.005   4.979   4.561 -0.4399  0.8048 -0.1950
   61SAPC  H18X 4842   7.084   5.004   4.488 -0.8330 -1.7633 -1.5561
   61SAPC  H18Y 4843   6.926   5.055   4.580 -1.0346  0.8524 -2.7288
   61SAPC  H18Z 4844   6.938   4.903   4.515  0.1492  0.5795 -0.6812
   62SAPC     N 4845   0.820   3.296   6.453 -0.4066  0.0975  0.0967
   62SAPC   C12 4846   0.720   3.256   6.343 -0.4234 -0.2418 -0.5477
   62SAPC  H12A 4847   0.664   3.346   6.322  0.9160  0.4294 -1.2723
   62SAPC  H12B 4848   0.657   3.180   6.387 -1.5168  0.5689 -0.6818
   62SAPC   C13 4849   0.742   3.327   6.578 -0.2138 -0.1027  0.5716
   62SAPC  H13A 4850   0.707   3.429   6.569  4.0942  1.2890 -2.7638
   62SAPC  H13B 4851   0.653   3.270   6.598  0.0500  0.0036  2.0525
   62SAPC  H13C 4852   0.797   3.320   6.670 -0.8993  0.7890  1.0531
   62SAPC   C14 4853   0.909   3.177   6.479 -0.2196 -0.5114  0.1845
   62SAPC  H14A 4854   0.880   3.115   6.563 -2.2610  1.4405  0.9478
   62SAPC  H14B 4855   0.907   3.117   6.389 -0.7603  0.7201 -0.6354
   62SAPC  H14C 4856   1.013   3.204   6.492  0.2235 -1.8031 -0.5497
   62SAPC   C15 4857   0.893   3.419   6.410  0.5300  0.3091 -0.1255
   62SAPC  H15A 4858   0.965   3.402   6.332  1.9849 -0.7762  1.4323
   62SAPC  H15B 4859   0.823   3.496   6.382  0.5283  1.0634  1.8831
   62SAPC  H15C 4860   0.946   3.444   6.501 -1.0089 -1.4575  1.3133
   62SAPC   C11 4861   0.776   3.201   6.212 -0.1115  0.0272 -0.3134
   62SAPC  H11A 4862   0.867   3.255   6.181  0.5847 -1.1022 -0.2491
   62SAPC  H11B 4863   0.709   3.212   6.124  0.4916 -0.0816 -0.7884
   62SAPC     P 4864   0.687   2.956   6.226  0.3252  0.2192  0.2256
   62SAPC   O13 4865   0.748   2.828   6.237  0.6416  0.4734 -0.5516
   62SAPC   O14 4866   0.584   2.987   6.326  0.4642 -0.0321  0.1124
   62SAPC   O12 4867   0.803   3.067   6.236  0.0084 -0.0338  0.1348
   62SAPC   O11 4868   0.632   2.972   6.074 -0.0554 -0.6883 -1.0897
   62SAPC    C1 4869   0.509   3.038   6.044 -1.2430  0.3670 -0.4008
   62SAPC    HA 4870   0.422   2.978   6.079 -0.9407 -0.5103 -1.1450
   62SAPC    HB 4871   0.499   3.139   6.088 -0.0946  1.1713 -1.9185
   62SAPC    C2 4872   0.494   3.071   5.894 -0.1526 -0.5287 -0.4459
   62SAPC    HS 4873   0.407   3.139   5.888 -0.0453 -0.1660  1.9210
   62SAPC   O21 4874   0.482   2.953   5.819 -0.5780  0.1240  0.2197
   62SAPC   C21 4875   0.368   2.904   5.820  0.3686  0.3011  0.8723
   62SAPC   O22 4876   0.268   2.934   5.886  0.1215 -0.5113  0.2116
   62SAPC   C22 4877   0.371   2.785   5.723 -0.2691 -0.8684 -0.1348
   62SAPC   H2R 4878   0.468   2.782   5.669  0.0375  0.0880  0.3437
   62SAPC   H2S 4879   0.369   2.696   5.788  3.0820 -0.4182  0.6514
   62SAPC    C3 4880   0.613   3.153   5.838 -0.1893 -0.0628  0.3944
   62SAPC    HX 4881   0.702   3.096   5.872 -0.8571 -0.5997  1.2505
   62SAPC    HY 4882   0.614   3.256   5.880  0.6158  0.5219 -1.0284
   62SAPC   O31 4883   0.639   3.150   5.700 -0.1409  0.1090 -0.1455
   62SAPC   C31 4884   0.550   3.201   5.617  0.4395  0.2699 -0.3706
   62SAPC   O32 4885   0.458   3.275   5.643  0.0972  0.0363  0.0213
   62SAPC   C32 4886   0.592   3.171   5.475 -0.1918  0.4044  0.8401
   62SAPC   H2X 4887   0.691   3.216   5.456 -0.6690  0.4046 -1.8088
   62SAPC   H2Y 4888   0.514   3.219   5.412 -0.6879 -1.0326  0.3370
   62SAPC   C23 4889   0.246   2.783   5.619 -0.2910  0.0539 -0.4140
   62SAPC   H3R 4890   0.222   2.888   5.590 -1.1845  0.3474  1.2820
   62SAPC   H3S 4891   0.171   2.744   5.690 -1.0080  1.7416 -0.2161
   62SAPC   C24 4892   0.272   2.709   5.489  0.1698 -0.6214 -0.1152
   62SAPC   H4R 4893   0.338   2.621   5.506 -1.5434 -1.6315  1.4486
   62SAPC   H4S 4894   0.326   2.779   5.421  0.7487 -0.6833  0.2796
   62SAPC   C25 4895   0.141   2.663   5.439  0.1282  0.4462  0.4503
   62SAPC   H5R 4896   0.068   2.644   5.519 -0.0940 -2.1926 -0.3382
   62SAPC   C26 4897   0.111   2.640   5.312  0.5412 -0.2568 -0.1677
   62SAPC   H6R 4898   0.016   2.587   5.293  0.2107  0.4729 -0.5889
   62SAPC   C27 4899   0.184   2.656   5.185  0.0570  0.0749  0.6520
   62SAPC   H7R 4900   0.267   2.729   5.195  2.2238 -1.8851 -2.2569
   62SAPC   H7S 4901   0.123   2.710   5.110 -0.3730  0.2726  1.1386
   62SAPC   C28 4902   0.247   2.533   5.139  0.1318 -0.4298  0.7679
   62SAPC   H8R 4903   0.298   2.473   5.216  0.6407  0.8787  1.4505
   62SAPC   C29 4904   0.245   2.483   5.013  0.0236 -0.2713  0.7975
   62SAPC   H9R 4905   0.295   2.387   4.996  0.8673  0.4041 -0.6736
   62SAPC  C210 4906   0.177   2.524   4.879 -0.4547  0.1966 -0.7305
   62SAPC  H10R 4907   0.069   2.499   4.883 -0.1919 -0.9338 -0.5224
   62SAPC  H10S 4908   0.213   2.459   4.795 -2.3532 -1.3930 -0.3520
   62SAPC  C211 4909   0.206   2.668   4.831  0.5122  0.5907 -0.1411
   62SAPC  H11R 4910   0.260   2.744   4.889 -0.9546  0.5976  1.2366
   62SAPC  C212 4911   0.149   2.716   4.715  0.3746  0.8715 -0.4044
   62SAPC  H12R 4912   0.172   2.819   4.683  1.1653  1.1530  1.0179
   62SAPC  C213 4913   0.061   2.636   4.618  0.0976 -0.1579 -0.6632
   62SAPC  H13R 4914  -0.017   2.713   4.597  1.0415  0.8359 -0.5928
   62SAPC  H13S 4915   0.002   2.557   4.669  1.0014 -0.6086 -0.3181
   62SAPC  C214 4916   0.127   2.599   4.493  0.0006 -0.1119  0.2089
   62SAPC  H14R 4917   0.211   2.528   4.501  0.7662  0.5633 -1.5838
   62SAPC  C215 4918   0.112   2.642   4.363  0.4044 -0.2447  0.0045
   62SAPC  H15R 4919   0.182   2.610   4.284  0.0189 -1.4204  0.1269
   62SAPC  C216 4920   0.011   2.749   4.328 -0.0667  0.8420 -0.3009
   62SAPC  H16R 4921   0.070   2.842   4.314  0.3290  0.4443 -1.2924
   62SAPC  H16S 4922  -0.065   2.772   4.406 -0.1478  0.1662 -0.1807
   62SAPC  C217 4923  -0.064   2.721   4.200 -0.0476 -0.7189  0.4735
   62SAPC  H17R 4924  -0.001   2.695   4.112 -0.5000 -0.1643 -0.0231
   62SAPC  H17S 4925  -0.126   2.806   4.164  0.3624 -0.7957 -0.4372
   62SAPC  C218 4926  -0.170   2.612   4.218  0.1213  0.8216 -0.0004
   62SAPC  H18R 4927  -0.229   2.652   4.303 -2.9057  0.3628 -1.7975
   62SAPC  H18S 4928  -0.122   2.521   4.259 -0.3866  0.7452  0.4375
   62SAPC  C219 4929  -0.249   2.573   4.089  0.4370  0.1270  0.8098
   62SAPC  H19R 4930  -0.173   2.532   4.019  1.1939  1.1682  0.9985
   62SAPC  H19S 4931  -0.290   2.667   4.047  1.1993 -0.9442 -2.4797
   62SAPC  C220 4932  -0.354   2.460   4.109  0.3093  0.4082  0.3227
   62SAPC  H20R 4933  -0.430   2.501   4.179  0.0093  1.8605 -0.8329
   62SAPC  H20S 4934  -0.308   2.368   4.152 -1.1624  1.3642  4.1451
   62SAPC  H20T 4935  -0.409   2.436   4.016  0.5216 -2.8193  0.9528
   62SAPC   C33 4936   0.609   3.021   5.449  0.6036  0.5983 -0.2798
   62SAPC   H3X 4937   0.532   2.959   5.501  2.7189 -1.8949  0.0128
   62SAPC   H3Y 4938   0.710   2.989   5.483  0.1290  0.0204  0.6283
   62SAPC   C34 4939   0.590   2.992   5.301 -0.3634 -0.0145  0.1045
   62SAPC   H4X 4940   0.665   3.057   5.252  0.7400 -1.3460 -0.0138
   62SAPC   H4Y 4941   0.488   3.016   5.264 -1.0549 -2.6552  0.1628
   62SAPC   C35 4942   0.619   2.838   5.274 -0.1656 -0.4237 -0.4866
   62SAPC   H5X 4943   0.549   2.774   5.330 -1.3161  1.6852  0.5341
   62SAPC   H5Y 4944   0.725   2.823   5.305  0.6999  3.2728 -1.3805
   62SAPC   C36 4945   0.608   2.804   5.126  0.1946  0.1180 -0.4432
   62SAPC   H6X 4946   0.684   2.856   5.064  0.5632  0.0706 -0.0262
   62SAPC   H6Y 4947   0.510   2.845   5.093  0.6353  1.0996 -0.5555
   62SAPC   C37 4948   0.630   2.651   5.108 -0.1883  0.2581 -0.0487
   62SAPC   H7X 4949   0.549   2.595   5.160 -0.0469 -1.3027 -1.4466
   62SAPC   H7Y 4950   0.728   2.618   5.148  0.7533  1.1868 -1.5498
   62SAPC   C38 4951   0.634   2.613   4.963  0.6602 -0.0564 -1.2909
   62SAPC   H8X 4952   0.721   2.655   4.910  0.3639  0.2883 -1.5052
   62SAPC   H8Y 4953   0.549   2.660   4.910 -0.7765  1.0733  1.8916
   62SAPC   C39 4954   0.617   2.459   4.937 -0.5529  0.0695  0.4476
   62SAPC   H9X 4955   0.531   2.435   5.003 -1.5278 -1.0065 -1.1876
   62SAPC   H9Y 4956   0.699   2.396   4.978 -0.8003 -0.1233  0.6500
   62SAPC  C310 4957   0.591   2.421   4.797 -0.2072  0.0207 -0.3237
   62SAPC  H10X 4958   0.680   2.437   4.731 -1.4025  1.3853 -1.6347
   62SAPC  H10Y 4959   0.520   2.494   4.752 -0.4206 -0.5334 -0.8949
   62SAPC  C311 4960   0.547   2.279   4.769 -0.3247  0.4297 -0.3377
   62SAPC  H11X 4961   0.459   2.256   4.833  0.7724 -1.1397  0.6387
   62SAPC  H11Y 4962   0.632   2.218   4.805  0.4869  1.9130  0.3225
   62SAPC  C312 4963   0.531   2.251   4.622  0.3682  0.3320 -0.5407
   62SAPC  H12X 4964   0.633   2.243   4.578  0.9460  0.9944  0.6529
   62SAPC  H12Y 4965   0.487   2.341   4.574  0.6625  0.7164 -0.0945
   62SAPC  C313 4966   0.441   2.141   4.588  0.1297  0.1456 -0.1400
   62SAPC  H13X 4967   0.432   2.139   4.478  0.6954  3.2573 -0.2874
   62SAPC  H13Y 4968   0.338   2.167   4.622 -0.1061 -1.1642  0.1807
   62SAPC  C314 4969   0.485   2.006   4.642  0.1621 -0.0198 -0.2940
   62SAPC  H14X 4970   0.505   2.031   4.748 -0.2507  0.4366 -0.3216
   62SAPC  H14Y 4971   0.572   1.960   4.591  0.6799  1.4456 -0.7424
   62SAPC  C315 4972   0.376   1.903   4.640 -0.1865  0.7963 -0.4566
   62SAPC  H15X 4973   0.289   1.925   4.705 -0.6051 -1.7365 -0.1130
   62SAPC  H15Y 4974   0.430   1.810   4.668  1.2565  2.5207  2.7559
   62SAPC  C316 4975   0.327   1.862   4.494 -0.0704  0.3443 -0.4311
   62SAPC  H16X 4976   0.423   1.870   4.438 -0.2877 -0.0831 -0.8721
   62SAPC  H16Y 4977   0.266   1.943   4.449  0.2413  0.3489 -0.8586
   62SAPC  C317 4978   0.260   1.721   4.482 -0.8107 -0.7705  0.2167
   62SAPC  H17X 4979   0.185   1.708   4.564 -0.1108  2.3772  1.4247
   62SAPC  H17Y 4980   0.331   1.636   4.483  1.6796  1.2637  1.1558
   62SAPC  C318 4981   0.182   1.715   4.349  0.9878  0.6366 -0.5830
   62SAPC  H18X 4982   0.124   1.620   4.344  1.8492  0.1693 -2.0740
   62SAPC  H18Y 4983   0.255   1.727   4.266  1.8535  3.5018  0.5480
   62SAPC  H18Z 4984   0.111   1.799   4.342 -1.3433 -0.9746  2.6377
   63SAPC     N 4985   2.202   6.835   6.519 -0.2378  0.4287  0.6084
   63SAPC   C12 4986   2.085   6.768   6.451 -0.0057  0.3170  0.3897
   63SAPC  H12A 4987   2.009   6.844   6.460 -0.3271  0.1229 -0.6553
   63SAPC  H12B 4988   2.058   6.678   6.505 -0.8623  0.2270 -0.1920
   63SAPC   C13 4989   2.344   6.783   6.509  0.4610  0.2714 -0.9482
   63SAPC  H13A 4990   2.376   6.780   6.405 -0.8086 -0.5161 -1.3267
   63SAPC  H13B 4991   2.409   6.845   6.569 -0.0657 -1.0484  1.0179
   63SAPC  H13C 4992   2.342   6.681   6.544 -1.4103  0.4608 -0.4572
   63SAPC   C14 4993   2.199   6.980   6.467 -0.5336  0.1690 -0.1981
   63SAPC  H14A 4994   2.103   7.020   6.495 -0.3031  0.3928  0.2923
   63SAPC  H14B 4995   2.283   7.018   6.524 -0.5164 -0.1210 -0.0283
   63SAPC  H14C 4996   2.221   6.985   6.362 -0.2547 -2.2663 -0.2775
   63SAPC   C15 4997   2.168   6.828   6.669  0.2359 -0.3804  1.3624
   63SAPC  H15A 4998   2.170   6.725   6.703 -0.6992 -1.1056 -0.6894
   63SAPC  H15B 4999   2.232   6.893   6.727 -1.9229  1.1632  2.0869
   63SAPC  H15C 5000   2.068   6.868   6.681 -0.1705 -0.4385 -1.5145
   63SAPC   C11 5001   2.100   6.738   6.304 -0.4079  0.6809 -0.2089
   63SAPC  H11A 5002   2.021   6.666   6.274 -0.1399  0.3989 -0.2413
   63SAPC  H11B 5003   2.197   6.684   6.302  0.2268  1.5993  3.0826
   63SAPC     P 5004   2.006   6.939   6.154  0.2080 -0.1423 -0.2748
   63SAPC   O13 5005   1.868   6.906   6.201 -0.5564 -0.0268  0.3916
   63SAPC   O14 5006   2.049   7.076   6.177  0.6403  0.2916 -0.2803
   63SAPC   O12 5007   2.118   6.847   6.213  1.3264 -0.0356 -0.1187
   63SAPC   O11 5008   2.007   6.904   6.005 -0.6450 -0.1398 -0.0756
   63SAPC    C1 5009   2.131   6.898   5.939 -0.4496  0.7484 -0.3853
   63SAPC    HA 5010   2.161   7.004   5.921 -2.4001  1.3299 -0.3765
   63SAPC    HB 5011   2.202   6.836   5.997  0.0065  1.0083 -0.6609
   63SAPC    C2 5012   2.111   6.822   5.801 -0.2963  0.4412  0.3332
   63SAPC    HS 5013   2.105   6.712   5.819  2.3049 -0.3239 -2.9985
   63SAPC   O21 5014   2.207   6.860   5.698  0.0586  0.2591  0.1449
   63SAPC   C21 5015   2.312   6.781   5.705 -0.4104 -0.2598  0.4649
   63SAPC   O22 5016   2.328   6.700   5.792 -0.1804 -0.1841  0.2427
   63SAPC   C22 5017   2.421   6.811   5.601 -0.1035 -0.4250  0.1744
   63SAPC   H2R 5018   2.517   6.831   5.654  0.1014 -1.4167  0.1740
   63SAPC   H2S 5019   2.440   6.725   5.533  2.1035 -0.2426  0.5314
   63SAPC    C3 5020   1.971   6.866   5.743 -0.7599 -0.5024  0.1071
   63SAPC    HX 5021   1.978   6.976   5.732 -0.6639 -0.2726  2.3255
   63SAPC    HY 5022   1.890   6.838   5.814 -0.0563 -0.8648  0.7661
   63SAPC   O31 5023   1.958   6.797   5.613  0.0720 -0.2713 -1.0407
   63SAPC   C31 5024   1.920   6.669   5.618 -0.0102 -0.2409 -0.5903
   63SAPC   O32 5025   1.896   6.606   5.722  0.7250  0.5013  0.1854
   63SAPC   C32 5026   1.926   6.607   5.480  0.4392  0.4496  0.0901
   63SAPC   H2X 5027   1.851   6.659   5.417  0.8276 -0.5785 -1.2443
   63SAPC   H2Y 5028   1.900   6.499   5.484 -1.5512  0.8741 -0.4918
   63SAPC   C23 5029   2.387   6.920   5.498 -0.4076 -0.8437 -0.6803
   63SAPC   H3R 5030   2.371   7.022   5.539 -1.1140 -0.4128 -1.9742
   63SAPC   H3S 5031   2.289   6.888   5.457  0.0932  2.2501 -4.6367
   63SAPC   C24 5032   2.493   6.929   5.394 -0.2853  0.3401 -0.1896
   63SAPC   H4R 5033   2.519   6.832   5.347  0.7715  1.5605 -2.1701
   63SAPC   H4S 5034   2.590   6.960   5.436 -0.0953  1.9090 -1.7372
   63SAPC   C25 5035   2.458   7.026   5.290  0.4958 -0.1125  0.1168
   63SAPC   H5R 5036   2.501   7.126   5.301  0.1902  0.3632 -2.5853
   63SAPC   C26 5037   2.384   7.004   5.179  0.8005 -0.9745  0.3242
   63SAPC   H6R 5038   2.382   7.085   5.104 -1.7342  0.5348  1.9447
   63SAPC   C27 5039   2.317   6.875   5.134 -0.1198  0.1610 -0.3850
   63SAPC   H7R 5040   2.291   6.820   5.227 -1.2847  1.8181  0.2857
   63SAPC   H7S 5041   2.397   6.817   5.083 -0.3789  0.1539 -0.7850
   63SAPC   C28 5042   2.202   6.905   5.036  0.2309 -0.2179  0.6540
   63SAPC   H8R 5043   2.150   7.002   5.046  1.9214  0.6669  1.1433
   63SAPC   C29 5044   2.166   6.823   4.939 -0.5339 -0.4577  0.1961
   63SAPC   H9R 5045   2.092   6.862   4.868  0.5517  2.7717  0.7723
   63SAPC  C210 5046   2.218   6.688   4.903 -0.0870 -0.4328 -0.7298
   63SAPC  H10R 5047   2.329   6.686   4.904 -0.0725 -0.1711  2.5991
   63SAPC  H10S 5048   2.187   6.667   4.798 -2.9048  0.6879 -0.1861
   63SAPC  C211 5049   2.171   6.584   4.999  0.3605  0.2465  1.0300
   63SAPC  H11R 5050   2.257   6.555   5.061  0.9540  1.6234  0.8723
   63SAPC  C212 5051   2.053   6.521   5.020 -0.4659  0.5363  0.6614
   63SAPC  H12R 5052   2.042   6.459   5.110 -1.4463  1.4542  1.1917
   63SAPC  C213 5053   1.930   6.544   4.932  0.0559 -0.1185  0.5130
   63SAPC  H13R 5054   1.890   6.453   4.882 -0.1542  0.4702 -0.4091
   63SAPC  H13S 5055   1.951   6.611   4.846 -0.4572 -0.2270  0.2982
   63SAPC  C214 5056   1.821   6.617   5.005  0.0434 -0.3059 -0.1626
   63SAPC  H14R 5057   1.826   6.620   5.115 -2.9045 -2.9958  0.1236
   63SAPC  C215 5058   1.710   6.663   4.946 -0.1196  0.2740  0.3138
   63SAPC  H15R 5059   1.634   6.712   5.010 -0.0962  1.9320 -0.9002
   63SAPC  C216 5060   1.682   6.658   4.802 -0.6267  0.8574  0.5172
   63SAPC  H16R 5061   1.730   6.568   4.757  1.4262  1.8578  0.6110
   63SAPC  H16S 5062   1.728   6.747   4.754 -0.9425  0.3279 -0.8003
   63SAPC  C217 5063   1.534   6.661   4.774 -0.4980  0.4664 -0.0869
   63SAPC  H17R 5064   1.495   6.760   4.808  1.5809  0.7726  1.5119
   63SAPC  H17S 5065   1.484   6.577   4.827  2.2954 -1.3299 -0.2283
   63SAPC  C218 5066   1.511   6.659   4.617 -0.3577  0.2257  0.2828
   63SAPC  H18R 5067   1.535   6.556   4.581 -2.3030 -0.2086  0.1414
   63SAPC  H18S 5068   1.575   6.731   4.562  0.2777 -0.3486  0.2605
   63SAPC  C219 5069   1.362   6.681   4.574 -0.0687 -0.2514 -0.5865
   63SAPC  H19R 5070   1.361   6.691   4.463  2.8789  2.6180 -0.4422
   63SAPC  H19S 5071   1.330   6.779   4.616 -1.2180 -0.7163 -0.3443
   63SAPC  C220 5072   1.259   6.578   4.616  0.1408  0.4449 -0.3704
   63SAPC  H20R 5073   1.154   6.614   4.615  0.1893  0.5934 -0.0884
   63SAPC  H20S 5074   1.280   6.555   4.723  0.6784  2.3243 -0.0644
   63SAPC  H20T 5075   1.273   6.486   4.555 -1.2127  0.5367 -0.8414
   63SAPC   C33 5076   2.065   6.631   5.420 -1.1310  0.1393 -0.1636
   63SAPC   H3X 5077   2.097   6.735   5.439  0.7823 -0.4556  0.0329
   63SAPC   H3Y 5078   2.064   6.628   5.308 -1.2929  2.2457 -0.2442
   63SAPC   C34 5079   2.163   6.523   5.466  0.4585  0.1464  0.4144
   63SAPC   H4X 5080   2.107   6.435   5.505 -0.8026  0.1596 -1.3314
   63SAPC   H4Y 5081   2.228   6.562   5.547  0.5316  1.5031 -0.2855
   63SAPC   C35 5082   2.274   6.494   5.361 -0.8123  0.1093 -0.7071
   63SAPC   H5X 5083   2.375   6.523   5.397 -0.7466 -0.1309 -0.7005
   63SAPC   H5Y 5084   2.264   6.570   5.280  1.6632 -0.9300 -2.0154
   63SAPC   C36 5085   2.270   6.349   5.304 -0.8222  0.6353 -0.1160
   63SAPC   H6X 5086   2.172   6.320   5.262 -0.4944  0.7561 -0.9841
   63SAPC   H6Y 5087   2.298   6.275   5.382  2.7317  0.7878 -1.1406
   63SAPC   C37 5088   2.373   6.321   5.197  0.0551  0.3670  0.1002
   63SAPC   H7X 5089   2.481   6.322   5.223 -0.0490  1.5745  0.5596
   63SAPC   H7Y 5090   2.361   6.394   5.114  0.7617 -1.3954 -1.5942
   63SAPC   C38 5091   2.342   6.188   5.119  0.2092  0.2482  0.5505
   63SAPC   H8X 5092   2.242   6.194   5.071  1.7636  2.8103 -2.5800
   63SAPC   H8Y 5093   2.359   6.102   5.186  0.1709  0.9422  1.4518
   63SAPC   C39 5094   2.444   6.167   5.007  0.1765 -0.3909 -0.5241
   63SAPC   H9X 5095   2.541   6.169   5.061  0.3775 -2.5604 -0.7287
   63SAPC   H9Y 5096   2.455   6.251   4.935  0.3035  1.2615  1.3960
   63SAPC  C310 5097   2.426   6.034   4.928 -0.1562  0.5424  0.5347
   63SAPC  H10X 5098   2.357   6.038   4.840  0.3057 -0.9008  0.0847
   63SAPC  H10Y 5099   2.374   5.959   4.992  2.9801 -1.0091  1.3620
   63SAPC  C311 5100   2.566   5.968   4.893  0.1623 -0.2229 -0.0320
   63SAPC  H11X 5101   2.567   5.877   4.830 -1.1044  1.1764 -2.1348
   63SAPC  H11Y 5102   2.611   5.957   4.994 -1.4937 -1.8707  0.5474
   63SAPC  C312 5103   2.662   6.063   4.809  1.1191  0.7362  0.3646
   63SAPC  H12X 5104   2.763   6.019   4.826 -0.2534 -3.3943 -1.5113
   63SAPC  H12Y 5105   2.657   6.163   4.856  1.2357  1.1287 -0.4577
   63SAPC  C313 5106   2.617   6.079   4.663  1.0266  0.3497  0.1593
   63SAPC  H13X 5107   2.667   6.162   4.609  0.8028  0.7153  0.5138
   63SAPC  H13Y 5108   2.507   6.098   4.661  0.8360 -0.7736 -1.0913
   63SAPC  C314 5109   2.637   5.957   4.575  0.2951  0.0378  0.0373
   63SAPC  H14X 5110   2.609   5.982   4.470  1.7855  2.8378  0.2429
   63SAPC  H14Y 5111   2.564   5.880   4.608  2.1907 -1.7610  0.1328
   63SAPC  C315 5112   2.778   5.906   4.572  0.0644 -0.4364  0.9257
   63SAPC  H15X 5113   2.801   5.865   4.673 -1.5733 -3.5824  0.0853
   63SAPC  H15Y 5114   2.841   5.995   4.552 -1.9400  0.6159 -0.7942
   63SAPC  C316 5115   2.781   5.793   4.470  0.6430 -0.2153  0.1374
   63SAPC  H16X 5116   2.737   5.827   4.374 -1.7878 -2.8996  0.2458
   63SAPC  H16Y 5117   2.714   5.710   4.499 -2.4394  2.6969  1.6882
   63SAPC  C317 5118   2.915   5.725   4.449 -0.1176  0.1146 -0.1523
   63SAPC  H17X 5119   2.942   5.657   4.533  0.4741 -2.5480 -2.3977
   63SAPC  H17Y 5120   3.001   5.794   4.443  0.0981 -0.0840  0.5989
   63SAPC  C318 5121   2.924   5.624   4.331 -0.9653 -0.2256  0.2330
   63SAPC  H18X 5122   2.859   5.537   4.356  0.2459 -1.6385 -1.4172
   63SAPC  H18Y 5123   3.028   5.601   4.302 -1.4591 -1.7955 -0.3760
   63SAPC  H18Z 5124   2.888   5.683   4.244  1.1943  1.2042  0.2862
   64SAPC     N 5125   1.519   1.129   6.597 -0.1586 -0.7955 -0.2011
   64SAPC   C12 5126   1.472   0.984   6.575  0.0023 -0.2262 -0.0509
   64SAPC  H12A 5127   1.382   0.960   6.630 -0.7278  1.1471 -0.6308
   64SAPC  H12B 5128   1.553   0.922   6.610 -1.1618 -1.7985 -0.0944
   64SAPC   C13 5129   1.409   1.223   6.551 -0.4075 -0.2600 -0.0557
   64SAPC  H13A 5130   1.374   1.202   6.451 -0.4537  2.7480 -0.7385
   64SAPC  H13B 5131   1.323   1.209   6.613 -1.6305 -1.6680 -2.0039
   64SAPC  H13C 5132   1.449   1.323   6.558 -0.7268 -0.2408  1.4734
   64SAPC   C14 5133   1.559   1.150   6.740 -0.5490 -0.3968  0.2056
   64SAPC  H14A 5134   1.618   1.069   6.781 -0.3424  0.3607  1.4449
   64SAPC  H14B 5135   1.629   1.233   6.748  0.0609 -1.0852  2.3155
   64SAPC  H14C 5136   1.473   1.161   6.804  0.1780  1.4504  0.9081
   64SAPC   C15 5137   1.636   1.153   6.516 -0.0763  0.4080  0.1427
   64SAPC  H15A 5138   1.710   1.075   6.522 -0.3200  0.2124  0.6499
   64SAPC  H15B 5139   1.599   1.155   6.414 -1.2713  0.4190  0.5615
   64SAPC  H15C 5140   1.687   1.246   6.535 -0.2771  0.3721  0.8989
   64SAPC   C11 5141   1.443   0.940   6.429 -0.8116  0.1697  0.5533
   64SAPC  H11A 5142   1.365   1.008   6.390 -0.0616  1.1311  0.7241
   64SAPC  H11B 5143   1.396   0.839   6.426 -1.8945  0.7133 -1.9529
   64SAPC     P 5144   1.670   0.845   6.343 -0.0368 -0.3136  0.1587
   64SAPC   O13 5145   1.776   0.891   6.255 -0.0657 -0.4856 -0.3507
   64SAPC   O14 5146   1.713   0.818   6.481  0.6856 -0.8184 -0.1282
   64SAPC   O12 5147   1.550   0.950   6.339 -0.5354 -0.3001  0.1635
   64SAPC   O11 5148   1.596   0.716   6.282 -0.5703  0.1034 -0.0060
   64SAPC    C1 5149   1.520   0.732   6.160 -0.2497  0.0375  0.2654
   64SAPC    HA 5150   1.436   0.802   6.180 -0.4599 -0.7917  2.3948
   64SAPC    HB 5151   1.583   0.773   6.077 -0.5853  1.6150  0.7622
   64SAPC    C2 5152   1.461   0.599   6.100  0.0799 -0.1368  0.3048
   64SAPC    HS 5153   1.399   0.552   6.179  1.1565  0.7367  1.6955
   64SAPC   O21 5154   1.576   0.525   6.071  0.6219  0.2722 -0.0536
   64SAPC   C21 5155   1.548   0.397   6.041  0.0591  0.7917 -0.1316
   64SAPC   O22 5156   1.440   0.348   6.045  0.1206 -0.0611  0.1557
   64SAPC   C22 5157   1.673   0.324   5.997 -0.9469  0.6091  0.3313
   64SAPC   H2R 5158   1.747   0.405   5.978  0.8876 -1.0702  0.1550
   64SAPC   H2S 5159   1.718   0.265   6.080 -0.2481  1.4565  0.5644
   64SAPC    C3 5160   1.373   0.627   5.967  0.5558 -0.6728  0.6958
   64SAPC    HX 5161   1.325   0.727   5.972  1.4319 -0.3340  3.1678
   64SAPC    HY 5162   1.298   0.545   5.972 -0.1622 -0.0446  0.2509
   64SAPC   O31 5163   1.459   0.602   5.854 -0.7660  0.1532  0.2242
   64SAPC   C31 5164   1.518   0.704   5.788  0.5535  0.4015 -0.3696
   64SAPC   O32 5165   1.551   0.808   5.844  0.2868 -0.1342  0.6022
   64SAPC   C32 5166   1.552   0.672   5.644  0.5816 -0.2855  0.6272
   64SAPC   H2X 5167   1.492   0.591   5.599 -0.6101  0.8498  0.1273
   64SAPC   H2Y 5168   1.660   0.648   5.645  1.0863  1.7426  3.8094
   64SAPC   C23 5169   1.654   0.238   5.866  0.2373 -0.2862 -0.5138
   64SAPC   H3R 5170   1.555   0.188   5.870 -0.7383  1.6677  0.4282
   64SAPC   H3S 5171   1.733   0.160   5.858  0.2007 -0.2057 -1.7925
   64SAPC   C24 5172   1.641   0.322   5.738  0.5148  0.2065  0.3960
   64SAPC   H4R 5173   1.734   0.382   5.726  0.4830 -0.0823 -1.3831
   64SAPC   H4S 5174   1.562   0.398   5.755 -0.2625 -0.6132  0.4541
   64SAPC   C25 5175   1.612   0.235   5.622  0.0245 -0.3801  0.0068
   64SAPC   H5R 5176   1.587   0.133   5.653  1.1915 -0.5587  0.3705
   64SAPC   C26 5177   1.627   0.265   5.490  0.4424 -0.1431  0.1860
   64SAPC   H6R 5178   1.597   0.190   5.415  1.0015  0.6127 -0.8066
   64SAPC   C27 5179   1.671   0.393   5.430  0.2287 -0.0335 -0.2867
   64SAPC   H7R 5180   1.717   0.453   5.511  0.6354 -0.8151  0.0658
   64SAPC   H7S 5181   1.582   0.451   5.397 -0.5581 -1.5188 -0.8422
   64SAPC   C28 5182   1.761   0.355   5.310 -0.5318  0.1629  0.2258
   64SAPC   H8R 5183   1.864   0.350   5.348 -0.1290  2.0805 -0.5565
   64SAPC   C29 5184   1.720   0.338   5.183 -0.0057 -0.1394 -0.6993
   64SAPC   H9R 5185   1.797   0.327   5.105  0.0972  1.5235 -0.8652
   64SAPC  C210 5186   1.577   0.354   5.132 -0.0116 -0.3713 -0.3163
   64SAPC  H10R 5187   1.497   0.323   5.202 -1.6362  0.6290 -1.6982
   64SAPC  H10S 5188   1.552   0.287   5.047  0.3004 -1.2329  0.2648
   64SAPC  C211 5189   1.541   0.485   5.085  0.1312 -0.1148  0.3372
   64SAPC  H11R 5190   1.539   0.564   5.161  0.6375 -1.1970  1.4870
   64SAPC  C212 5191   1.488   0.521   4.966 -0.3856 -0.0109  0.4049
   64SAPC  H12R 5192   1.467   0.626   4.943 -0.7916 -0.1543  0.1200
   64SAPC  C213 5193   1.457   0.434   4.848  0.7063  0.2007 -0.6038
   64SAPC  H13R 5194   1.513   0.339   4.862 -0.6121 -0.2519  2.0833
   64SAPC  H13S 5195   1.492   0.486   4.757 -2.0121  0.7359 -1.3978
   64SAPC  C214 5196   1.311   0.399   4.842 -0.5846  0.3954  0.0105
   64SAPC  H14R 5197   1.260   0.383   4.938  0.0721 -1.4522  0.0765
   64SAPC  C215 5198   1.230   0.402   4.735  0.1582 -0.4711 -0.2488
   64SAPC  H15R 5199   1.123   0.382   4.753 -0.4798  1.2539 -1.9220
   64SAPC  C216 5200   1.270   0.442   4.591  0.7733  0.3569 -0.2049
   64SAPC  H16R 5201   1.215   0.375   4.522 -1.6807  0.6877  1.3802
   64SAPC  H16S 5202   1.381   0.443   4.586  0.7638  1.3631 -0.3486
   64SAPC  C217 5203   1.223   0.584   4.550  1.1005 -0.2445  0.0350
   64SAPC  H17R 5204   1.274   0.594   4.451  0.6118 -1.4709 -0.3442
   64SAPC  H17S 5205   1.246   0.658   4.630 -2.2093  1.5486 -0.5784
   64SAPC  C218 5206   1.073   0.582   4.527  0.0426 -0.1090 -0.3988
   64SAPC  H18R 5207   1.032   0.566   4.629 -0.1383 -1.5899 -0.6922
   64SAPC  H18S 5208   1.042   0.491   4.472 -4.1254 -0.7572  2.8150
   64SAPC  C219 5209   1.013   0.703   4.458 -0.8624 -0.5033 -0.0682
   64SAPC  H19R 5210   1.058   0.788   4.514 -2.1959  0.3580 -0.2694
   64SAPC  H19S 5211   0.902   0.698   4.466 -1.1958  3.3119 -1.0713
   64SAPC  C220 5212   1.046   0.720   4.311 -0.2615 -0.3778  0.2318
   64SAPC  H20R 5213   0.992   0.806   4.267  0.2695 -1.6663 -3.1053
   64SAPC  H20S 5214   1.004   0.632   4.258 -0.9736 -1.1590  2.0748
   64SAPC  H20T 5215   1.157   0.720   4.296 -0.2699  0.5296  0.1415
   64SAPC   C33 5216   1.547   0.798   5.560  0.6295  0.2513 -0.0515
   64SAPC   H3X 5217   1.600   0.768   5.467 -0.3022 -0.5730 -0.3288
   64SAPC   H3Y 5218   1.611   0.878   5.603 -2.0935  0.5597  3.6697
   64SAPC   C34 5219   1.404   0.844   5.518 -0.0127  0.7202  0.6090
   64SAPC   H4X 5220   1.384   0.940   5.571  0.5298  0.4411  1.3281
   64SAPC   H4Y 5221   1.332   0.772   5.561 -2.0618  2.9175  0.9833
   64SAPC   C35 5222   1.389   0.851   5.368 -0.3597 -0.4311  0.8971
   64SAPC   H5X 5223   1.286   0.881   5.340 -0.5852 -0.8584  1.2690
   64SAPC   H5Y 5224   1.417   0.750   5.331 -3.3645 -1.5485  1.6114
   64SAPC   C36 5225   1.479   0.963   5.311  0.1920  1.0904  0.4583
   64SAPC   H6X 5226   1.579   0.915   5.310 -0.9434 -1.3759  1.6631
   64SAPC   H6Y 5227   1.478   1.052   5.378 -0.3500  0.1726  1.6778
   64SAPC   C37 5228   1.451   1.016   5.169  0.5709  0.2351  0.4192
   64SAPC   H7X 5229   1.350   1.063   5.162 -0.3957 -2.0315 -1.4460
   64SAPC   H7Y 5230   1.443   0.930   5.099  2.5342  1.5024 -1.4313
   64SAPC   C38 5231   1.566   1.106   5.120 -0.5434  0.2250  0.1004
   64SAPC   H8X 5232   1.666   1.063   5.143  0.1925  2.3304  0.9769
   64SAPC   H8Y 5233   1.558   1.208   5.164 -0.1352  0.0722  0.5378
   64SAPC   C39 5234   1.560   1.112   4.966  0.6157 -0.3549 -0.0976
   64SAPC   H9X 5235   1.615   1.201   4.927  0.1348  0.2676  0.6107
   64SAPC   H9Y 5236   1.458   1.137   4.929  1.3900  2.6957 -0.3339
   64SAPC  C310 5237   1.607   0.991   4.894  0.2101 -0.3368  0.0588
   64SAPC  H10X 5238   1.574   1.003   4.788 -1.3895  0.4655  0.6304
   64SAPC  H10Y 5239   1.542   0.912   4.937 -0.5142  0.4132  0.3569
   64SAPC  C311 5240   1.761   0.959   4.906 -0.0256  0.5136  0.5280
   64SAPC  H11X 5241   1.771   0.925   5.011 -2.1839 -1.7747  0.0359
   64SAPC  H11Y 5242   1.819   1.054   4.899 -0.6714  0.9787  1.4820
   64SAPC  C312 5243   1.811   0.853   4.798 -0.1624  0.1557 -0.8074
   64SAPC  H12X 5244   1.921   0.860   4.812 -0.1826 -0.7806 -0.1266
   64SAPC  H12Y 5245   1.783   0.888   4.696 -2.6269 -0.4431 -0.3704
   64SAPC  C313 5246   1.781   0.704   4.823  0.3247  0.0097 -0.0782
   64SAPC  H13X 5247   1.689   0.676   4.767 -0.6949  0.6019  1.2564
   64SAPC  H13Y 5248   1.742   0.678   4.924  0.5138 -2.8331 -0.6955
   64SAPC  C314 5249   1.891   0.601   4.793  0.0999  0.8034  0.6595
   64SAPC  H14X 5250   1.966   0.616   4.874 -1.6993  2.7916  2.0126
   64SAPC  H14Y 5251   1.930   0.619   4.690 -2.5469  0.3201 -0.4866
   64SAPC  C315 5252   1.829   0.458   4.780 -0.7066 -0.4572 -0.5641
   64SAPC  H15X 5253   1.752   0.466   4.700 -0.6740 -0.2380 -0.5726
   64SAPC  H15Y 5254   1.767   0.428   4.868 -1.2675 -1.3235 -1.2443
   64SAPC  C316 5255   1.943   0.353   4.764  1.3051  0.7837 -1.2425
   64SAPC  H16X 5256   2.026   0.380   4.833 -0.4371  1.5938  0.6069
   64SAPC  H16Y 5257   1.985   0.348   4.662  1.5423  1.5970 -1.1910
   64SAPC  C317 5258   1.900   0.209   4.789 -0.0689  0.0466  0.1877
   64SAPC  H17X 5259   1.870   0.186   4.894 -5.2489 -0.9610 -1.3739
   64SAPC  H17Y 5260   1.981   0.140   4.760  1.4559  1.9525 -0.2176
   64SAPC  C318 5261   1.784   0.164   4.701  0.3136  0.1420 -0.4823
   64SAPC  H18X 5262   1.803   0.205   4.600  2.0598 -0.3100 -0.3641
   64SAPC  H18Y 5263   1.683   0.196   4.735 -0.4575 -0.2640 -2.3855
   64SAPC  H18Z 5264   1.770   0.054   4.698  0.4130  0.0918  0.5240
   65SAPC     N 5265   2.534   1.902   2.226  0.9321  0.0186 -0.2911
   65SAPC   C12 5266   2.545   1.879   2.380  0.1921  0.1741  0.0498
   65SAPC  H12A 5267   2.582   1.965   2.434  1.9705 -1.5237  1.6368
   65SAPC  H12B 5268   2.621   1.804   2.394 -1.0682 -0.8329  1.6907
   65SAPC   C13 5269   2.444   2.015   2.201 -0.9964  0.2629  0.2624
   65SAPC  H13A 5270   2.350   1.982   2.242 -1.4633  0.6882 -0.4444
   65SAPC  H13B 5271   2.474   2.104   2.254  1.1320 -0.2566 -0.0214
   65SAPC  H13C 5272   2.437   2.041   2.096  0.9558 -1.0708 -0.2112
   65SAPC   C14 5273   2.669   1.930   2.182  0.1534  0.3039  0.2720
   65SAPC  H14A 5274   2.716   2.023   2.210  0.9411  0.7708 -2.4422
   65SAPC  H14B 5275   2.739   1.853   2.214  0.2263  0.8110  1.3582
   65SAPC  H14C 5276   2.673   1.922   2.074  0.3773  1.8749  0.1577
   65SAPC   C15 5277   2.488   1.779   2.152 -0.6521  0.2490  0.1557
   65SAPC  H15A 5278   2.558   1.701   2.179  0.1935  1.5782  1.8591
   65SAPC  H15B 5279   2.395   1.744   2.196 -0.6633  0.7578  0.5405
   65SAPC  H15C 5280   2.462   1.800   2.049  0.9049  0.8001 -0.1277
   65SAPC   C11 5281   2.423   1.807   2.444  0.3365 -0.6032  0.7914
   65SAPC  H11A 5282   2.422   1.811   2.555  0.0472  2.0291  0.7270
   65SAPC  H11B 5283   2.418   1.701   2.412 -1.1253 -0.7097  1.3430
   65SAPC     P 5284   2.173   1.907   2.492  0.2153 -0.0398  0.1200
   65SAPC   O13 5285   2.071   1.970   2.406 -0.3492 -0.3586  0.6786
   65SAPC   O14 5286   2.133   1.787   2.571  0.3060 -0.5413  0.1616
   65SAPC   O12 5287   2.295   1.863   2.399  0.3011  0.0534  0.0215
   65SAPC   O11 5288   2.239   2.013   2.590 -0.3863  0.2977 -0.2428
   65SAPC    C1 5289   2.296   2.129   2.531  0.4654  0.6142  0.1706
   65SAPC    HA 5290   2.375   2.113   2.454  1.9847 -0.0819  1.8444
   65SAPC    HB 5291   2.216   2.186   2.480  1.6481  0.3045 -2.0885
   65SAPC    C2 5292   2.358   2.228   2.643  0.1906 -0.2124 -0.1237
   65SAPC    HS 5293   2.420   2.299   2.583 -2.2269  0.4154 -1.9882
   65SAPC   O21 5294   2.432   2.159   2.738  1.1170 -0.5925  0.1988
   65SAPC   C21 5295   2.543   2.100   2.693 -0.0783  0.5160 -0.4110
   65SAPC   O22 5296   2.592   2.099   2.580 -0.1290 -0.6599 -0.3096
   65SAPC   C22 5297   2.605   2.014   2.806 -0.4890 -0.1460 -0.4380
   65SAPC   H2R 5298   2.598   2.079   2.896 -2.9962 -0.4568 -0.3598
   65SAPC   H2S 5299   2.535   1.928   2.820  0.5939 -1.1313 -0.9815
   65SAPC    C3 5300   2.250   2.309   2.725 -0.4867 -0.3328  0.2842
   65SAPC    HX 5301   2.201   2.372   2.648  2.2681 -1.6600 -2.6815
   65SAPC    HY 5302   2.313   2.374   2.790  1.6471  0.3905 -2.4079
   65SAPC   O31 5303   2.169   2.221   2.805  0.1757 -1.2104  0.7311
   65SAPC   C31 5304   2.055   2.190   2.749  0.8759  0.0928  0.8196
   65SAPC   O32 5305   2.001   2.240   2.653 -0.3290  0.4954 -0.0334
   65SAPC   C32 5306   1.987   2.077   2.837  0.2642 -0.0928  0.5582
   65SAPC   H2X 5307   1.966   2.108   2.942  0.6075  0.4440  0.4689
   65SAPC   H2Y 5308   2.069   2.001   2.838 -0.0921 -0.5002 -0.5139
   65SAPC   C23 5309   2.743   1.958   2.773 -0.2349 -0.0814 -0.0688
   65SAPC   H3R 5310   2.814   2.042   2.760 -1.4591  0.7661 -1.3303
   65SAPC   H3S 5311   2.747   1.900   2.679 -1.2750  0.4910 -0.4713
   65SAPC   C24 5312   2.795   1.844   2.866  0.4464 -0.2977  0.4008
   65SAPC   H4R 5313   2.891   1.807   2.825  0.0599 -2.7306  1.5877
   65SAPC   H4S 5314   2.718   1.764   2.869  1.2040 -1.1093 -1.1359
   65SAPC   C25 5315   2.820   1.893   3.006 -0.3202  0.3777  0.4154
   65SAPC   H5R 5316   2.903   1.966   3.005 -0.2001  0.2487 -1.8130
   65SAPC   C26 5317   2.771   1.853   3.124  0.1346  0.5691  0.4989
   65SAPC   H6R 5318   2.789   1.908   3.218  2.0168 -1.7894  1.5596
   65SAPC   C27 5319   2.668   1.738   3.133 -1.2656  0.0996 -0.3810
   65SAPC   H7R 5320   2.687   1.680   3.040 -0.9381 -0.4518  0.0308
   65SAPC   H7S 5321   2.568   1.784   3.118 -1.4990 -0.1851  0.2896
   65SAPC   C28 5322   2.678   1.660   3.261 -0.6288 -0.1573 -0.2303
   65SAPC   H8R 5323   2.761   1.587   3.261 -1.1030 -0.6983 -1.2246
   65SAPC   C29 5324   2.612   1.691   3.375 -0.6353 -0.9347 -0.4576
   65SAPC   H9R 5325   2.628   1.628   3.464  1.1884 -0.8855 -0.7397
   65SAPC  C210 5326   2.516   1.811   3.387 -0.0161 -0.0394  0.5056
   65SAPC  H10R 5327   2.433   1.800   3.314 -0.0581 -1.6225  0.7548
   65SAPC  H10S 5328   2.571   1.901   3.355  0.8932 -0.5254  0.6713
   65SAPC  C211 5329   2.464   1.827   3.527 -0.4447 -0.1268  0.5921
   65SAPC  H11R 5330   2.505   1.915   3.578  3.4370 -1.2840 -0.3701
   65SAPC  C212 5331   2.358   1.763   3.584  0.2580  0.1498 -0.3039
   65SAPC  H12R 5332   2.348   1.786   3.692  1.0193  1.7540 -0.5572
   65SAPC  C213 5333   2.259   1.658   3.536 -0.2180 -0.2685 -0.2515
   65SAPC  H13R 5334   2.276   1.558   3.583  0.8013  0.5672  1.1958
   65SAPC  H13S 5335   2.290   1.648   3.430 -1.5612 -1.2575 -0.5722
   65SAPC  C214 5336   2.116   1.710   3.545 -0.3158 -0.5041 -0.3409
   65SAPC  H14R 5337   2.092   1.811   3.507  2.2799  0.5689  0.7261
   65SAPC  C215 5338   2.019   1.644   3.604 -0.5765  0.5558  0.1767
   65SAPC  H15R 5339   1.925   1.701   3.604 -2.2722 -2.0920 -2.1653
   65SAPC  C216 5340   2.024   1.506   3.672  0.4837 -0.5156  0.2679
   65SAPC  H16R 5341   1.961   1.504   3.763 -0.2076 -1.6385 -0.2297
   65SAPC  H16S 5342   2.123   1.488   3.720  1.5908 -1.4382 -2.2705
   65SAPC  C217 5343   1.982   1.389   3.583 -0.1531  0.2598  0.6273
   65SAPC  H17R 5344   1.988   1.305   3.655  4.3355  1.7182  2.1591
   65SAPC  H17S 5345   2.064   1.363   3.512 -0.2658 -1.1926  1.0204
   65SAPC  C218 5346   1.857   1.403   3.502  0.7106  0.4691 -0.3690
   65SAPC  H18R 5347   1.845   1.496   3.443  3.4452  1.8272  1.1472
   65SAPC  H18S 5348   1.769   1.413   3.568  0.8999 -2.5185  0.4330
   65SAPC  C219 5349   1.833   1.283   3.410  0.0776  0.1663  0.0042
   65SAPC  H19R 5350   1.818   1.188   3.466  0.9060  0.5599  0.8965
   65SAPC  H19S 5351   1.925   1.257   3.353  1.1489 -1.1988  2.2727
   65SAPC  C220 5352   1.730   1.327   3.300 -0.7012  0.1715 -0.3181
   65SAPC  H20R 5353   1.637   1.352   3.357  0.6609  1.8582  1.2420
   65SAPC  H20S 5354   1.712   1.254   3.219 -2.5384 -1.5898  1.6037
   65SAPC  H20T 5355   1.768   1.421   3.255 -4.2475  1.3526 -1.0448
   65SAPC   C33 5356   1.849   2.037   2.764 -0.3257 -0.1588  0.0930
   65SAPC   H3X 5357   1.877   2.019   2.658 -1.6361  0.6207 -0.4015
   65SAPC   H3Y 5358   1.784   2.126   2.779 -0.3560  0.1940 -1.9435
   65SAPC   C34 5359   1.768   1.913   2.819  0.0830 -0.1322 -0.5702
   65SAPC   H4X 5360   1.821   1.817   2.800  0.4695 -0.1575  0.5801
   65SAPC   H4Y 5361   1.672   1.896   2.767 -0.4736  0.3920  0.2743
   65SAPC   C35 5362   1.741   1.925   2.972  0.1857 -0.2431 -0.4056
   65SAPC   H5X 5363   1.837   1.934   3.027 -0.2368 -1.1718  0.4974
   65SAPC   H5Y 5364   1.689   1.834   3.008  0.4608 -0.0814  0.4088
   65SAPC   C36 5365   1.645   2.041   3.006  0.0437  0.1102 -0.6626
   65SAPC   H6X 5366   1.553   2.029   2.944 -1.1222 -0.7134  1.1782
   65SAPC   H6Y 5367   1.680   2.142   2.978 -0.4749  0.9022  1.4894
   65SAPC   C37 5368   1.618   2.056   3.154 -0.0914  0.5910 -0.0271
   65SAPC   H7X 5369   1.581   1.958   3.189 -2.7161  2.7594  3.5525
   65SAPC   H7Y 5370   1.548   2.140   3.173 -0.2805  0.0023  1.9320
   65SAPC   C38 5371   1.749   2.098   3.232  0.2391  0.4613  0.9811
   65SAPC   H8X 5372   1.732   2.192   3.287  2.1086  0.8798  0.8898
   65SAPC   H8Y 5373   1.825   2.112   3.151 -0.1196  1.4448  0.8140
   65SAPC   C39 5374   1.793   1.996   3.338  0.7040 -0.5125  0.1257
   65SAPC   H9X 5375   1.886   2.038   3.382  1.9841 -2.5161 -0.5987
   65SAPC   H9Y 5376   1.828   1.897   3.301  1.8485 -0.0800  0.0576
   65SAPC  C310 5377   1.688   1.969   3.444 -0.7406  0.2672  0.8121
   65SAPC  H10X 5378   1.626   1.882   3.415  0.0398 -0.2762  0.7582
   65SAPC  H10Y 5379   1.613   2.051   3.450 -0.2525  0.8130 -0.2518
   65SAPC  C311 5380   1.753   1.956   3.580 -0.3216 -0.0397  0.3698
   65SAPC  H11X 5381   1.803   2.050   3.612 -1.2134  0.6130 -0.1125
   65SAPC  H11Y 5382   1.822   1.872   3.558 -1.2809 -0.2914 -1.8716
   65SAPC  C312 5383   1.668   1.899   3.693  0.2741  0.2767 -0.3613
   65SAPC  H12X 5384   1.600   1.815   3.666 -0.3007  0.6666 -0.1510
   65SAPC  H12Y 5385   1.603   1.983   3.728  0.6755  0.4319  0.0114
   65SAPC  C313 5386   1.754   1.850   3.807  0.3394  0.2574  0.0816
   65SAPC  H13X 5387   1.854   1.815   3.773  0.3049  1.6732 -1.5354
   65SAPC  H13Y 5388   1.693   1.768   3.851  0.8111 -2.1105 -3.5078
   65SAPC  C314 5389   1.784   1.965   3.904  0.3506 -0.4078  0.5881
   65SAPC  H14X 5390   1.679   2.000   3.915  0.7128  0.7080  0.5716
   65SAPC  H14Y 5391   1.836   2.050   3.855 -2.6725  0.3983 -1.3741
   65SAPC  C315 5392   1.855   1.925   4.028 -0.0411 -0.2642 -0.0974
   65SAPC  H15X 5393   1.887   1.819   4.036  0.5338  0.0191  1.5766
   65SAPC  H15Y 5394   1.778   1.923   4.108 -0.7657  0.1104 -0.7739
   65SAPC  C316 5395   1.969   2.018   4.066 -0.1699  0.5884 -0.3257
   65SAPC  H16X 5396   2.003   1.983   4.166 -0.3133 -0.6075 -0.6842
   65SAPC  H16Y 5397   1.935   2.123   4.073  0.4212  0.9467 -2.4236
   65SAPC  C317 5398   2.082   2.012   3.969 -0.7379 -0.6439 -0.0159
   65SAPC  H17X 5399   2.136   2.108   3.979  0.9309 -1.5136 -0.4543
   65SAPC  H17Y 5400   2.054   2.008   3.861  2.2896 -2.6754 -0.8040
   65SAPC  C318 5401   2.182   1.897   3.993  0.2511 -0.2826 -0.2079
   65SAPC  H18X 5402   2.204   1.888   4.101  0.2988 -1.2618 -0.2937
   65SAPC  H18Y 5403   2.273   1.918   3.933  0.1212 -0.2876 -0.4067
   65SAPC  H18Z 5404   2.140   1.797   3.972  2.9636 -1.4055 -0.4576
   66SAPC     N 5405   5.478   3.078   2.129 -0.4076 -0.0738  0.5651
   66SAPC   C12 5406   5.462   3.098   2.277 -0.6822  0.3116  1.0477
   66SAPC  H12A 5407   5.505   3.011   2.322 -1.3134 -0.8604 -0.5603
   66SAPC  H12B 5408   5.357   3.103   2.304 -0.7669  1.3735  0.5638
   66SAPC   C13 5409   5.461   3.209   2.067  0.3874  0.0964  0.1926
   66SAPC  H13A 5410   5.527   3.218   1.982 -1.0027 -0.0434 -0.9200
   66SAPC  H13B 5411   5.358   3.225   2.037 -1.0012 -1.3334  3.8803
   66SAPC  H13C 5412   5.479   3.292   2.133 -4.0569  0.5752  0.9774
   66SAPC   C14 5413   5.616   3.028   2.102  0.4829 -0.0902  0.1210
   66SAPC  H14A 5414   5.690   3.100   2.136  1.9551 -0.5796 -1.9239
   66SAPC  H14B 5415   5.619   2.931   2.148 -0.1239  0.3544  1.0996
   66SAPC  H14C 5416   5.632   3.023   1.995 -1.3654  0.5382 -0.1921
   66SAPC   C15 5417   5.381   2.976   2.070  0.1860 -0.1230  0.1416
   66SAPC  H15A 5418   5.414   2.968   1.968 -0.2837  1.7207 -0.1835
   66SAPC  H15B 5419   5.402   2.883   2.119  0.7688  0.2897  0.6779
   66SAPC  H15C 5420   5.274   2.995   2.076 -0.2753 -1.8837 -2.0828
   66SAPC   C11 5421   5.528   3.224   2.346  0.1427 -0.0866  0.7868
   66SAPC  H11A 5422   5.542   3.204   2.454 -0.6554 -3.6250  0.2848
   66SAPC  H11B 5423   5.454   3.306   2.330  0.6500  0.3326  0.5785
   66SAPC     P 5424   5.689   3.398   2.242  0.1141 -0.0611  0.0532
   66SAPC   O13 5425   5.820   3.384   2.173 -0.3813 -0.0928 -0.4468
   66SAPC   O14 5426   5.577   3.461   2.166  0.0650 -0.0766 -0.3297
   66SAPC   O12 5427   5.649   3.252   2.285 -0.6992  0.1808 -0.3389
   66SAPC   O11 5428   5.707   3.473   2.383 -0.1825 -0.4227 -0.4109
   66SAPC    C1 5429   5.756   3.609   2.366 -0.3681 -0.1588  0.0394
   66SAPC    HA 5430   5.844   3.620   2.299 -1.7402  0.8695 -1.6438
   66SAPC    HB 5431   5.686   3.686   2.327 -0.0882  0.2071  0.2561
   66SAPC    C2 5432   5.823   3.668   2.500 -0.0207 -0.3673  0.9746
   66SAPC    HS 5433   5.914   3.722   2.466 -2.9840  2.2208 -3.2515
   66SAPC   O21 5434   5.851   3.564   2.586  0.3524 -0.3956 -0.1924
   66SAPC   C21 5435   5.955   3.583   2.678  0.5078 -0.1415  0.3153
   66SAPC   O22 5436   6.015   3.693   2.684  0.0745 -0.5313  0.2496
   66SAPC   C22 5437   5.951   3.470   2.784 -0.2377 -0.3926  0.2455
   66SAPC   H2R 5438   5.845   3.454   2.813 -0.1974  0.0717  0.6588
   66SAPC   H2S 5439   5.985   3.377   2.733  0.0491  0.7238 -1.6521
   66SAPC    C3 5440   5.720   3.767   2.566 -0.4115 -0.2333  0.2407
   66SAPC    HX 5441   5.662   3.816   2.485  0.1170 -1.7698 -1.1060
   66SAPC    HY 5442   5.788   3.845   2.607 -0.4824  0.3491 -0.7235
   66SAPC   O31 5443   5.638   3.712   2.668 -0.1299  0.0413 -0.6299
   66SAPC   C31 5444   5.525   3.649   2.619 -0.5196 -0.7211 -0.3747
   66SAPC   O32 5445   5.485   3.669   2.509  0.1438  0.5710 -0.6896
   66SAPC   C32 5446   5.451   3.564   2.715 -0.1750 -0.4847 -0.8616
   66SAPC   H2X 5447   5.426   3.468   2.666  0.7391 -0.8361 -0.6555
   66SAPC   H2Y 5448   5.356   3.618   2.735  0.9884  0.2705  3.2293
   66SAPC   C23 5449   6.030   3.497   2.915 -0.4926 -0.0287  0.4348
   66SAPC   H3R 5450   6.109   3.574   2.903 -1.6100  1.4133  2.0425
   66SAPC   H3S 5451   6.083   3.409   2.955  1.3218 -0.9199 -3.6004
   66SAPC   C24 5452   5.942   3.553   3.032  0.3208 -0.7026 -0.1446
   66SAPC   H4R 5453   6.000   3.538   3.125  0.0687 -2.5185 -0.2789
   66SAPC   H4S 5454   5.848   3.495   3.045  0.8274 -1.3888  0.4640
   66SAPC   C25 5455   5.908   3.706   3.009 -0.3532  0.3480  0.0736
   66SAPC   H5R 5456   5.956   3.759   2.925  2.7333 -1.5675  0.5733
   66SAPC   C26 5457   5.821   3.773   3.092 -0.5176 -0.0189  0.7065
   66SAPC   H6R 5458   5.816   3.881   3.076 -0.5949 -0.3922 -2.0066
   66SAPC   C27 5459   5.753   3.716   3.215 -0.8954 -0.4954  0.0172
   66SAPC   H7R 5460   5.799   3.778   3.295 -0.6204 -0.0463 -0.4781
   66SAPC   H7S 5461   5.766   3.609   3.241  1.0213 -0.0390  1.0475
   66SAPC   C28 5462   5.610   3.756   3.220  0.5946 -0.3022 -0.2755
   66SAPC   H8R 5463   5.571   3.794   3.125 -0.6382 -0.7294  0.0379
   66SAPC   C29 5464   5.533   3.751   3.336 -0.4629  0.3234  0.6387
   66SAPC   H9R 5465   5.428   3.785   3.327  0.1439  2.1575  0.3321
   66SAPC  C210 5466   5.574   3.701   3.475  0.3423 -0.0748 -0.0822
   66SAPC  H10R 5467   5.575   3.792   3.538 -1.1181 -0.2900  0.2589
   66SAPC  H10S 5468   5.680   3.666   3.475  0.8053  1.2958 -0.8433
   66SAPC  C211 5469   5.484   3.591   3.536 -0.2306 -0.3102 -0.6905
   66SAPC  H11R 5470   5.436   3.519   3.470  0.4462  1.2629 -2.9552
   66SAPC  C212 5471   5.457   3.577   3.668  0.1500 -0.2260  0.4098
   66SAPC  H12R 5472   5.397   3.490   3.696 -2.8827  1.1313 -1.7029
   66SAPC  C213 5473   5.504   3.661   3.786 -0.7468  0.0788  0.0711
   66SAPC  H13R 5474   5.538   3.759   3.745  0.6826 -0.9314 -1.2552
   66SAPC  H13S 5475   5.587   3.607   3.836  1.8493  2.3441 -1.5910
   66SAPC  C214 5476   5.394   3.689   3.885  0.1064 -0.6282  0.1826
   66SAPC  H14R 5477   5.307   3.742   3.842  1.7395  0.6742 -1.5657
   66SAPC  C215 5478   5.390   3.650   4.015 -0.0031 -0.5909  0.2591
   66SAPC  H15R 5479   5.297   3.680   4.066 -0.5065  2.7215 -2.4223
   66SAPC  C216 5480   5.498   3.576   4.092 -0.4419  0.0089  0.2738
   66SAPC  H16R 5481   5.588   3.543   4.036 -0.7099  2.1059 -1.4729
   66SAPC  H16S 5482   5.445   3.497   4.148 -0.0401 -0.9056 -0.6250
   66SAPC  C217 5483   5.559   3.676   4.198  0.3510 -0.2894 -0.5087
   66SAPC  H17R 5484   5.484   3.722   4.266 -0.1582 -0.5854 -0.8665
   66SAPC  H17S 5485   5.614   3.758   4.147 -0.3797  1.1423  0.9621
   66SAPC  C218 5486   5.671   3.610   4.284 -0.0383  0.0497  0.7153
   66SAPC  H18R 5487   5.761   3.621   4.219  0.9531  0.4644  2.1429
   66SAPC  H18S 5488   5.651   3.501   4.286  1.7406 -0.3113 -0.1670
   66SAPC  C219 5489   5.689   3.678   4.424  0.5508 -0.1417  0.5524
   66SAPC  H19R 5490   5.589   3.657   4.469  1.3062  0.5919  2.6254
   66SAPC  H19S 5491   5.697   3.784   4.392 -2.5199 -0.7254 -2.3669
   66SAPC  C220 5492   5.796   3.616   4.514 -0.8161  0.1826 -0.0147
   66SAPC  H20R 5493   5.814   3.692   4.592  0.4216 -1.9480  1.8337
   66SAPC  H20S 5494   5.889   3.598   4.455 -1.4398 -0.5927 -0.7870
   66SAPC  H20T 5495   5.756   3.524   4.563  1.0803 -0.2585  0.7348
   66SAPC   C33 5496   5.523   3.547   2.851  0.1450 -0.0191 -0.1516
   66SAPC   H3X 5497   5.541   3.640   2.909 -0.9365  0.6134 -0.7953
   66SAPC   H3Y 5498   5.612   3.492   2.814 -0.5665 -2.9247  2.3127
   66SAPC   C34 5499   5.457   3.445   2.940 -0.4622  0.0876  0.4902
   66SAPC   H4X 5500   5.426   3.349   2.892 -0.2761  1.8054 -3.2240
   66SAPC   H4Y 5501   5.364   3.486   2.986 -1.4597 -1.3017 -0.2319
   66SAPC   C35 5502   5.544   3.424   3.065 -0.2242  0.0290  0.1273
   66SAPC   H5X 5503   5.480   3.413   3.155  0.3013 -1.0345  0.3724
   66SAPC   H5Y 5504   5.618   3.501   3.093 -0.6238  0.8703 -1.0842
   66SAPC   C36 5505   5.622   3.290   3.054  0.8022 -0.3703 -0.3337
   66SAPC   H6X 5506   5.687   3.286   2.965  2.2513 -1.2415  0.7486
   66SAPC   H6Y 5507   5.554   3.208   3.021 -2.5625  0.4144  4.1584
   66SAPC   C37 5508   5.690   3.247   3.189  0.5237  0.0986  0.0566
   66SAPC   H7X 5509   5.772   3.320   3.205  0.2217  0.6908 -1.0393
   66SAPC   H7Y 5510   5.745   3.151   3.175  3.0185  1.6130 -0.7452
   66SAPC   C38 5511   5.596   3.241   3.315 -0.1848  0.4597 -0.3169
   66SAPC   H8X 5512   5.571   3.340   3.358 -1.7392 -0.1562  0.2275
   66SAPC   H8Y 5513   5.667   3.207   3.394 -0.5851 -1.9456 -0.9498
   66SAPC   C39 5514   5.474   3.157   3.299 -0.2554 -0.0283  0.5863
   66SAPC   H9X 5515   5.483   3.052   3.262  1.9566 -0.0040  0.9779
   66SAPC   H9Y 5516   5.424   3.221   3.223  2.4431  0.9573 -0.4032
   66SAPC  C310 5517   5.401   3.144   3.427  0.2335  0.1093 -0.9003
   66SAPC  H10X 5518   5.368   3.245   3.459 -0.0700 -0.4361  0.5746
   66SAPC  H10Y 5519   5.475   3.115   3.505  0.1167 -0.6858 -1.0845
   66SAPC  C311 5520   5.270   3.048   3.426 -0.0859  0.9164  0.3045
   66SAPC  H11X 5521   5.293   2.967   3.353  1.8469  1.1104  0.6579
   66SAPC  H11Y 5522   5.181   3.107   3.394 -0.1350 -0.3940 -2.1193
   66SAPC  C312 5523   5.237   2.987   3.567 -0.5343  0.2215  0.1085
   66SAPC  H12X 5524   5.318   2.922   3.605 -2.3298 -1.3383  1.3735
   66SAPC  H12Y 5525   5.148   2.921   3.568 -1.7867  1.8646  1.0113
   66SAPC  C313 5526   5.213   3.090   3.677  0.4981  0.0848 -0.3186
   66SAPC  H13X 5527   5.131   3.153   3.637  2.6284  1.7289 -2.2575
   66SAPC  H13Y 5528   5.299   3.161   3.678 -0.1504  0.8628  0.9706
   66SAPC  C314 5529   5.175   3.021   3.812  0.3932  0.5914  0.0950
   66SAPC  H14X 5530   5.248   2.940   3.835  1.6602  1.4765 -0.7501
   66SAPC  H14Y 5531   5.074   2.977   3.795 -0.0057  1.0059  1.3286
   66SAPC  C315 5532   5.164   3.118   3.929  0.5478 -0.7847  0.9730
   66SAPC  H15X 5533   5.070   3.176   3.934 -0.3330 -2.2339  1.5813
   66SAPC  H15Y 5534   5.246   3.193   3.930 -0.9927  0.9368  1.2944
   66SAPC  C316 5535   5.155   3.040   4.061 -0.2359 -0.3010 -0.3445
   66SAPC  H16X 5536   5.256   2.996   4.068  0.3930  1.1168 -0.3129
   66SAPC  H16Y 5537   5.081   2.957   4.060 -0.0284 -0.4784 -1.2944
   66SAPC  C317 5538   5.130   3.134   4.176 -0.7154 -0.4136  0.2627
   66SAPC  H17X 5539   5.185   3.229   4.164  2.1975 -2.0616  0.2574
   66SAPC  H17Y 5540   5.174   3.081   4.263 -0.0394  0.4349  0.4396
   66SAPC  C318 5541   4.983   3.165   4.201  0.5019 -0.2675  1.0303
   66SAPC  H18X 5542   4.939   3.078   4.255 -0.4650 -1.2702 -1.2916
   66SAPC  H18Y 5543   4.924   3.185   4.109 -1.1372  1.4066  2.4050
   66SAPC  H18Z 5544   4.975   3.256   4.263  0.4792  0.0775  0.5212
   67SAPC     N 5545   1.807   1.644   2.414  0.2876  0.1863 -0.8565
   67SAPC   C12 5546   1.718   1.696   2.304  0.1666  1.0419  0.7009
   67SAPC  H12A 5547   1.701   1.614   2.237  1.7350  1.6519 -0.4819
   67SAPC  H12B 5548   1.776   1.770   2.250  3.1676 -0.7099  1.3845
   67SAPC   C13 5549   1.930   1.579   2.364 -0.1465  0.3964  0.3205
   67SAPC  H13A 5550   2.009   1.562   2.436  0.1705 -2.1516 -0.5767
   67SAPC  H13B 5551   1.912   1.479   2.327  2.3172  0.9381 -2.5325
   67SAPC  H13C 5552   1.970   1.638   2.282  0.5576 -1.0927 -0.4209
   67SAPC   C14 5553   1.851   1.766   2.491 -0.1004 -0.8543  0.1335
   67SAPC  H14A 5554   1.923   1.823   2.433  0.1764 -1.5364 -0.2063
   67SAPC  H14B 5555   1.763   1.827   2.507  0.6284  0.0085  0.8998
   67SAPC  H14C 5556   1.904   1.740   2.581 -1.5469 -0.9649  0.9644
   67SAPC   C15 5557   1.744   1.550   2.509 -0.0525  0.5209 -0.8401
   67SAPC  H15A 5558   1.725   1.452   2.467 -3.0116  1.1765 -1.1022
   67SAPC  H15B 5559   1.813   1.518   2.585  1.4418  1.0598 -1.9354
   67SAPC  H15C 5560   1.664   1.594   2.565  0.9785  1.7794 -0.3397
   67SAPC   C11 5561   1.577   1.760   2.348 -0.5055  0.2356  0.7705
   67SAPC  H11A 5562   1.524   1.669   2.382  0.7744 -0.1546  1.7703
   67SAPC  H11B 5563   1.518   1.793   2.260 -1.1308  1.7882  1.7467
   67SAPC     P 5564   1.593   2.017   2.398  0.0233  0.1055 -0.1804
   67SAPC   O13 5565   1.720   2.029   2.316  0.3437 -0.1654  0.7204
   67SAPC   O14 5566   1.468   2.064   2.330  0.3911  0.3209 -0.1931
   67SAPC   O12 5567   1.586   1.861   2.448  0.6074  0.1455  0.1914
   67SAPC   O11 5568   1.607   2.086   2.535  0.0767  0.5251  0.3692
   67SAPC    C1 5569   1.494   2.085   2.623  0.3249  0.4196 -0.4962
   67SAPC    HA 5570   1.431   1.996   2.603  0.2208  0.4491 -0.2901
   67SAPC    HB 5571   1.528   2.087   2.728  1.6330  2.0033 -0.9208
   67SAPC    C2 5572   1.399   2.205   2.599  0.6873 -0.6965 -0.0103
   67SAPC    HS 5573   1.371   2.211   2.492  0.0742  2.2293  0.2832
   67SAPC   O21 5574   1.466   2.330   2.645  0.4076  0.9803  0.2812
   67SAPC   C21 5575   1.409   2.433   2.586 -0.1070  0.0040 -0.1543
   67SAPC   O22 5576   1.333   2.433   2.494 -0.4261 -1.2978  0.0826
   67SAPC   C22 5577   1.475   2.560   2.652 -0.5186  0.3299  0.6157
   67SAPC   H2R 5578   1.570   2.529   2.699 -1.2135 -2.7992  0.0591
   67SAPC   H2S 5579   1.475   2.633   2.569 -0.5559  0.7484  0.9807
   67SAPC    C3 5580   1.273   2.183   2.683  0.5754  0.0519 -0.4078
   67SAPC    HX 5581   1.225   2.092   2.640 -1.2663  1.2660 -0.9941
   67SAPC    HY 5582   1.196   2.258   2.654 -0.3630 -0.3648  1.0049
   67SAPC   O31 5583   1.303   2.166   2.821 -0.2892 -0.6672 -0.6576
   67SAPC   C31 5584   1.201   2.161   2.893 -0.0678 -0.4335 -0.0513
   67SAPC   O32 5585   1.085   2.144   2.854  0.4667  0.4640  0.0955
   67SAPC   C32 5586   1.241   2.152   3.044 -0.4924 -0.1380  0.3041
   67SAPC   H2X 5587   1.341   2.200   3.052 -0.5904 -0.2173  2.2187
   67SAPC   H2Y 5588   1.252   2.043   3.066  0.8625  0.0021  0.3245
   67SAPC   C23 5589   1.391   2.613   2.767  0.8391  0.0147 -0.2252
   67SAPC   H3R 5590   1.301   2.664   2.728  0.7299  0.3666  0.4696
   67SAPC   H3S 5591   1.458   2.676   2.830 -0.0013  0.6593  0.0406
   67SAPC   C24 5592   1.338   2.506   2.870 -0.2086 -0.3609  0.3517
   67SAPC   H4R 5593   1.418   2.435   2.901  0.2270  0.2289  0.5873
   67SAPC   H4S 5594   1.264   2.445   2.813  0.2142 -2.0165  1.5438
   67SAPC   C25 5595   1.273   2.561   2.995  0.1831 -0.7956  1.1019
   67SAPC   H5R 5596   1.170   2.596   2.974  0.4702 -0.9076 -0.6007
   67SAPC   C26 5597   1.332   2.582   3.114  0.0220  0.1738 -0.5579
   67SAPC   H6R 5598   1.271   2.639   3.186 -0.2738 -0.4242 -0.3328
   67SAPC   C27 5599   1.473   2.564   3.155  0.0995 -0.4419 -0.1874
   67SAPC   H7R 5600   1.535   2.507   3.082  0.5565  0.8865 -0.8436
   67SAPC   H7S 5601   1.475   2.530   3.261  1.8340  1.3498  0.3805
   67SAPC   C28 5602   1.548   2.692   3.156 -0.0407  0.0605 -0.2007
   67SAPC   H8R 5603   1.603   2.720   3.065  1.9556 -0.3131  0.8607
   67SAPC   C29 5604   1.553   2.779   3.259 -0.4979  0.4216  0.6965
   67SAPC   H9R 5605   1.610   2.872   3.243  1.2981 -0.6626  0.6219
   67SAPC  C210 5606   1.476   2.769   3.389 -0.1700  0.3528 -0.0126
   67SAPC  H10R 5607   1.396   2.692   3.389 -1.4546  1.6387  0.2566
   67SAPC  H10S 5608   1.434   2.872   3.400  0.5159  1.0940 -3.5742
   67SAPC  C211 5609   1.563   2.719   3.509  0.4844  0.4283 -0.4495
   67SAPC  H11R 5610   1.664   2.687   3.479  0.8985 -0.5426  1.8806
   67SAPC  C212 5611   1.522   2.703   3.638 -0.7716 -0.7811 -0.8156
   67SAPC  H12R 5612   1.588   2.657   3.713  0.8420  1.0933 -1.0660
   67SAPC  C213 5613   1.378   2.731   3.685 -0.8023 -0.3382 -0.0590
   67SAPC  H13R 5614   1.359   2.670   3.776  2.5701 -0.8733  0.3351
   67SAPC  H13S 5615   1.312   2.684   3.608 -2.7241  2.0613  0.0876
   67SAPC  C214 5616   1.342   2.879   3.705 -0.0726 -0.2481 -0.6240
   67SAPC  H14R 5617   1.314   2.925   3.610 -0.7062  0.4970 -0.0814
   67SAPC  C215 5618   1.351   2.950   3.825  0.1499 -0.3234  1.5636
   67SAPC  H15R 5619   1.324   3.057   3.822  3.8291  0.6329 -1.8657
   67SAPC  C216 5620   1.392   2.889   3.956 -0.0448  0.4824  0.6395
   67SAPC  H16R 5621   1.315   2.812   3.978  0.9295 -0.3303  1.2345
   67SAPC  H16S 5622   1.381   2.952   4.047 -0.5693  0.0026  0.9157
   67SAPC  C217 5623   1.542   2.845   3.975  1.1667 -0.2176 -0.8433
   67SAPC  H17R 5624   1.597   2.941   3.964  1.5406 -0.3292  0.0232
   67SAPC  H17S 5625   1.582   2.780   3.895 -0.8859 -0.5114 -1.6773
   67SAPC  C218 5626   1.576   2.799   4.114 -0.3610  0.3941  0.0916
   67SAPC  H18R 5627   1.543   2.870   4.192 -0.3739  2.0562 -1.3954
   67SAPC  H18S 5628   1.687   2.790   4.121 -0.5199 -0.1616  2.0407
   67SAPC  C219 5629   1.514   2.658   4.138 -0.0119  0.3822  0.4230
   67SAPC  H19R 5630   1.556   2.595   4.056 -0.6047  1.9168 -1.0997
   67SAPC  H19S 5631   1.405   2.654   4.116 -0.3317  0.4229  1.9342
   67SAPC  C220 5632   1.545   2.596   4.278  0.1964 -0.8813  0.6793
   67SAPC  H20R 5633   1.510   2.492   4.293  0.5534 -1.2898 -1.1287
   67SAPC  H20S 5634   1.514   2.661   4.362  1.3341 -0.2773  0.6411
   67SAPC  H20T 5635   1.656   2.597   4.286  0.3231 -0.2507 -0.9653
   67SAPC   C33 5636   1.142   2.205   3.152 -0.1380 -0.9124  0.0231
   67SAPC   H3X 5637   1.041   2.160   3.142 -0.1934 -1.2447  1.8908
   67SAPC   H3Y 5638   1.130   2.315   3.140 -3.5971 -1.2891 -0.2559
   67SAPC   C34 5639   1.182   2.193   3.304  0.3213  0.0390 -0.3989
   67SAPC   H4X 5640   1.178   2.089   3.341  0.8414 -0.8161 -2.7113
   67SAPC   H4Y 5641   1.109   2.245   3.370  2.0893 -0.9054  2.4352
   67SAPC   C35 5642   1.319   2.254   3.332  0.1281  0.2239 -0.2197
   67SAPC   H5X 5643   1.339   2.356   3.292  0.8855  0.2245  0.1387
   67SAPC   H5Y 5644   1.395   2.177   3.305 -0.7812 -1.9370  3.1645
   67SAPC   C36 5645   1.340   2.277   3.484  0.4602 -0.3859 -0.4120
   67SAPC   H6X 5646   1.339   2.176   3.531 -1.1553 -0.8016 -1.3287
   67SAPC   H6Y 5647   1.254   2.336   3.520  0.2955 -2.8043  3.4786
   67SAPC   C37 5648   1.482   2.332   3.513  0.5908  0.5708 -0.3872
   67SAPC   H7X 5649   1.494   2.440   3.489  0.0954  0.9572  1.0416
   67SAPC   H7Y 5650   1.556   2.272   3.456  1.1308 -1.2040  2.0971
   67SAPC   C38 5651   1.505   2.299   3.666 -0.0607 -0.5064  0.0811
   67SAPC   H8X 5652   1.498   2.190   3.688 -0.4947 -0.6985 -1.0219
   67SAPC   H8Y 5653   1.423   2.332   3.734 -2.0122  0.2562 -2.5891
   67SAPC   C39 5654   1.639   2.355   3.715 -0.4759 -0.7646 -0.7410
   67SAPC   H9X 5655   1.648   2.460   3.681  2.0975 -0.7331 -0.0857
   67SAPC   H9Y 5656   1.728   2.294   3.690 -0.2089 -0.5290 -0.3613
   67SAPC  C310 5657   1.637   2.373   3.870 -0.2495  0.0623 -0.3678
   67SAPC  H10X 5658   1.589   2.281   3.910  1.0718 -0.5153 -0.1018
   67SAPC  H10Y 5659   1.571   2.454   3.907  0.6161  0.6280 -0.0626
   67SAPC  C311 5660   1.781   2.385   3.929 -0.5185 -0.0350  0.0058
   67SAPC  H11X 5661   1.811   2.490   3.908 -0.7826  0.1795  0.6798
   67SAPC  H11Y 5662   1.857   2.322   3.878 -1.3615 -1.2749  0.2576
   67SAPC  C312 5663   1.775   2.361   4.084 -0.3711  0.1732  0.1142
   67SAPC  H12X 5664   1.760   2.254   4.110  1.1751  0.6290  3.0235
   67SAPC  H12Y 5665   1.689   2.406   4.139 -0.6073 -0.2801  0.1203
   67SAPC  C313 5666   1.905   2.412   4.156 -0.6730 -0.2759 -0.1110
   67SAPC  H13X 5667   1.918   2.523   4.149 -0.1159 -0.3762 -0.7549
   67SAPC  H13Y 5668   2.000   2.386   4.104  0.9110 -0.6136  2.8466
   67SAPC  C314 5669   1.920   2.359   4.302  0.3855 -0.0674 -0.4052
   67SAPC  H14X 5670   2.018   2.392   4.342  0.9574 -1.2207 -0.8523
   67SAPC  H14Y 5671   1.917   2.248   4.310 -0.3549 -0.0909 -0.9742
   67SAPC  C315 5672   1.821   2.413   4.404 -0.6155 -0.0178 -0.5021
   67SAPC  H15X 5673   1.725   2.360   4.385 -1.2436  0.4822  1.1462
   67SAPC  H15Y 5674   1.811   2.523   4.397  2.4628  0.3108 -0.2914
   67SAPC  C316 5675   1.859   2.402   4.547  0.9305 -0.7883  0.6424
   67SAPC  H16X 5676   1.925   2.486   4.577  1.0101 -0.1941 -1.1565
   67SAPC  H16Y 5677   1.905   2.303   4.568  3.4120  0.4759  1.3591
   67SAPC  C317 5678   1.732   2.404   4.634  0.2375  0.2387 -0.2996
   67SAPC  H17X 5679   1.682   2.305   4.623  3.7153 -1.7453  0.7685
   67SAPC  H17Y 5680   1.663   2.482   4.596  0.2024  0.3892  0.0683
   67SAPC  C318 5681   1.748   2.411   4.788 -0.2264  0.5021 -0.2582
   67SAPC  H18X 5682   1.656   2.373   4.837  0.7859 -0.1731  1.1665
   67SAPC  H18Y 5683   1.759   2.511   4.835 -1.6025  0.0842  1.0149
   67SAPC  H18Z 5684   1.833   2.351   4.828  0.3026  0.6328 -1.1735
   68SAPC     N 5685   4.425   0.267   1.992 -0.4101 -0.3559 -0.2279
   68SAPC   C12 5686   4.313   0.167   1.983  0.7322  1.0981  0.3593
   68SAPC  H12A 5687   4.353   0.073   2.019 -0.1108 -0.0501 -1.6480
   68SAPC  H12B 5688   4.296   0.146   1.878  2.3981 -0.1527  0.3246
   68SAPC   C13 5689   4.550   0.211   1.930 -0.2806 -0.7173 -0.5170
   68SAPC  H13A 5690   4.628   0.286   1.917 -1.4199 -0.0262 -3.6750
   68SAPC  H13B 5691   4.592   0.125   1.979 -1.3179 -0.8311  0.1631
   68SAPC  H13C 5692   4.531   0.178   1.829  0.9975 -3.5723  0.1284
   68SAPC   C14 5693   4.392   0.387   1.908  0.8025 -0.1865 -0.3875
   68SAPC  H14A 5694   4.384   0.365   1.802 -2.6655 -0.0696 -0.2261
   68SAPC  H14B 5695   4.298   0.423   1.949  0.5393  0.9432 -1.9453
   68SAPC  H14C 5696   4.468   0.460   1.928 -0.5407  1.4701 -1.1656
   68SAPC   C15 5697   4.442   0.305   2.137 -0.4111 -0.5518 -0.4871
   68SAPC  H15A 5698   4.465   0.215   2.193  1.2538 -0.3379 -0.8237
   68SAPC  H15B 5699   4.520   0.378   2.149 -1.4473  0.3396  0.9156
   68SAPC  H15C 5700   4.354   0.355   2.175 -0.2991 -0.4925 -0.3029
   68SAPC   C11 5701   4.184   0.197   2.055  0.1398  0.3365 -0.5905
   68SAPC  H11A 5702   4.196   0.188   2.165 -1.0096  2.3522 -0.2568
   68SAPC  H11B 5703   4.114   0.114   2.030 -1.4966  1.0710  1.3556
   68SAPC     P 5704   4.063   0.430   2.109  0.1523  0.0084 -0.4228
   68SAPC   O13 5705   4.159   0.542   2.129  0.2970  0.9943 -0.4894
   68SAPC   O14 5706   3.930   0.459   2.052 -0.1034  0.3241 -0.0512
   68SAPC   O12 5707   4.129   0.323   2.011 -0.2646 -0.2870 -0.0662
   68SAPC   O11 5708   4.057   0.356   2.246 -0.1595 -0.3551 -0.1239
   68SAPC    C1 5709   3.954   0.360   2.337  0.8073 -0.0063  0.2592
   68SAPC    HA 5710   3.861   0.311   2.299  0.5040  0.1505  0.7839
   68SAPC    HB 5711   3.985   0.319   2.436 -1.3776  0.4440  1.1533
   68SAPC    C2 5712   3.906   0.504   2.372 -0.2923 -0.4863 -0.6361
   68SAPC    HS 5713   3.854   0.549   2.284 -0.7316  1.5489  0.6174
   68SAPC   O21 5714   4.014   0.585   2.426  0.9075  0.4368 -0.3071
   68SAPC   C21 5715   3.994   0.721   2.433 -0.0908  0.0818  0.3419
   68SAPC   O22 5716   3.897   0.776   2.389  0.7405 -0.1918 -0.5047
   68SAPC   C22 5717   4.119   0.792   2.469  0.4642  0.0766  0.5722
   68SAPC   H2R 5718   4.181   0.722   2.529  0.7870 -0.2284 -0.1074
   68SAPC   H2S 5719   4.177   0.823   2.379  1.3767 -0.3044  1.0278
   68SAPC    C3 5720   3.800   0.506   2.482 -0.3490 -0.0663 -0.1775
   68SAPC    HX 5721   3.713   0.447   2.447  0.1316 -0.4530 -0.7465
   68SAPC    HY 5722   3.769   0.611   2.500 -2.2659 -0.7616  0.7071
   68SAPC   O31 5723   3.852   0.438   2.606  0.4686 -0.9558 -0.0971
   68SAPC   C31 5724   3.782   0.474   2.717 -0.6785  0.0510  0.1034
   68SAPC   O32 5725   3.690   0.548   2.721 -0.4707 -0.4242 -0.0865
   68SAPC   C32 5726   3.847   0.420   2.843  0.1167 -0.1929 -0.5838
   68SAPC   H2X 5727   3.957   0.430   2.838  0.1599  0.6027  1.3911
   68SAPC   H2Y 5728   3.822   0.312   2.859  2.5451 -0.9176 -1.5281
   68SAPC   C23 5729   4.087   0.912   2.573  0.1439 -0.0859 -0.5652
   68SAPC   H3R 5730   4.005   0.970   2.527  1.1684  1.6345 -0.2624
   68SAPC   H3S 5731   4.177   0.976   2.589 -2.2605  3.0937  0.7804
   68SAPC   C24 5732   4.035   0.871   2.711 -0.3944 -0.8256  0.3151
   68SAPC   H4R 5733   4.094   0.930   2.784  1.0518 -0.6039 -0.9904
   68SAPC   H4S 5734   4.085   0.775   2.738  0.4437  0.6731  4.3590
   68SAPC   C25 5735   3.887   0.860   2.738 -0.2131 -0.3438 -0.3767
   68SAPC   H5R 5736   3.817   0.813   2.668 -1.5016  0.3363  0.4428
   68SAPC   C26 5737   3.833   0.904   2.849  0.6011 -0.4670  0.2428
   68SAPC   H6R 5738   3.734   0.858   2.860  1.1019 -1.4658  0.6115
   68SAPC   C27 5739   3.898   0.967   2.969 -0.2638  0.0321  0.4288
   68SAPC   H7R 5740   4.005   0.936   2.964  0.2302  0.8270  4.1618
   68SAPC   H7S 5741   3.862   0.918   3.062 -0.0549 -0.3974  0.2849
   68SAPC   C28 5742   3.881   1.121   2.970 -0.7582 -0.4114  0.1679
   68SAPC   H8R 5743   3.927   1.173   2.884 -1.1282 -0.2729  0.0486
   68SAPC   C29 5744   3.820   1.201   3.062 -0.3770  1.0743  0.1368
   68SAPC   H9R 5745   3.824   1.311   3.063  0.0231  1.1096 -1.8664
   68SAPC  C210 5746   3.757   1.148   3.187  0.0295 -0.0929  0.1207
   68SAPC  H10R 5747   3.767   1.219   3.271 -0.0344  1.7112 -1.3517
   68SAPC  H10S 5748   3.802   1.052   3.218  1.6679 -0.2885 -2.6591
   68SAPC  C211 5749   3.614   1.103   3.167  0.1345  0.1789 -0.3751
   68SAPC  H11R 5750   3.601   1.012   3.106 -0.0129 -0.0272 -0.0411
   68SAPC  C212 5751   3.503   1.167   3.201 -0.1586  0.0819 -0.0479
   68SAPC  H12R 5752   3.403   1.122   3.191 -0.4233  0.0247  2.5711
   68SAPC  C213 5753   3.500   1.304   3.267  0.1280  0.4878  0.0271
   68SAPC  H13R 5754   3.468   1.368   3.182 -0.8463  0.4425  0.3522
   68SAPC  H13S 5755   3.591   1.349   3.310 -0.7735 -0.0622  2.6433
   68SAPC  C214 5756   3.393   1.303   3.375 -0.0621  0.6289  0.1106
   68SAPC  H14R 5757   3.289   1.307   3.340 -0.0207 -2.2953 -0.4315
   68SAPC  C215 5758   3.416   1.289   3.507  0.7421  0.2444  0.2091
   68SAPC  H15R 5759   3.337   1.280   3.583 -0.1877 -0.9217 -0.8718
   68SAPC  C216 5760   3.553   1.260   3.564 -1.3361  0.6424 -0.1560
   68SAPC  H16R 5761   3.584   1.332   3.642  0.8315 -0.8915  0.4520
   68SAPC  H16S 5762   3.628   1.250   3.482 -0.0819  1.2282  0.9019
   68SAPC  C217 5763   3.552   1.116   3.637 -0.0231  0.0965 -0.2007
   68SAPC  H17R 5764   3.455   1.099   3.689  0.0224 -2.1840 -0.7998
   68SAPC  H17S 5765   3.631   1.118   3.714 -0.0942  1.4693 -0.1391
   68SAPC  C218 5766   3.573   1.007   3.537 -0.8042  0.4755 -0.5437
   68SAPC  H18R 5767   3.681   0.994   3.517 -0.7307 -0.7990  0.5460
   68SAPC  H18S 5768   3.537   1.038   3.437 -0.3923  2.7824  0.0027
   68SAPC  C219 5769   3.528   0.871   3.578 -0.0043 -0.1117  0.0417
   68SAPC  H19R 5770   3.449   0.877   3.656 -0.9485 -0.6237 -0.8537
   68SAPC  H19S 5771   3.612   0.815   3.624  0.7056 -1.3674 -2.6594
   68SAPC  C220 5772   3.472   0.772   3.475 -0.3808  0.3578  0.0752
   68SAPC  H20R 5773   3.556   0.716   3.428 -0.3343  0.6845 -0.2281
   68SAPC  H20S 5774   3.423   0.827   3.392 -0.3223 -0.3403 -0.4321
   68SAPC  H20T 5775   3.396   0.715   3.532 -0.2577  0.2926  0.1749
   68SAPC   C33 5776   3.792   0.496   2.965 -0.3245 -0.4194  0.2377
   68SAPC   H3X 5777   3.681   0.493   2.971 -0.2655  0.1877  2.0252
   68SAPC   H3Y 5778   3.814   0.604   2.959 -0.1474 -0.3346  2.0050
   68SAPC   C34 5779   3.848   0.433   3.087  0.5338  0.1942 -0.3124
   68SAPC   H4X 5780   3.957   0.432   3.066  0.1719  2.5337 -2.4875
   68SAPC   H4Y 5781   3.823   0.326   3.102 -0.4945  0.4170 -0.4362
   68SAPC   C35 5782   3.824   0.513   3.217  0.6438  0.1421 -0.3424
   68SAPC   H5X 5783   3.713   0.520   3.227  0.6520 -0.0175 -0.1447
   68SAPC   H5Y 5784   3.859   0.618   3.203  1.5895 -0.0989  0.2039
   68SAPC   C36 5785   3.878   0.440   3.340  0.2017  0.2517  0.0030
   68SAPC   H6X 5786   3.985   0.468   3.345  0.4350 -0.3423 -1.4091
   68SAPC   H6Y 5787   3.876   0.329   3.333 -1.6278  0.2448  0.2820
   68SAPC   C37 5788   3.795   0.487   3.462  0.2083 -0.3475  0.2069
   68SAPC   H7X 5789   3.698   0.527   3.428  1.3024  1.5136 -0.7966
   68SAPC   H7Y 5790   3.856   0.569   3.506  3.2752 -2.2763 -0.2363
   68SAPC   C38 5791   3.779   0.372   3.564 -0.8774 -0.6436 -0.4153
   68SAPC   H8X 5792   3.883   0.348   3.595 -0.2644 -0.6517 -2.4141
   68SAPC   H8Y 5793   3.730   0.287   3.512 -0.9567 -0.7432 -0.1818
   68SAPC   C39 5794   3.705   0.428   3.682  0.5438  0.1157  0.4328
   68SAPC   H9X 5795   3.619   0.359   3.695  0.0304  0.0999 -2.8103
   68SAPC   H9Y 5796   3.652   0.524   3.664  2.7155  1.2245 -0.2904
   68SAPC  C310 5797   3.794   0.468   3.804  0.4315  0.1366  0.0475
   68SAPC  H10X 5798   3.877   0.532   3.768  0.3755  0.5474  0.6501
   68SAPC  H10Y 5799   3.842   0.373   3.836 -0.9331 -0.3551  0.6950
   68SAPC  C311 5800   3.721   0.549   3.918 -0.6483  0.9524 -0.0162
   68SAPC  H11X 5801   3.643   0.476   3.947 -0.6438  0.8382 -0.2868
   68SAPC  H11Y 5802   3.684   0.643   3.872 -0.0262  1.1163 -0.1849
   68SAPC  C312 5803   3.826   0.578   4.023 -0.1029 -0.3500 -0.4072
   68SAPC  H12X 5804   3.910   0.512   3.995  1.0468 -0.2516  2.6513
   68SAPC  H12Y 5805   3.789   0.550   4.124  0.0751 -1.1699 -0.5720
   68SAPC  C313 5806   3.862   0.726   4.033 -0.2817 -0.7233 -0.1216
   68SAPC  H13X 5807   3.768   0.786   4.035 -0.4531 -0.9959  0.0365
   68SAPC  H13Y 5808   3.923   0.754   3.944  0.1492  0.3516  0.4962
   68SAPC  C314 5809   3.933   0.762   4.160 -0.1481  0.4452  0.3279
   68SAPC  H14X 5810   4.017   0.831   4.139  1.2181 -0.4834  2.5726
   68SAPC  H14Y 5811   3.992   0.673   4.189  1.4025  0.4554 -2.6059
   68SAPC  C315 5812   3.843   0.792   4.273 -0.1246  0.2963 -0.8743
   68SAPC  H15X 5813   3.766   0.712   4.281 -1.2016  1.5940  2.6214
   68SAPC  H15Y 5814   3.784   0.880   4.239 -2.1163 -1.1972 -1.3995
   68SAPC  C316 5815   3.918   0.802   4.402  0.2533  0.1273 -0.6767
   68SAPC  H16X 5816   3.976   0.712   4.431  0.2210  0.4740  0.4784
   68SAPC  H16Y 5817   3.837   0.801   4.477  0.2859  0.9754 -0.6277
   68SAPC  C317 5818   4.010   0.920   4.416 -0.7576  0.1192 -0.4600
   68SAPC  H17X 5819   3.962   1.016   4.385  0.3612  0.7651 -0.2124
   68SAPC  H17Y 5820   4.106   0.908   4.362 -0.2910 -2.9756  0.9898
   68SAPC  C318 5821   4.043   0.939   4.565 -0.7061 -0.2062 -0.5279
   68SAPC  H18X 5822   3.955   0.914   4.628  0.2570  2.1453  1.8692
   68SAPC  H18Y 5823   4.069   1.043   4.597  2.4164 -0.8601 -0.8207
   68SAPC  H18Z 5824   4.122   0.871   4.602 -0.7616 -0.3575 -0.6909
   69SAPC     N 5825   3.757   6.336   2.382 -0.3465 -0.3220  0.0348
   69SAPC   C12 5826   3.885   6.404   2.334 -0.3602  0.0527  0.0527
   69SAPC  H12A 5827   3.969   6.366   2.392  0.0827  0.2276 -0.4682
   69SAPC  H12B 5828   3.887   6.512   2.338 -0.9663  0.0798 -0.3741
   69SAPC   C13 5829   3.746   6.372   2.528 -0.1302  0.3787 -0.5755
   69SAPC  H13A 5830   3.651   6.348   2.574 -0.2055  1.7299 -0.0156
   69SAPC  H13B 5831   3.820   6.317   2.584  0.0418  0.5583 -0.6279
   69SAPC  H13C 5832   3.770   6.476   2.542  1.0912  0.2908 -1.9520
   69SAPC   C14 5833   3.633   6.388   2.318 -0.6803  0.2787 -0.2541
   69SAPC  H14A 5834   3.631   6.496   2.321  0.9586  0.3758 -1.5853
   69SAPC  H14B 5835   3.630   6.373   2.211  2.6189  1.0642 -0.5320
   69SAPC  H14C 5836   3.547   6.333   2.354 -0.1584 -0.7391 -0.5363
   69SAPC   C15 5837   3.772   6.185   2.380  0.2624 -0.2128  1.0926
   69SAPC  H15A 5838   3.759   6.141   2.282 -0.8352 -0.7060  1.4498
   69SAPC  H15B 5839   3.870   6.162   2.420  0.3653 -1.2302  0.2893
   69SAPC  H15C 5840   3.684   6.142   2.426  1.0130 -0.8873  1.9192
   69SAPC   C11 5841   3.902   6.367   2.183  0.3670 -0.4343  0.6764
   69SAPC  H11A 5842   3.818   6.415   2.130 -0.5333 -0.5290  1.9996
   69SAPC  H11B 5843   3.902   6.260   2.151  1.0941 -0.3406  0.3366
   69SAPC     P 5844   4.169   6.356   2.152  0.0401  0.3960  0.4096
   69SAPC   O13 5845   4.157   6.211   2.129 -0.3265 -0.1844  0.3047
   69SAPC   O14 5846   4.267   6.434   2.075 -0.0704 -0.0101 -0.5236
   69SAPC   O12 5847   4.022   6.431   2.141  0.1142 -0.1733  0.1768
   69SAPC   O11 5848   4.201   6.376   2.303 -0.1067 -0.3928 -0.1162
   69SAPC    C1 5849   4.332   6.393   2.356 -0.2361 -0.7744  0.5309
   69SAPC    HA 5850   4.353   6.305   2.420 -0.2305 -0.3864  1.0658
   69SAPC    HB 5851   4.409   6.385   2.277  0.0340  1.8504  0.4897
   69SAPC    C2 5852   4.351   6.515   2.443 -0.6266 -0.7030 -0.3403
   69SAPC    HS 5853   4.461   6.525   2.453 -0.6845 -1.0391  0.6906
   69SAPC   O21 5854   4.291   6.489   2.568  0.2760  0.3858 -0.2806
   69SAPC   C21 5855   4.360   6.531   2.680 -0.3573 -1.0214  0.1509
   69SAPC   O22 5856   4.471   6.576   2.674 -0.1082  0.1561  0.2410
   69SAPC   C22 5857   4.281   6.512   2.811  0.7886  0.6144  0.4985
   69SAPC   H2R 5858   4.178   6.502   2.770  0.3300  0.5830  1.6526
   69SAPC   H2S 5859   4.318   6.417   2.855 -0.6752 -0.0363  0.3456
   69SAPC    C3 5860   4.281   6.633   2.366  0.3472 -0.2486 -0.0990
   69SAPC    HX 5861   4.173   6.618   2.389 -0.1000  0.6763 -1.5167
   69SAPC    HY 5862   4.294   6.630   2.256 -0.1632  2.3467 -0.2466
   69SAPC   O31 5863   4.338   6.756   2.408 -0.0578 -0.2594  0.2070
   69SAPC   C31 5864   4.304   6.811   2.523  0.7019  0.1194 -0.1990
   69SAPC   O32 5865   4.214   6.777   2.598 -0.1253 -0.6017 -1.0209
   69SAPC   C32 5866   4.390   6.933   2.552  0.0923  0.2224 -0.4031
   69SAPC   H2X 5867   4.352   7.017   2.490 -1.8190 -0.1572  0.2234
   69SAPC   H2Y 5868   4.486   6.909   2.501  0.2066  0.0944 -0.1274
   69SAPC   C23 5869   4.278   6.625   2.915 -0.7736 -0.0691  0.0406
   69SAPC   H3R 5870   4.290   6.723   2.864 -0.7535  0.3940  0.9267
   69SAPC   H3S 5871   4.370   6.608   2.975  0.3523  0.0863 -1.5987
   69SAPC   C24 5872   4.147   6.625   2.999 -0.0980  0.8366  0.1813
   69SAPC   H4R 5873   4.049   6.649   2.952 -0.8906 -1.4245  0.5867
   69SAPC   H4S 5874   4.164   6.711   3.067  0.3259 -0.0087  1.1570
   69SAPC   C25 5875   4.144   6.494   3.080  0.1076  0.5939  0.3025
   69SAPC   H5R 5876   4.210   6.492   3.168  1.1188 -1.5543 -0.4929
   69SAPC   C26 5877   4.058   6.388   3.064 -0.5588 -0.0248 -0.7705
   69SAPC   H6R 5878   4.062   6.306   3.137 -2.0082  1.1626  0.6769
   69SAPC   C27 5879   3.947   6.393   2.960 -0.7612  0.8887  0.8859
   69SAPC   H7R 5880   3.982   6.438   2.864 -0.6835  1.2526  1.0836
   69SAPC   H7S 5881   3.871   6.468   2.992 -2.4314 -0.3340 -0.1544
   69SAPC   C28 5882   3.884   6.265   2.910 -0.2044  0.1100 -0.1475
   69SAPC   H8R 5883   3.955   6.194   2.863 -0.2064  0.9663 -1.4700
   69SAPC   C29 5884   3.760   6.222   2.911  0.2046 -0.1615 -0.5388
   69SAPC   H9R 5885   3.733   6.119   2.885  1.4279 -1.1532  1.8857
   69SAPC  C210 5886   3.646   6.297   2.971 -0.0297  0.3706  0.3375
   69SAPC  H10R 5887   3.669   6.404   2.993 -0.6587  0.7941 -1.0487
   69SAPC  H10S 5888   3.624   6.252   3.070 -1.7824  1.6899  0.5805
   69SAPC  C211 5889   3.531   6.292   2.873 -0.7719 -0.4053  0.1715
   69SAPC  H11R 5890   3.552   6.279   2.766 -1.3197 -0.0133  0.0116
   69SAPC  C212 5891   3.408   6.306   2.912 -0.4671 -0.7761 -0.2968
   69SAPC  H12R 5892   3.332   6.305   2.833 -3.8713  0.1324  2.8578
   69SAPC  C213 5893   3.347   6.326   3.048 -1.1011  0.0330  0.1144
   69SAPC  H13R 5894   3.412   6.282   3.127 -1.6559  0.0815  0.5936
   69SAPC  H13S 5895   3.260   6.257   3.047 -0.6873 -0.5006  0.5964
   69SAPC  C214 5896   3.301   6.473   3.064 -0.6521  0.2840 -0.2882
   69SAPC  H14R 5897   3.261   6.508   2.968  0.5420 -0.3822 -1.0468
   69SAPC  C215 5898   3.281   6.530   3.182  0.3133  0.4868 -0.0495
   69SAPC  H15R 5899   3.228   6.626   3.179 -1.6907 -0.6119 -0.5212
   69SAPC  C216 5900   3.304   6.467   3.317  0.8583 -0.1423  0.2515
   69SAPC  H16R 5901   3.298   6.356   3.317 -2.7366 -0.0147  0.2856
   69SAPC  H16S 5902   3.231   6.512   3.389  2.3885 -0.6519  2.1597
   69SAPC  C217 5903   3.436   6.504   3.377  0.0015  0.2921  0.0216
   69SAPC  H17R 5904   3.434   6.502   3.488  1.7839  2.4140  0.1339
   69SAPC  H17S 5905   3.474   6.607   3.358  1.6645 -0.0604  1.3107
   69SAPC  C218 5906   3.544   6.418   3.329  0.1649  0.1465  0.4283
   69SAPC  H18R 5907   3.556   6.443   3.222 -0.1891 -0.6372  0.2016
   69SAPC  H18S 5908   3.517   6.312   3.350  1.5049 -0.5387 -1.1971
   69SAPC  C219 5909   3.685   6.439   3.391  1.3267  0.8560 -0.3475
   69SAPC  H19R 5910   3.686   6.401   3.496 -1.8019 -0.8203 -0.8674
   69SAPC  H19S 5911   3.704   6.548   3.382  0.7723  0.9990  0.1617
   69SAPC  C220 5912   3.788   6.363   3.310 -0.1306  0.2001  0.4213
   69SAPC  H20R 5913   3.795   6.414   3.211 -3.3362  1.8892  1.0255
   69SAPC  H20S 5914   3.748   6.261   3.290 -0.1861 -0.0748  1.9013
   69SAPC  H20T 5915   3.890   6.368   3.353  0.0556  0.6142 -0.0625
   69SAPC   C33 5916   4.383   6.991   2.697  0.3704  0.4747 -0.6728
   69SAPC   H3X 5917   4.286   6.980   2.749  1.4144 -1.3293  0.9651
   69SAPC   H3Y 5918   4.408   7.099   2.687 -0.2538  0.4798 -2.3659
   69SAPC   C34 5919   4.495   6.934   2.771 -0.2906  0.0470 -0.3507
   69SAPC   H4X 5920   4.588   6.945   2.712  0.8958  0.6212  1.5812
   69SAPC   H4Y 5921   4.489   6.824   2.791 -0.5041 -0.0583 -0.9965
   69SAPC   C35 5922   4.507   7.014   2.906  0.5109 -0.8451 -0.1666
   69SAPC   H5X 5923   4.508   7.123   2.884  3.0950 -0.2148  2.6863
   69SAPC   H5Y 5924   4.604   6.998   2.958  0.1819  0.1009  0.7536
   69SAPC   C36 5925   4.394   6.982   3.008 -0.0523  0.3804 -0.5122
   69SAPC   H6X 5926   4.419   6.875   3.022  2.5749  0.9782 -0.5063
   69SAPC   H6Y 5927   4.288   6.992   2.974  0.8483 -0.8146 -3.8297
   69SAPC   C37 5928   4.423   7.050   3.143 -0.0275  0.0911 -0.0575
   69SAPC   H7X 5929   4.409   7.160   3.137  3.6260  0.7560  1.8493
   69SAPC   H7Y 5930   4.533   7.038   3.148 -0.2687 -2.9787 -1.2934
   69SAPC   C38 5931   4.351   6.993   3.269 -0.1591 -0.0516  0.9084
   69SAPC   H8X 5932   4.357   6.882   3.274 -2.1289 -0.1301  2.5373
   69SAPC   H8Y 5933   4.248   7.028   3.248 -0.5073 -0.9856  1.0250
   69SAPC   C39 5934   4.389   7.050   3.405  0.4865  0.2829 -0.3376
   69SAPC   H9X 5935   4.492   7.017   3.432  0.2644 -1.5562 -1.6217
   69SAPC   H9Y 5936   4.320   7.008   3.481  0.5591 -0.5814 -0.7413
   69SAPC  C310 5937   4.401   7.206   3.413 -0.4614 -0.9705 -0.2180
   69SAPC  H10X 5938   4.300   7.247   3.390 -0.1184  0.4191  0.7089
   69SAPC  H10Y 5939   4.471   7.240   3.333 -1.0106  3.2484  0.9949
   69SAPC  C311 5940   4.435   7.261   3.549  0.2234 -0.0332  0.0156
   69SAPC  H11X 5941   4.432   7.372   3.537  0.1871 -0.2926 -2.7215
   69SAPC  H11Y 5942   4.534   7.226   3.584 -0.1992 -1.6071 -0.3586
   69SAPC  C312 5943   4.328   7.220   3.649 -0.0898  0.0029  0.2817
   69SAPC  H12X 5944   4.333   7.110   3.664 -3.0597 -0.5660 -2.4092
   69SAPC  H12Y 5945   4.227   7.248   3.613 -1.1077  0.8483  3.6696
   69SAPC  C313 5946   4.360   7.287   3.785 -0.1707  0.4594  0.2142
   69SAPC  H13X 5947   4.293   7.373   3.808  1.9698  1.8709  1.3138
   69SAPC  H13Y 5948   4.464   7.325   3.789  0.5672 -1.0985 -2.7761
   69SAPC  C314 5949   4.335   7.193   3.906 -0.2616  0.3383 -0.3187
   69SAPC  H14X 5950   4.379   7.239   3.998  0.2071 -1.8397  0.5850
   69SAPC  H14Y 5951   4.408   7.111   3.888  0.2694  0.0822  2.6443
   69SAPC  C315 5952   4.189   7.166   3.940 -0.7254  0.4123 -0.8402
   69SAPC  H15X 5953   4.146   7.110   3.854 -0.2847 -2.5444  0.7763
   69SAPC  H15Y 5954   4.136   7.263   3.952 -0.2146  0.2878  3.2482
   69SAPC  C316 5955   4.172   7.083   4.067  0.4736 -0.2880 -0.3912
   69SAPC  H16X 5956   4.198   7.139   4.160  1.1743 -1.1502 -0.0650
   69SAPC  H16Y 5957   4.245   7.000   4.062  0.3353 -0.5967  1.8631
   69SAPC  C317 5958   4.024   7.027   4.095 -0.2250  0.5000  0.3256
   69SAPC  H17X 5959   3.956   7.113   4.115 -1.8245 -0.0789 -2.4004
   69SAPC  H17Y 5960   4.025   6.967   4.189 -1.7244 -1.3056 -0.7686
   69SAPC  C318 5961   3.984   6.945   3.970  0.0448  0.6141  0.1289
   69SAPC  H18X 5962   4.065   6.874   3.942  0.6759  1.0032  0.9338
   69SAPC  H18Y 5963   3.963   7.015   3.887 -0.0913 -0.5410 -0.8218
   69SAPC  H18Z 5964   3.889   6.891   3.988 -1.2928  2.3153 -1.5672
   70SAPC     N 5965   6.695   4.044   1.872  0.0955 -0.0282 -0.3595
   70SAPC   C12 5966   6.636   3.983   2.000 -0.7612  0.7502 -0.2625
   70SAPC  H12A 5967   6.650   3.876   1.995  2.1687  1.0417  0.4629
   70SAPC  H12B 5968   6.530   4.002   2.007 -0.7553  0.6455  0.1547
   70SAPC   C13 5969   6.680   4.195   1.864 -0.1855  0.8864  0.1030
   70SAPC  H13A 5970   6.719   4.237   1.955 -1.1301 -0.9491  1.3820
   70SAPC  H13B 5971   6.735   4.235   1.779 -0.4776  2.2352  0.5459
   70SAPC  H13C 5972   6.576   4.223   1.854  0.1389  2.2325  0.3509
   70SAPC   C14 5973   6.829   4.005   1.842 -0.0278  0.3879  0.3948
   70SAPC  H14A 5974   6.848   4.068   1.756 -2.9581 -0.4526 -0.9178
   70SAPC  H14B 5975   6.882   4.037   1.931  0.7440 -0.3778  0.2208
   70SAPC  H14C 5976   6.853   3.903   1.817  0.4313  0.8397 -1.1006
   70SAPC   C15 5977   6.613   3.993   1.751 -0.7275  0.2087 -0.8226
   70SAPC  H15A 5978   6.650   3.891   1.746 -0.3306  0.1809  2.2350
   70SAPC  H15B 5979   6.507   4.003   1.768 -0.5827 -0.0865  0.2431
   70SAPC  H15C 5980   6.649   4.042   1.662 -3.4629  0.4844 -1.8286
   70SAPC   C11 5981   6.698   4.036   2.129 -0.7052 -0.1683 -0.1080
   70SAPC  H11A 5982   6.676   3.967   2.214  0.0533  0.6949  0.7971
   70SAPC  H11B 5983   6.652   4.133   2.155  3.1438  1.9051 -0.6644
   70SAPC     P 5984   6.915   4.179   2.146 -0.1087  0.4077 -0.0446
   70SAPC   O13 5985   7.045   4.165   2.080 -0.5684  0.6049  0.0530
   70SAPC   O14 5986   6.831   4.293   2.099  0.0255 -0.3490 -0.2441
   70SAPC   O12 5987   6.843   4.042   2.122  0.4376  0.2272 -0.4478
   70SAPC   O11 5988   6.920   4.190   2.304  0.5540  0.4302  0.2282
   70SAPC    C1 5989   6.985   4.098   2.386 -0.2923 -0.2572 -0.5551
   70SAPC    HA 5990   7.079   4.055   2.345 -1.1748 -0.5963 -2.3059
   70SAPC    HB 5991   7.024   4.154   2.473 -0.5373  0.7412 -1.0826
   70SAPC    C2 5992   6.897   3.982   2.433  0.6626 -0.3423 -0.5459
   70SAPC    HS 5993   6.829   3.947   2.352  0.2692  0.5336 -0.5998
   70SAPC   O21 5994   6.810   4.024   2.543  0.5599 -0.1408  0.3028
   70SAPC   C21 5995   6.719   3.934   2.568  0.6194 -0.1175  1.1289
   70SAPC   O22 5996   6.695   3.835   2.510  0.0603  0.3259  0.7259
   70SAPC   C22 5997   6.641   3.970   2.694 -0.2171 -0.6015  0.0372
   70SAPC   H2R 5998   6.711   3.946   2.777  1.2618  0.1861 -0.9527
   70SAPC   H2S 5999   6.621   4.078   2.706 -1.4099 -0.6576 -1.2626
   70SAPC    C3 6000   6.989   3.871   2.480  0.3706  0.5365 -0.0684
   70SAPC    HX 6001   7.047   3.848   2.388  0.4157 -1.4431  0.4135
   70SAPC    HY 6002   6.934   3.777   2.505  0.9529  0.0102 -0.7427
   70SAPC   O31 6003   7.071   3.911   2.586  0.2501  0.0304  0.0937
   70SAPC   C31 6004   7.167   3.834   2.608 -0.9338 -0.6344 -0.1929
   70SAPC   O32 6005   7.183   3.721   2.562 -0.7099  0.6869  0.0581
   70SAPC   C32 6006   7.276   3.902   2.692 -0.4549  0.5867 -0.6339
   70SAPC   H2X 6007   7.226   3.986   2.744  1.2733  0.6894  0.9080
   70SAPC   H2Y 6008   7.359   3.936   2.626  0.4832  0.5179  0.4966
   70SAPC   C23 6009   6.507   3.898   2.709 -0.4535  0.3603 -0.3122
   70SAPC   H3R 6010   6.511   3.795   2.668 -2.2330  0.1847 -0.0512
   70SAPC   H3S 6011   6.427   3.949   2.652  0.4621  0.5731 -1.4340
   70SAPC   C24 6012   6.475   3.885   2.855  0.5095  0.1925 -0.2034
   70SAPC   H4R 6013   6.543   3.812   2.903 -1.4968 -0.9975  0.8990
   70SAPC   H4S 6014   6.370   3.850   2.862  0.4370  0.5578  0.6045
   70SAPC   C25 6015   6.472   4.023   2.922 -0.6521  0.0108 -0.2029
   70SAPC   H5R 6016   6.433   4.097   2.851  0.1544 -0.1060 -0.7693
   70SAPC   C26 6017   6.521   4.060   3.039  0.4402  0.6055  0.1526
   70SAPC   H6R 6018   6.501   4.160   3.080  1.5180  1.4555 -1.3497
   70SAPC   C27 6019   6.593   3.958   3.135 -0.7184 -0.8473 -0.0757
   70SAPC   H7R 6020   6.699   3.990   3.140 -0.9969  0.4931 -2.0907
   70SAPC   H7S 6021   6.591   3.852   3.101 -1.9637 -0.3621 -1.5852
   70SAPC   C28 6022   6.511   3.978   3.256 -0.4721  0.3848  0.5817
   70SAPC   H8R 6023   6.404   3.990   3.237 -0.7164 -0.6745  1.2983
   70SAPC   C29 6024   6.553   3.979   3.384  0.2440  0.3525 -0.0554
   70SAPC   H9R 6025   6.484   4.009   3.463 -0.7486  2.3214 -1.6344
   70SAPC  C210 6026   6.692   3.964   3.433 -0.2603  1.0188 -0.1180
   70SAPC  H10R 6027   6.744   3.888   3.370  1.5606  0.0375  2.4496
   70SAPC  H10S 6028   6.684   3.907   3.528 -1.2801 -1.4691 -1.6724
   70SAPC  C211 6029   6.756   4.099   3.444 -0.1018  0.6804  0.1510
   70SAPC  H11R 6030   6.742   4.173   3.364  0.8070  1.3931  0.6285
   70SAPC  C212 6031   6.812   4.148   3.557 -0.0441  0.6593  0.4014
   70SAPC  H12R 6032   6.848   4.252   3.557  0.6733  0.4475 -2.1649
   70SAPC  C213 6033   6.827   4.076   3.697 -0.3865 -0.3625  0.3130
   70SAPC  H13R 6034   6.882   3.980   3.682  0.7004  0.3157 -0.0768
   70SAPC  H13S 6035   6.731   4.036   3.736 -0.7103  1.6346  1.6055
   70SAPC  C214 6036   6.901   4.153   3.798  0.2695 -0.3011  0.7381
   70SAPC  H14R 6037   6.841   4.200   3.877  0.0261  0.0185  0.3669
   70SAPC  C215 6038   7.035   4.164   3.814 -0.4147  0.9984  0.9466
   70SAPC  H15R 6039   7.068   4.239   3.888 -0.4584  2.7743 -0.7864
   70SAPC  C216 6040   7.141   4.090   3.732 -0.2805 -0.2051 -0.3900
   70SAPC  H16R 6041   7.193   4.169   3.674 -1.8545  1.7847  0.8503
   70SAPC  H16S 6042   7.112   4.000   3.674 -0.8242 -2.4085  3.1399
   70SAPC  C217 6043   7.253   4.015   3.820 -0.1749 -0.0127  0.0193
   70SAPC  H17R 6044   7.306   3.948   3.749 -0.4158  0.0899 -0.2561
   70SAPC  H17S 6045   7.202   3.943   3.887  0.9942 -0.8076  0.0831
   70SAPC  C218 6046   7.356   4.105   3.897  0.9913  0.2827  0.7236
   70SAPC  H18R 6047   7.301   4.145   3.984  0.1097  2.5237 -0.8266
   70SAPC  H18S 6048   7.384   4.186   3.827  0.5892  1.1316  1.5420
   70SAPC  C219 6049   7.474   4.028   3.951 -0.7411  0.5023  0.3007
   70SAPC  H19R 6050   7.522   3.960   3.877 -1.3885  2.4182 -1.9331
   70SAPC  H19S 6051   7.432   3.966   4.034 -2.5188  2.1023  0.6455
   70SAPC  C220 6052   7.589   4.114   4.018 -0.2347  0.1667  0.0552
   70SAPC  H20R 6053   7.680   4.051   4.028 -2.0555 -2.1527  2.6531
   70SAPC  H20S 6054   7.561   4.150   4.119  0.0039  0.8278 -0.1154
   70SAPC  H20T 6055   7.603   4.203   3.953  0.4661  0.4880  0.6347
   70SAPC   C33 6056   7.342   3.798   2.791 -0.4001 -0.1161  0.5402
   70SAPC   H3X 6057   7.395   3.722   2.730  2.0057  1.2557  0.8162
   70SAPC   H3Y 6058   7.264   3.744   2.849  0.0723 -0.0399  1.2587
   70SAPC   C34 6059   7.449   3.857   2.888  0.1896  0.1955 -0.7797
   70SAPC   H4X 6060   7.531   3.893   2.822  1.1856 -0.0545  0.2858
   70SAPC   H4Y 6061   7.478   3.768   2.949  1.1424  1.6928  1.0169
   70SAPC   C35 6062   7.400   3.975   2.973 -0.7295 -0.4592  0.6373
   70SAPC   H5X 6063   7.317   3.947   3.041  0.7290 -1.5124  2.0000
   70SAPC   H5Y 6064   7.358   4.043   2.895  0.4199 -1.8817 -1.2782
   70SAPC   C36 6065   7.512   4.052   3.033  0.2700  0.3381  0.0126
   70SAPC   H6X 6066   7.598   4.074   2.966  0.9017 -0.4112  0.5651
   70SAPC   H6Y 6067   7.555   3.986   3.111 -1.7838 -1.7675 -0.5837
   70SAPC   C37 6068   7.465   4.186   3.089  0.1157  0.4329 -0.4418
   70SAPC   H7X 6069   7.545   4.234   3.149  1.0808 -2.5526  0.7145
   70SAPC   H7Y 6070   7.446   4.255   3.004 -2.3213 -1.3607 -1.4281
   70SAPC   C38 6071   7.333   4.177   3.173  0.3474  0.2464 -0.6702
   70SAPC   H8X 6072   7.351   4.122   3.268  1.0441  0.7953 -0.4820
   70SAPC   H8Y 6073   7.255   4.125   3.113 -0.4504  0.9314 -0.2497
   70SAPC   C39 6074   7.276   4.309   3.213  0.0155  0.3036 -0.4058
   70SAPC   H9X 6075   7.242   4.362   3.121 -2.4064  1.2759  0.9847
   70SAPC   H9Y 6076   7.367   4.363   3.246  0.7916 -0.7999 -0.7094
   70SAPC  C310 6077   7.163   4.309   3.314  0.2780  0.5609 -0.8417
   70SAPC  H10X 6078   7.209   4.294   3.414 -0.6539 -1.1720 -0.6635
   70SAPC  H10Y 6079   7.100   4.225   3.279 -0.2494 -0.3018  2.0528
   70SAPC  C311 6080   7.085   4.439   3.307  0.1871 -0.0389  0.6821
   70SAPC  H11X 6081   7.037   4.454   3.208  0.6679 -0.1033  0.4366
   70SAPC  H11Y 6082   7.155   4.524   3.325 -0.0736 -0.0686  1.8532
   70SAPC  C312 6083   6.987   4.455   3.419 -0.2388 -0.3117 -0.8118
   70SAPC  H12X 6084   7.036   4.413   3.510 -0.0843  0.3577 -0.5812
   70SAPC  H12Y 6085   6.901   4.388   3.397 -0.3856 -0.9429  1.5380
   70SAPC  C313 6086   6.940   4.603   3.430  0.3721  0.2252  0.5991
   70SAPC  H13X 6087   6.871   4.635   3.349 -0.2767 -1.1019  0.6069
   70SAPC  H13Y 6088   7.028   4.670   3.423 -0.9090  1.8592 -0.4613
   70SAPC  C314 6089   6.883   4.641   3.568  0.7044 -0.0610 -0.2658
   70SAPC  H14X 6090   6.871   4.751   3.579 -0.4803 -0.1558 -0.5835
   70SAPC  H14Y 6091   6.969   4.636   3.639 -1.0348  2.1971  2.1165
   70SAPC  C315 6092   6.774   4.554   3.623  0.0233  0.0369 -0.0654
   70SAPC  H15X 6093   6.801   4.447   3.635 -0.8319  0.0189  1.9355
   70SAPC  H15Y 6094   6.689   4.542   3.553 -0.4781 -2.8951  1.0038
   70SAPC  C316 6095   6.704   4.608   3.750  0.4271  0.4221 -0.1107
   70SAPC  H16X 6096   6.659   4.703   3.715  0.2247  0.3478 -0.0548
   70SAPC  H16Y 6097   6.782   4.638   3.824 -0.7534 -0.3075  1.4595
   70SAPC  C317 6098   6.605   4.504   3.804  0.0108 -0.1339 -0.0213
   70SAPC  H17X 6099   6.649   4.403   3.820  0.9866  0.1872 -0.6740
   70SAPC  H17Y 6100   6.532   4.488   3.721  0.2013  0.6765 -0.3535
   70SAPC  C318 6101   6.523   4.551   3.933 -0.5517 -0.3976 -0.1548
   70SAPC  H18X 6102   6.462   4.637   3.898 -1.7805 -0.8822  0.7846
   70SAPC  H18Y 6103   6.597   4.572   4.013 -2.5284 -0.9967  1.8761
   70SAPC  H18Z 6104   6.456   4.466   3.959 -3.4811  2.0748  0.6570
   71SAPC     N 6105   5.570   0.866   2.520  0.2603 -0.0635 -0.4609
   71SAPC   C12 6106   5.688   0.784   2.577  0.4424  0.0196 -0.6154
   71SAPC  H12A 6107   5.684   0.677   2.565  1.1152 -0.1539  0.6741
   71SAPC  H12B 6108   5.676   0.795   2.684 -1.9370 -1.5043 -0.6962
   71SAPC   C13 6109   5.593   0.867   2.370 -0.4172 -0.5012 -0.5956
   71SAPC  H13A 6110   5.579   0.766   2.332 -0.0544 -1.1421  0.9249
   71SAPC  H13B 6111   5.512   0.924   2.327 -0.2524  0.8312  0.8116
   71SAPC  H13C 6112   5.693   0.895   2.341 -0.6889 -0.3826 -1.4233
   71SAPC   C14 6113   5.440   0.807   2.550 -0.0840  0.6218  0.1875
   71SAPC  H14A 6114   5.437   0.701   2.528  0.0768  0.2789  1.7726
   71SAPC  H14B 6115   5.412   0.817   2.654  0.6399 -1.6568  0.6137
   71SAPC  H14C 6116   5.364   0.853   2.488  0.6735  0.3118 -0.9812
   71SAPC   C15 6117   5.575   1.011   2.554 -0.2098  0.1162  0.0642
   71SAPC  H15A 6118   5.551   1.021   2.659 -0.4620  2.7985 -0.2068
   71SAPC  H15B 6119   5.669   1.052   2.520  0.1323 -0.9506 -0.2921
   71SAPC  H15C 6120   5.503   1.070   2.499  0.3168 -0.5449 -1.3420
   71SAPC   C11 6121   5.831   0.831   2.551 -0.3791 -0.0673  0.3346
   71SAPC  H11A 6122   5.899   0.783   2.624 -1.4798  0.3559  1.6585
   71SAPC  H11B 6123   5.827   0.940   2.572 -0.9734  0.5857 -2.8714
   71SAPC     P 6124   5.892   0.675   2.353  0.0781  0.0925  0.2900
   71SAPC   O13 6125   5.784   0.640   2.261  0.0263 -0.2580 -0.3612
   71SAPC   O14 6126   6.031   0.679   2.297 -0.0090  0.1256 -0.3066
   71SAPC   O12 6127   5.864   0.815   2.412 -0.0702  0.0861 -0.3725
   71SAPC   O11 6128   5.887   0.579   2.482  0.2725 -0.0506 -0.3260
   71SAPC    C1 6129   5.848   0.440   2.473 -0.1570 -0.6176 -0.0335
   71SAPC    HA 6130   5.766   0.431   2.399  0.0700  0.0179 -0.3577
   71SAPC    HB 6131   5.921   0.367   2.433 -1.4563 -1.6292 -0.6184
   71SAPC    C2 6132   5.785   0.390   2.603  0.5226 -0.0388  0.0561
   71SAPC    HS 6133   5.754   0.284   2.588  0.3834 -0.0274  0.2554
   71SAPC   O21 6134   5.668   0.479   2.627 -0.9690  0.1360 -0.0955
   71SAPC   C21 6135   5.584   0.416   2.710  0.1626 -0.5443  0.0693
   71SAPC   O22 6136   5.606   0.308   2.761 -0.0729 -0.1811  0.0774
   71SAPC   C22 6137   5.475   0.514   2.744 -0.2371 -0.0633  0.0464
   71SAPC   H2R 6138   5.520   0.608   2.782  0.5509 -0.9760  1.4015
   71SAPC   H2S 6139   5.411   0.527   2.654  1.1410  1.8320 -0.6768
   71SAPC    C3 6140   5.878   0.392   2.726 -0.7053  0.2230 -0.4239
   71SAPC    HX 6141   5.951   0.316   2.690 -0.7097 -0.0303  0.0833
   71SAPC    HY 6142   5.831   0.361   2.822 -0.0820 -1.5806 -0.6798
   71SAPC   O31 6143   5.938   0.524   2.733 -0.6078 -0.1910  0.3948
   71SAPC   C31 6144   6.076   0.522   2.724 -0.4159  0.4404  0.1380
   71SAPC   O32 6145   6.141   0.418   2.710 -0.3637 -0.0422  0.6137
   71SAPC   C32 6146   6.138   0.656   2.764  0.2251  0.2303  0.3415
   71SAPC   H2X 6147   6.062   0.736   2.754 -0.9006 -0.7891  0.5952
   71SAPC   H2Y 6148   6.217   0.677   2.689 -0.5039 -0.6673 -0.6817
   71SAPC   C23 6149   5.390   0.450   2.858 -0.2430 -0.2158 -0.3753
   71SAPC   H3R 6150   5.442   0.412   2.948  3.0099  2.5464 -0.9911
   71SAPC   H3S 6151   5.334   0.369   2.807  2.1728 -2.0168 -0.2303
   71SAPC   C24 6152   5.276   0.547   2.896  0.5486  0.3085 -0.1235
   71SAPC   H4R 6153   5.332   0.627   2.949  0.7790 -0.0291  0.1440
   71SAPC   H4S 6154   5.214   0.502   2.977  0.2824 -0.0867 -0.5455
   71SAPC   C25 6155   5.196   0.601   2.780 -0.4801  0.0607 -0.0275
   71SAPC   H5R 6156   5.183   0.539   2.690 -3.1051  0.2049  0.2096
   71SAPC   C26 6157   5.184   0.731   2.760  0.1718  0.4018  0.3165
   71SAPC   H6R 6158   5.143   0.759   2.662 -2.4507  2.0184  1.8144
   71SAPC   C27 6159   5.233   0.848   2.849  0.4782 -0.0752  0.7989
   71SAPC   H7R 6160   5.221   0.946   2.799  0.4264  1.2590  3.3428
   71SAPC   H7S 6161   5.341   0.839   2.873  0.8400  1.8525  0.0071
   71SAPC   C28 6162   5.154   0.852   2.974 -0.7294  0.0505 -0.7191
   71SAPC   H8R 6163   5.114   0.758   3.014  2.3958 -1.5740 -1.1896
   71SAPC   C29 6164   5.152   0.957   3.061 -0.0853 -0.0616  0.2719
   71SAPC   H9R 6165   5.077   0.948   3.141  0.4653  1.5221  1.0034
   71SAPC  C210 6166   5.235   1.082   3.052 -0.3165 -0.2735  0.3774
   71SAPC  H10R 6167   5.169   1.167   3.024 -0.7578 -0.3633  1.1456
   71SAPC  H10S 6168   5.301   1.078   2.963  0.6431 -1.4598  1.1166
   71SAPC  C211 6169   5.322   1.111   3.171 -0.2175 -0.2270 -0.0215
   71SAPC  H11R 6170   5.338   1.027   3.239 -1.3480  1.7659  2.7763
   71SAPC  C212 6171   5.374   1.225   3.214 -0.0011  1.2334 -0.5989
   71SAPC  H12R 6172   5.441   1.217   3.301  0.5835  1.2151 -1.0478
   71SAPC  C213 6173   5.348   1.361   3.154 -0.0714 -0.1806 -0.6182
   71SAPC  H13R 6174   5.270   1.420   3.208  2.7006  0.7168  2.5767
   71SAPC  H13S 6175   5.309   1.352   3.050  0.6972 -3.0063 -0.6845
   71SAPC  C214 6176   5.478   1.438   3.158  0.3057 -0.3025  0.5020
   71SAPC  H14R 6177   5.557   1.401   3.091  0.0742  3.3184 -1.8772
   71SAPC  C215 6178   5.498   1.551   3.228 -0.5112  0.3006  0.2280
   71SAPC  H15R 6179   5.593   1.604   3.215  0.3981 -1.0086  1.4506
   71SAPC  C216 6180   5.408   1.630   3.322  0.4579 -0.0748  0.7916
   71SAPC  H16R 6181   5.307   1.587   3.302  0.0815  1.5197 -0.9479
   71SAPC  H16S 6182   5.391   1.736   3.294 -1.0572  0.1567  2.4900
   71SAPC  C217 6183   5.465   1.626   3.461 -0.1934 -0.9583  0.5057
   71SAPC  H17R 6184   5.568   1.668   3.465 -0.1941 -1.0312  1.4040
   71SAPC  H17S 6185   5.469   1.526   3.508  1.5067 -1.3475 -0.4266
   71SAPC  C218 6186   5.376   1.713   3.556 -0.9485  0.3651  0.3171
   71SAPC  H18R 6187   5.271   1.697   3.523  0.1813  0.0718 -3.4633
   71SAPC  H18S 6188   5.393   1.822   3.540  0.1182  0.1472 -0.1461
   71SAPC  C219 6189   5.396   1.695   3.709 -0.2827 -0.3863 -0.1316
   71SAPC  H19R 6190   5.499   1.725   3.740  0.3116 -4.2882  1.8978
   71SAPC  H19S 6191   5.378   1.589   3.736 -0.6462 -0.3709 -0.3178
   71SAPC  C220 6192   5.298   1.786   3.793 -0.5527 -0.3642 -0.1903
   71SAPC  H20R 6193   5.333   1.787   3.898 -0.9824  1.4796 -0.0489
   71SAPC  H20S 6194   5.198   1.741   3.778 -2.1800  2.7285  0.9448
   71SAPC  H20T 6195   5.302   1.891   3.757  0.0142 -0.6904 -1.1142
   71SAPC   C33 6196   6.202   0.652   2.902 -0.7452 -0.0408 -0.0082
   71SAPC   H3X 6197   6.269   0.738   2.923  0.2275 -0.3457 -1.8005
   71SAPC   H3Y 6198   6.264   0.562   2.924 -0.4364  0.9378  3.4611
   71SAPC   C34 6199   6.089   0.667   3.004 -0.1839  0.4955 -0.0745
   71SAPC   H4X 6200   6.013   0.589   2.983  2.0447 -2.2377  1.6955
   71SAPC   H4Y 6201   6.035   0.763   2.986 -0.1066  0.6988  0.7681
   71SAPC   C35 6202   6.129   0.654   3.157 -0.0749 -0.2164  0.0561
   71SAPC   H5X 6203   6.237   0.678   3.172 -0.1897 -0.8528  2.0092
   71SAPC   H5Y 6204   6.124   0.549   3.191 -2.2146  0.5631  2.2437
   71SAPC   C36 6205   6.045   0.743   3.248 -0.5330  0.4869 -0.4754
   71SAPC   H6X 6206   5.939   0.734   3.217 -1.2757  1.0002  1.8463
   71SAPC   H6Y 6207   6.076   0.849   3.229 -0.3484  0.1032 -2.4665
   71SAPC   C37 6208   6.060   0.718   3.393  0.3192  0.3149  0.0551
   71SAPC   H7X 6209   6.155   0.760   3.432 -0.9053  0.1146  3.4181
   71SAPC   H7Y 6210   6.054   0.610   3.417  0.6192 -0.0234 -1.3795
   71SAPC   C38 6211   5.947   0.783   3.479 -0.2686 -0.0588  0.5947
   71SAPC   H8X 6212   5.857   0.718   3.481 -0.5237  0.1588 -1.9685
   71SAPC   H8Y 6213   5.910   0.881   3.442 -1.7224 -0.5238  0.7727
   71SAPC   C39 6214   5.998   0.794   3.623  0.6273  0.3999  0.8823
   71SAPC   H9X 6215   6.075   0.872   3.634 -0.6380  1.6093  1.2571
   71SAPC   H9Y 6216   6.046   0.695   3.639 -0.3537 -0.4768 -1.3715
   71SAPC  C310 6217   5.883   0.812   3.732  0.1075 -0.6986 -0.0453
   71SAPC  H10X 6218   5.822   0.719   3.727 -1.4991  0.4818 -4.7933
   71SAPC  H10Y 6219   5.825   0.899   3.696  0.3579 -0.0587  1.0675
   71SAPC  C311 6220   5.936   0.839   3.871 -0.3868  0.5303  0.6467
   71SAPC  H11X 6221   6.001   0.928   3.874  0.4761 -0.1316  2.2945
   71SAPC  H11Y 6222   5.992   0.752   3.911 -0.1518  0.7368  0.7646
   71SAPC  C312 6223   5.820   0.869   3.970  0.1022  0.8711  0.2697
   71SAPC  H12X 6224   5.724   0.815   3.956 -0.0564  1.2518 -0.0976
   71SAPC  H12Y 6225   5.794   0.975   3.948  0.0216  0.6351 -0.7733
   71SAPC  C313 6226   5.855   0.828   4.116 -0.2783  0.4683  0.3016
   71SAPC  H13X 6227   5.965   0.836   4.128 -0.0548  0.6993 -1.6813
   71SAPC  H13Y 6228   5.829   0.721   4.126 -0.6208  0.4964 -0.3018
   71SAPC  C314 6229   5.780   0.913   4.222 -0.0955 -0.6163  0.1004
   71SAPC  H14X 6230   5.680   0.864   4.226 -1.0180  1.2990  0.8959
   71SAPC  H14Y 6231   5.761   1.018   4.191 -3.4915 -0.7342  1.5720
   71SAPC  C315 6232   5.855   0.910   4.358  0.0790 -0.1433  0.3317
   71SAPC  H15X 6233   5.946   0.973   4.356  0.1887 -0.2962  0.5175
   71SAPC  H15Y 6234   5.885   0.804   4.367 -1.5316 -0.6542 -0.1246
   71SAPC  C316 6235   5.775   0.964   4.473  1.0782  0.2818 -0.1526
   71SAPC  H16X 6236   5.674   0.920   4.455  1.9980 -0.9665 -2.4551
   71SAPC  H16Y 6237   5.774   1.074   4.460 -4.2354  0.2978 -0.9347
   71SAPC  C317 6238   5.813   0.927   4.616  0.3087  0.8177 -0.5226
   71SAPC  H17X 6239   5.859   0.826   4.611 -2.3693 -0.4944  0.8095
   71SAPC  H17Y 6240   5.723   0.901   4.675 -0.4945  1.1077 -1.5985
   71SAPC  C318 6241   5.908   1.018   4.682  0.0169  0.1194  0.1626
   71SAPC  H18X 6242   6.013   1.016   4.645 -0.7705 -1.6138 -2.1175
   71SAPC  H18Y 6243   5.910   1.015   4.793  1.3821  1.5368  0.2004
   71SAPC  H18Z 6244   5.891   1.127   4.674 -2.3995 -0.2515 -0.0727
   72SAPC     N 6245   5.338   0.159   2.509 -0.4123 -0.4216 -0.0712
   72SAPC   C12 6246   5.429   0.242   2.420  0.1011 -0.1793  0.4957
   72SAPC  H12A 6247   5.473   0.327   2.471 -0.8905  0.4628  0.3137
   72SAPC  H12B 6248   5.368   0.290   2.344  0.4524  1.2728  1.1024
   72SAPC   C13 6249   5.266   0.049   2.422  0.4497  0.2897  0.4904
   72SAPC  H13A 6250   5.340  -0.016   2.376 -0.2214 -1.4523  1.7911
   72SAPC  H13B 6251   5.193  -0.008   2.479  1.1211 -0.3769  0.6946
   72SAPC  H13C 6252   5.213   0.096   2.341  2.3244  1.2816 -0.1945
   72SAPC   C14 6253   5.412   0.089   2.624  0.5012 -0.5092 -0.6477
   72SAPC  H14A 6254   5.475   0.012   2.581 -0.1750 -0.7768 -1.1742
   72SAPC  H14B 6255   5.480   0.151   2.680  0.4973 -0.5623 -0.5855
   72SAPC  H14C 6256   5.336   0.058   2.694 -1.6303  3.3281 -1.1120
   72SAPC   C15 6257   5.234   0.252   2.572  0.7021 -0.2758  0.6144
   72SAPC  H15A 6258   5.192   0.313   2.494  0.4368 -0.9867  0.2010
   72SAPC  H15B 6259   5.154   0.193   2.614  0.4153  0.2820  0.8581
   72SAPC  H15C 6260   5.267   0.320   2.650  0.5125  0.6229 -0.0801
   72SAPC   C11 6261   5.549   0.161   2.353 -0.6219 -0.2826  0.5485
   72SAPC  H11A 6262   5.598   0.227   2.278 -1.9981 -2.4125 -2.3421
   72SAPC  H11B 6263   5.507   0.074   2.297 -1.2484  0.5805 -0.3439
   72SAPC     P 6264   5.751   0.016   2.412  0.2160 -0.2829 -0.2731
   72SAPC   O13 6265   5.682  -0.112   2.426 -0.0527 -0.1429 -0.1857
   72SAPC   O14 6266   5.803   0.056   2.277 -0.0330 -0.1456  0.4576
   72SAPC   O12 6267   5.644   0.117   2.454 -0.0178  0.5829  0.2503
   72SAPC   O11 6268   5.858   0.041   2.520  0.2364 -0.5787 -0.1640
   72SAPC    C1 6269   5.828   0.034   2.658  0.1808  0.2437  0.0006
   72SAPC    HA 6270   5.875   0.110   2.725 -0.1594  0.7935 -0.3772
   72SAPC    HB 6271   5.720   0.047   2.683  0.3155  1.4984 -0.0215
   72SAPC    C2 6272   5.866  -0.109   2.721  0.1312 -0.6864 -0.1074
   72SAPC    HS 6273   5.789  -0.178   2.679 -2.5099  2.1238 -0.0741
   72SAPC   O21 6274   5.863  -0.097   2.864  0.1358  1.2779  0.0521
   72SAPC   C21 6275   5.826  -0.211   2.918  0.5517 -0.2274 -0.4326
   72SAPC   O22 6276   5.789  -0.311   2.865  0.4061 -0.0023  0.0215
   72SAPC   C22 6277   5.824  -0.189   3.064 -0.0031  0.1453 -0.2212
   72SAPC   H2R 6278   5.885  -0.099   3.087 -1.1026  1.1475 -1.1434
   72SAPC   H2S 6279   5.719  -0.174   3.098  0.4759  0.3214  1.2072
   72SAPC    C3 6280   6.000  -0.161   2.683 -0.7059  0.3523  0.8355
   72SAPC    HX 6281   6.009  -0.139   2.574  0.1373  0.1630  0.8679
   72SAPC    HY 6282   6.011  -0.271   2.694 -0.5614  0.6113  3.6965
   72SAPC   O31 6283   6.110  -0.084   2.738  0.1315 -0.4921  0.1200
   72SAPC   C31 6284   6.165  -0.120   2.849 -0.3282  0.8791 -0.2031
   72SAPC   O32 6285   6.133  -0.217   2.918 -0.0527  0.5921  0.4930
   72SAPC   C32 6286   6.286  -0.037   2.872 -0.5787 -0.1318 -0.5316
   72SAPC   H2X 6287   6.294   0.058   2.815  0.4125 -0.1657 -0.4534
   72SAPC   H2Y 6288   6.371  -0.095   2.831  0.0581 -1.6831  2.7946
   72SAPC   C23 6289   5.871  -0.321   3.137 -0.4119  0.2252 -0.3251
   72SAPC   H3R 6290   5.952  -0.374   3.082  1.3891  1.6026  0.9078
   72SAPC   H3S 6291   5.792  -0.396   3.156  1.4776 -1.1872  2.1898
   72SAPC   C24 6292   5.924  -0.293   3.290  0.3162 -0.0170  0.1162
   72SAPC   H4R 6293   5.911  -0.389   3.345  1.5130 -2.8168 -4.2738
   72SAPC   H4S 6294   5.848  -0.224   3.332 -0.1458 -0.2472 -0.3365
   72SAPC   C25 6295   6.064  -0.238   3.303  0.6643 -0.2387 -0.2525
   72SAPC   H5R 6296   6.141  -0.312   3.275 -0.1311 -1.3524  0.4205
   72SAPC   C26 6297   6.101  -0.127   3.361 -0.2228 -1.0805  0.0617
   72SAPC   H6R 6298   6.206  -0.095   3.368 -0.3087 -0.7999  0.0706
   72SAPC   C27 6299   6.007  -0.030   3.435  0.1421  0.6675 -0.0011
   72SAPC   H7R 6300   6.057  -0.031   3.534  2.0580 -2.2324 -0.9458
   72SAPC   H7S 6301   5.902  -0.067   3.434 -0.1612  1.4992  0.7068
   72SAPC   C28 6302   6.014   0.104   3.371  0.2109  0.5466  0.3587
   72SAPC   H8R 6303   6.004   0.105   3.261 -1.3163  1.1993  0.4871
   72SAPC   C29 6304   6.017   0.220   3.435  0.4526  0.1035  0.2385
   72SAPC   H9R 6305   6.027   0.315   3.380  0.5739 -0.0171  0.0529
   72SAPC  C210 6306   6.003   0.236   3.586 -0.2583  0.1755  0.0414
   72SAPC  H10R 6307   6.104   0.263   3.625 -0.2539  0.9214 -0.4977
   72SAPC  H10S 6308   5.982   0.142   3.642 -0.2426  0.3392  0.3250
   72SAPC  C211 6309   5.900   0.341   3.628 -0.0541 -0.0556 -0.4256
   72SAPC  H11R 6310   5.824   0.370   3.555  0.3084  0.4570 -0.6045
   72SAPC  C212 6311   5.898   0.409   3.747  0.0901 -0.2254  0.0219
   72SAPC  H12R 6312   5.818   0.482   3.765  0.7979  0.5092  0.2719
   72SAPC  C213 6313   5.992   0.397   3.867 -0.2421  0.4850 -0.6897
   72SAPC  H13R 6314   6.034   0.498   3.889 -0.0509  0.4568 -0.9279
   72SAPC  H13S 6315   6.082   0.333   3.855 -1.0358 -1.0783  1.4805
   72SAPC  C214 6316   5.909   0.357   3.989  0.3856  0.3146  0.1007
   72SAPC  H14R 6317   5.856   0.444   4.031 -0.1397 -0.5665  1.3049
   72SAPC  C215 6318   5.892   0.235   4.043 -0.6701  0.3102 -0.8271
   72SAPC  H15R 6319   5.817   0.222   4.123  1.0833  0.6779  0.9143
   72SAPC  C216 6320   5.951   0.101   3.999 -0.3187 -0.0304  0.2796
   72SAPC  H16R 6321   6.028   0.117   3.920 -0.9233  0.1187 -0.2879
   72SAPC  H16S 6322   5.868   0.041   3.956 -0.2400  0.0704 -0.0153
   72SAPC  C217 6323   6.003   0.005   4.116  0.1543  0.0883 -0.4886
   72SAPC  H17R 6324   5.927   0.011   4.196  0.4974 -2.3593  0.0692
   72SAPC  H17S 6325   6.093   0.054   4.160  0.2561  0.4608 -1.0958
   72SAPC  C218 6326   6.049  -0.130   4.084 -0.3276  0.5523 -0.3159
   72SAPC  H18R 6327   6.126  -0.118   4.005 -0.3531 -0.3244 -0.4886
   72SAPC  H18S 6328   5.961  -0.174   4.033 -0.4984  0.7307 -0.1764
   72SAPC  C219 6329   6.098  -0.224   4.197  0.1355  0.4969 -0.0227
   72SAPC  H19R 6330   6.101  -0.328   4.157  0.0835  0.9479 -1.2192
   72SAPC  H19S 6331   6.023  -0.223   4.279 -0.1917  0.4782 -0.3170
   72SAPC  C220 6332   6.237  -0.195   4.257  0.8173  0.5152 -0.0502
   72SAPC  H20R 6333   6.233  -0.097   4.310  1.4316 -0.0851  1.1405
   72SAPC  H20S 6334   6.320  -0.210   4.185  1.3605 -0.2644  0.7202
   72SAPC  H20T 6335   6.262  -0.258   4.345  4.1061  1.0035 -0.5554
   72SAPC   C33 6336   6.302  -0.013   3.019  0.3219 -0.5105  0.2758
   72SAPC   H3X 6337   6.404   0.027   3.039 -0.4203  0.6500  1.8209
   72SAPC   H3Y 6338   6.304  -0.111   3.072  3.0796 -0.3049  0.6335
   72SAPC   C34 6339   6.181   0.068   3.070 -0.2338 -0.0929 -0.3893
   72SAPC   H4X 6340   6.211   0.099   3.172 -0.1465 -0.2486 -0.3669
   72SAPC   H4Y 6341   6.095  -0.003   3.073  0.2782 -0.6680  0.9190
   72SAPC   C35 6342   6.132   0.182   2.981  0.2307 -0.2340 -0.1706
   72SAPC   H5X 6343   6.104   0.142   2.881 -0.0390  0.9490 -0.5866
   72SAPC   H5Y 6344   6.220   0.250   2.967 -2.1686  2.6255 -1.9466
   72SAPC   C36 6345   6.028   0.280   3.038  0.0069  0.5029  0.8591
   72SAPC   H6X 6346   6.015   0.375   2.980 -1.5498  0.7094  1.5157
   72SAPC   H6Y 6347   6.040   0.318   3.141  1.3608  0.6478  0.6553
   72SAPC   C37 6348   5.892   0.205   3.038  0.5796 -0.1099 -0.2064
   72SAPC   H7X 6349   5.908   0.119   3.106  0.2810  1.9703  2.6191
   72SAPC   H7Y 6350   5.863   0.171   2.936  0.6750 -0.5913 -0.0709
   72SAPC   C38 6351   5.777   0.284   3.104 -0.0014 -0.2291 -0.1559
   72SAPC   H8X 6352   5.763   0.380   3.050  0.9617  0.1774  0.3012
   72SAPC   H8Y 6353   5.794   0.311   3.211  0.1804 -0.7655 -0.0481
   72SAPC   C39 6354   5.643   0.217   3.082  0.4452  0.0447 -0.2247
   72SAPC   H9X 6355   5.630   0.173   2.981 -1.7910  0.6406 -0.2363
   72SAPC   H9Y 6356   5.564   0.292   3.105  1.4981  0.6981  1.3581
   72SAPC  C310 6357   5.606   0.105   3.185  1.1612  0.8048 -0.1630
   72SAPC  H10X 6358   5.689   0.031   3.183  1.7199  1.4317 -0.1738
   72SAPC  H10Y 6359   5.510   0.054   3.160 -0.0571  3.2775 -0.6726
   72SAPC  C311 6360   5.587   0.150   3.331  0.3416  0.0539  0.5605
   72SAPC  H11X 6361   5.487   0.196   3.324 -0.1547 -1.2639 -1.5795
   72SAPC  H11Y 6362   5.668   0.220   3.359  2.9605 -2.8509  0.5664
   72SAPC  C312 6363   5.579   0.037   3.432  0.0428  0.6705 -0.4924
   72SAPC  H12X 6364   5.676  -0.015   3.419 -0.3447 -0.8306  2.1331
   72SAPC  H12Y 6365   5.502  -0.035   3.398  1.3588  0.0803 -2.2727
   72SAPC  C313 6366   5.561   0.079   3.573  0.2494  0.4227  0.0150
   72SAPC  H13X 6367   5.468   0.139   3.570  0.9317  1.5063  0.3105
   72SAPC  H13Y 6368   5.646   0.131   3.622  0.4004 -1.1094  1.4227
   72SAPC  C314 6369   5.527  -0.042   3.662 -0.4642 -0.0044 -0.5022
   72SAPC  H14X 6370   5.619  -0.104   3.670 -0.0149  0.6027 -0.9412
   72SAPC  H14Y 6371   5.437  -0.099   3.629 -0.9030 -0.7171  1.8736
   72SAPC  C315 6372   5.507   0.010   3.802  0.4285  0.8383 -0.6921
   72SAPC  H15X 6373   5.577   0.092   3.828 -1.4995  2.2054  0.3741
   72SAPC  H15Y 6374   5.506  -0.080   3.868 -1.1572  1.0889 -0.3636
   72SAPC  C316 6375   5.359   0.062   3.822  0.7994 -0.0357 -0.1310
   72SAPC  H16X 6376   5.293  -0.009   3.766  0.5695 -0.4622  0.6775
   72SAPC  H16Y 6377   5.347   0.156   3.763  0.6926  0.5608  0.8355
   72SAPC  C317 6378   5.322   0.098   3.967 -0.3774  0.2311  0.4036
   72SAPC  H17X 6379   5.318   0.011   4.037  1.7077 -0.9188 -0.8598
   72SAPC  H17Y 6380   5.222   0.145   3.956  0.3116  0.9106 -3.6146
   72SAPC  C318 6381   5.417   0.202   4.030  0.0895 -0.7889 -0.4699
   72SAPC  H18X 6382   5.517   0.158   4.047  0.0274 -0.7423  0.0094
   72SAPC  H18Y 6383   5.371   0.231   4.127 -0.5701 -0.5198 -0.8532
   72SAPC  H18Z 6384   5.418   0.294   3.967 -0.4166 -2.1210 -2.4767
   73SLPC     N 6385   5.009   3.947   6.067 -0.0350  0.1960 -0.4897
   73SLPC   C13 6386   5.033   3.801   6.037  0.6596 -0.3557 -0.3036
   73SLPC  H13A 6387   4.948   3.760   5.984  0.0069 -0.9667  1.1795
   73SLPC  H13B 6388   5.122   3.788   5.977  1.1516  0.4068  0.2519
   73SLPC  H13C 6389   5.042   3.746   6.130 -0.5427  1.0936  0.6922
   73SLPC   C14 6390   5.132   3.992   6.141 -0.1198 -0.8113  0.6877
   73SLPC  H14A 6391   5.221   3.975   6.082 -1.0287  0.9988 -1.3116
   73SLPC  H14B 6392   5.131   4.099   6.155 -1.2367 -0.9592  1.7618
   73SLPC  H14C 6393   5.159   3.946   6.235  1.9690 -0.4729  0.2725
   73SLPC   C15 6394   4.886   3.960   6.152  0.1056  0.2344 -0.5526
   73SLPC  H15A 6395   4.863   4.065   6.164  0.3242  0.1886  0.3201
   73SLPC  H15B 6396   4.803   3.910   6.104  0.1976 -1.3660  0.8960
   73SLPC  H15C 6397   4.908   3.922   6.250  1.5714 -0.1168 -0.9938
   73SLPC   C12 6398   4.983   4.019   5.936 -0.3510 -0.6638 -0.2831
   73SLPC  H12A 6399   5.060   3.991   5.866 -0.6255  0.2407 -0.9487
   73SLPC  H12B 6400   4.982   4.126   5.950  0.0815 -1.0380  3.1106
   73SLPC   C11 6401   4.856   3.988   5.849  0.0159  0.3879 -0.3383
   73SLPC  H11A 6402   4.869   3.879   5.832 -1.3623  0.4009 -1.4589
   73SLPC  H11B 6403   4.863   4.021   5.743 -1.4305  0.4922 -0.4073
   73SLPC     P 6404   4.659   4.152   5.913 -0.5203  0.2678 -0.3463
   73SLPC   O13 6405   4.513   4.130   5.910  0.1625 -0.4389  0.0918
   73SLPC   O14 6406   4.716   4.231   6.019  0.0141  0.1674 -0.6007
   73SLPC   O12 6407   4.732   4.010   5.911  0.2765 -0.6244 -0.0769
   73SLPC   O11 6408   4.703   4.211   5.775  0.2154 -0.0279  0.5039
   73SLPC    C1 6409   4.660   4.335   5.719  0.0699  0.8601  0.1965
   73SLPC    HA 6410   4.695   4.328   5.613  0.7651  0.9196  0.4219
   73SLPC    HB 6411   4.550   4.338   5.705  0.0204 -0.4630  0.2059
   73SLPC    C2 6412   4.715   4.457   5.785 -0.3082  0.1425 -0.0012
   73SLPC    HS 6413   4.674   4.458   5.889 -1.4847 -1.1453 -0.4362
   73SLPC   O21 6414   4.671   4.567   5.706 -0.6272  0.2064 -0.5990
   73SLPC   C21 6415   4.705   4.685   5.750 -1.0954  0.7814  0.1581
   73SLPC   O22 6416   4.723   4.714   5.869  0.4113 -0.6253  0.2981
   73SLPC   C22 6417   4.722   4.783   5.634  0.3877  0.5089 -0.3302
   73SLPC   H2R 6418   4.640   4.760   5.563 -0.4423  2.5600 -0.0636
   73SLPC   H2S 6419   4.718   4.885   5.676 -0.2650  0.1602  0.4668
   73SLPC    C3 6420   4.869   4.438   5.798  0.4674  0.3805  0.6979
   73SLPC    HX 6421   4.886   4.365   5.880  2.2897  0.4705  0.4163
   73SLPC    HY 6422   4.910   4.537   5.829 -1.1519  1.8997 -1.8350
   73SLPC   O31 6423   4.930   4.405   5.667  0.3646  0.0301  0.3861
   73SLPC   C31 6424   5.015   4.304   5.674 -0.8630 -0.1427  0.2454
   73SLPC   O32 6425   5.047   4.238   5.775  1.1895  0.3340 -0.3382
   73SLPC   C32 6426   5.056   4.267   5.532  0.5991  0.1925 -0.5476
   73SLPC   H2X 6427   5.121   4.177   5.535  1.0935  0.6020  1.6369
   73SLPC   H2Y 6428   5.128   4.338   5.487  0.7050 -0.9649 -2.2618
   73SLPC   C23 6429   4.861   4.774   5.556  0.3451  0.3184  0.3677
   73SLPC   H3R 6430   4.878   4.668   5.528  0.8618  0.1710  1.2255
   73SLPC   H3S 6431   4.950   4.804   5.615  0.0034  0.7959  0.6423
   73SLPC   C24 6432   4.858   4.856   5.428  0.4266  0.5159  0.1243
   73SLPC   H4R 6433   4.960   4.862   5.383  0.7869  1.4378  1.0325
   73SLPC   H4S 6434   4.821   4.956   5.457 -0.3919  0.3570 -0.3510
   73SLPC   C25 6435   4.765   4.805   5.318 -0.2700 -0.0317 -0.0697
   73SLPC   H5R 6436   4.774   4.883   5.240 -1.6144  0.8263  0.6216
   73SLPC   H5S 6437   4.658   4.799   5.349 -0.0335  1.1307  1.0384
   73SLPC   C26 6438   4.797   4.671   5.251 -0.0061 -0.5019 -0.6623
   73SLPC   H6R 6439   4.720   4.636   5.179 -0.0196 -1.6857 -0.0839
   73SLPC   H6S 6440   4.788   4.597   5.333 -2.6346 -0.4739 -0.8719
   73SLPC   C27 6441   4.943   4.661   5.201 -0.4831  0.2163  0.0557
   73SLPC   H7R 6442   5.015   4.680   5.284  1.5308 -2.3224 -1.0445
   73SLPC   H7S 6443   4.963   4.745   5.131 -1.0208  0.6510  0.4137
   73SLPC   C28 6444   4.972   4.523   5.137 -0.2034 -0.3186  0.1725
   73SLPC   H8R 6445   4.940   4.440   5.203  2.2523 -1.8058 -0.4429
   73SLPC   H8S 6446   5.082   4.505   5.137 -0.0264  0.6901 -1.3945
   73SLPC   C29 6447   4.906   4.501   4.999  0.2979  0.6460 -0.6581
   73SLPC   H9R 6448   4.873   4.593   4.950 -0.9338 -0.7928 -2.6266
   73SLPC  C210 6449   4.886   4.384   4.929 -0.1302 -0.1416  0.5156
   73SLPC  H10R 6450   4.837   4.389   4.831  1.1861  1.8782 -0.0611
   73SLPC  C211 6451   4.919   4.243   4.966  0.4291 -0.1784 -0.6263
   73SLPC  H11R 6452   4.893   4.168   4.888 -2.0763 -0.4330  0.3863
   73SLPC  H11S 6453   4.863   4.236   5.062 -3.0558 -2.0994 -2.6950
   73SLPC  C212 6454   5.065   4.221   4.989  0.6115 -0.7835  0.0331
   73SLPC  H12R 6455   5.129   4.310   5.000 -0.6426  0.1645 -0.2573
   73SLPC  C213 6456   5.116   4.096   5.008 -0.2140  0.2627  0.1485
   73SLPC  H13R 6457   5.225   4.085   5.016  0.0000  1.1552 -1.3935
   73SLPC  C214 6458   5.027   3.966   5.007 -1.0650 -1.0986  0.5184
   73SLPC  H14R 6459   4.921   3.994   4.989 -0.9289 -0.0291  1.3380
   73SLPC  H14S 6460   5.037   3.915   5.105 -0.6387  0.4402  1.2866
   73SLPC  C215 6461   5.060   3.874   4.897 -0.7197 -0.3484  0.1097
   73SLPC  H15R 6462   5.162   3.838   4.922 -0.8293 -1.7456 -1.3617
   73SLPC  H15S 6463   5.049   3.924   4.798 -0.0820  0.7115  0.5732
   73SLPC  C216 6464   4.980   3.744   4.896  0.2974  0.5035 -0.3703
   73SLPC  H16R 6465   4.872   3.767   4.901  0.0984 -0.8192  2.5027
   73SLPC  H16S 6466   5.004   3.675   4.979  0.4976 -0.6683 -1.3872
   73SLPC  C217 6467   5.004   3.663   4.765  0.2503 -0.0934 -0.4408
   73SLPC  H17R 6468   5.104   3.614   4.771 -0.5204 -1.8003 -1.0936
   73SLPC  H17S 6469   4.998   3.730   4.677  1.9020  0.5185 -0.1084
   73SLPC  C218 6470   4.900   3.544   4.757 -0.1261 -0.8228  0.5069
   73SLPC  H18R 6471   4.923   3.476   4.672 -0.5417  0.3572 -0.5649
   73SLPC  H18S 6472   4.794   3.577   4.747  0.1199 -0.5236 -1.2184
   73SLPC  H18T 6473   4.898   3.489   4.854 -0.1267 -1.7485 -0.0169
   73SLPC   C33 6474   4.936   4.261   5.429  0.4475  0.4140 -0.4985
   73SLPC   H3X 6475   4.986   4.252   5.330  2.8183  0.7415  0.6403
   73SLPC   H3Y 6476   4.869   4.350   5.424 -1.2890 -0.8902 -1.0464
   73SLPC   C34 6477   4.853   4.126   5.451  0.2175  0.2053 -0.2016
   73SLPC   H4X 6478   4.826   4.112   5.557 -0.8456  1.6673 -0.2602
   73SLPC   H4Y 6479   4.927   4.050   5.420  1.9342  1.7129  0.0882
   73SLPC   C35 6480   4.750   4.111   5.331 -0.4570  0.6248 -0.1253
   73SLPC   H5X 6481   4.710   4.008   5.342  0.7348  0.2821  1.1726
   73SLPC   H5Y 6482   4.815   4.105   5.240  0.9477 -0.6109  0.9289
   73SLPC   C36 6483   4.629   4.209   5.327 -0.4297  0.0296  0.4626
   73SLPC   H6X 6484   4.649   4.305   5.379  1.0963  0.4779 -0.9109
   73SLPC   H6Y 6485   4.545   4.167   5.386 -0.4668  1.3408  1.3822
   73SLPC   C37 6486   4.578   4.259   5.193 -0.2365  0.5043  0.4388
   73SLPC   H7X 6487   4.530   4.172   5.143  2.2816 -0.5145 -0.3104
   73SLPC   H7Y 6488   4.653   4.302   5.124  0.9004 -2.7605 -0.4398
   73SLPC   C38 6489   4.461   4.358   5.204 -0.0271  0.3421 -0.3641
   73SLPC   H8X 6490   4.518   4.452   5.218  0.2058 -0.1570  2.3285
   73SLPC   H8Y 6491   4.403   4.336   5.297  1.1731  5.4670  1.7979
   73SLPC   C39 6492   4.370   4.357   5.080  0.3593  0.7640 -0.1513
   73SLPC   H9X 6493   4.286   4.426   5.100 -0.6459 -1.1871  2.7150
   73SLPC   H9Y 6494   4.324   4.257   5.070  2.2228 -0.0124 -1.2907
   73SLPC  C310 6495   4.442   4.408   4.953  0.3655 -0.2742  0.0951
   73SLPC  H10X 6496   4.549   4.380   4.955  0.8485  1.5167  1.3158
   73SLPC  H10Y 6497   4.449   4.519   4.964 -2.4604 -0.0307 -0.2604
   73SLPC  C311 6498   4.381   4.350   4.831  0.0838  0.2980 -0.2670
   73SLPC  H11X 6499   4.283   4.401   4.821 -0.7308 -1.4488 -1.3084
   73SLPC  H11Y 6500   4.371   4.240   4.827 -1.5132  0.4300 -0.1740
   73SLPC  C312 6501   4.460   4.382   4.700 -0.0329  0.0584  0.4573
   73SLPC  H12X 6502   4.396   4.347   4.616  0.3626  2.5032 -0.8822
   73SLPC  H12Y 6503   4.556   4.326   4.693  0.2843  0.7427 -0.7718
   73SLPC  C313 6504   4.492   4.537   4.682 -0.3059 -0.3126 -0.7119
   73SLPC  H13X 6505   4.563   4.561   4.763 -1.3327 -0.4609  0.2543
   73SLPC  H13Y 6506   4.399   4.598   4.684  0.1227  0.3163  0.4671
   73SLPC  C314 6507   4.564   4.574   4.559  0.2644  1.1572  0.0499
   73SLPC  H14X 6508   4.505   4.535   4.474 -0.2444 -0.2542  1.0329
   73SLPC  H14Y 6509   4.666   4.532   4.556  0.0021  0.6226 -2.0159
   73SLPC  C315 6510   4.580   4.727   4.537 -0.1624 -0.7847  0.1273
   73SLPC  H15X 6511   4.646   4.769   4.616  0.9134 -1.1317 -0.5645
   73SLPC  H15Y 6512   4.480   4.772   4.551  1.1293  1.6531  1.9483
   73SLPC  C316 6513   4.647   4.769   4.407  0.5578 -0.3453  0.2581
   73SLPC  H16X 6514   4.584   4.730   4.323  1.0819 -0.8307  0.0842
   73SLPC  H16Y 6515   4.746   4.723   4.386 -0.2760 -1.5160 -1.2256
   73SLPC  C317 6516   4.658   4.924   4.393 -0.1938 -0.0717  0.4955
   73SLPC  H17X 6517   4.743   4.961   4.454 -0.0522  1.3095 -0.5076
   73SLPC  H17Y 6518   4.558   4.969   4.414  0.0571 -0.4292  2.5478
   73SLPC  C318 6519   4.704   4.968   4.253  0.3807 -0.3974 -0.3600
   73SLPC  H18X 6520   4.662   5.069   4.234  0.4672  0.7672  4.8345
   73SLPC  H18Y 6521   4.651   4.903   4.180 -0.1968 -1.1695  0.7232
   73SLPC  H18Z 6522   4.812   4.969   4.231  0.5270  0.0667  0.3681
   74SLPC     N 6523   2.438   4.434   6.032 -0.5898  0.4901  0.4631
   74SLPC   C13 6524   2.289   4.468   6.034 -0.1308 -0.0599 -0.5077
   74SLPC  H13A 6525   2.264   4.570   6.006 -0.2923  0.0828  0.1290
   74SLPC  H13B 6526   2.231   4.406   5.968 -1.5008  2.1066 -1.3877
   74SLPC  H13C 6527   2.253   4.454   6.135  0.1554  2.2501 -0.0557
   74SLPC   C14 6528   2.523   4.511   6.117  0.1579 -0.1797  0.0256
   74SLPC  H14A 6529   2.529   4.617   6.097  1.3845 -0.3713 -0.6424
   74SLPC  H14B 6530   2.473   4.502   6.212 -1.2515  0.9145 -0.5961
   74SLPC  H14C 6531   2.622   4.467   6.114 -0.5842 -1.9447  1.0185
   74SLPC   C15 6532   2.473   4.443   5.885 -0.0565 -0.3885 -0.6468
   74SLPC  H15A 6533   2.405   4.383   5.827 -3.7168  0.6351  2.4263
   74SLPC  H15B 6534   2.466   4.543   5.844  1.0108  0.2094  0.6134
   74SLPC  H15C 6535   2.574   4.409   5.866  0.7666  1.7390 -0.2369
   74SLPC   C12 6536   2.447   4.286   6.072  0.4141 -0.3643 -0.2006
   74SLPC  H12A 6537   2.382   4.234   6.003  0.8888  2.2031 -2.6573
   74SLPC  H12B 6538   2.410   4.277   6.173 -0.9808 -0.5227 -0.7031
   74SLPC   C11 6539   2.589   4.210   6.064  0.6957 -0.4292 -0.2086
   74SLPC  H11A 6540   2.586   4.111   6.113 -1.5928 -0.4659 -0.3656
   74SLPC  H11B 6541   2.670   4.273   6.106  1.3119 -0.3220 -1.5531
   74SLPC     P 6542   2.535   4.102   5.840 -0.1424 -0.4879  0.2302
   74SLPC   O13 6543   2.497   3.981   5.921 -0.1754 -0.1354  0.1037
   74SLPC   O14 6544   2.416   4.176   5.789  0.2914  0.3379  0.2106
   74SLPC   O12 6545   2.630   4.196   5.927 -0.8352  0.5116  0.1564
   74SLPC   O11 6546   2.625   4.052   5.728  0.0599  0.4982 -0.2532
   74SLPC    C1 6547   2.729   4.138   5.679 -0.1048  0.6413 -0.0264
   74SLPC    HA 6548   2.814   4.142   5.751 -0.8618 -0.8961  0.9795
   74SLPC    HB 6549   2.760   4.077   5.591 -1.1729 -1.5936  1.1028
   74SLPC    C2 6550   2.696   4.280   5.618  0.9620  0.5291 -0.0658
   74SLPC    HS 6551   2.683   4.347   5.706 -2.2770 -1.4585  1.0508
   74SLPC   O21 6552   2.575   4.277   5.540  0.6221  0.6744 -0.6375
   74SLPC   C21 6553   2.507   4.382   5.525  0.1968  0.5598 -0.0432
   74SLPC   O22 6554   2.541   4.490   5.567  0.3861  0.2123  0.6568
   74SLPC   C22 6555   2.383   4.354   5.440 -0.0406  0.3790  0.1312
   74SLPC   H2R 6556   2.386   4.249   5.402  0.6917  0.5965 -0.4299
   74SLPC   H2S 6557   2.304   4.359   5.518  0.0050 -1.1506  0.2905
   74SLPC    C3 6558   2.813   4.328   5.526  0.1462  0.2735  0.2160
   74SLPC    HX 6559   2.900   4.349   5.591 -0.4562  2.0763  0.4599
   74SLPC    HY 6560   2.781   4.427   5.489 -0.9343 -0.4652 -0.8522
   74SLPC   O31 6561   2.843   4.233   5.424  0.3073  0.4459  0.2326
   74SLPC   C31 6562   2.777   4.255   5.308  0.0477 -0.4672  0.0201
   74SLPC   O32 6563   2.709   4.355   5.284  0.2682 -0.1080 -0.1467
   74SLPC   C32 6564   2.810   4.141   5.215  0.2320  0.2873 -0.2797
   74SLPC   H2X 6565   2.722   4.074   5.221  0.5515 -0.0246  1.1908
   74SLPC   H2Y 6566   2.899   4.081   5.245  2.1044  1.7632 -2.6811
   74SLPC   C23 6567   2.340   4.464   5.335 -0.3081 -0.4355  0.0626
   74SLPC   H3R 6568   2.382   4.554   5.386  2.5254 -1.5805 -0.1941
   74SLPC   H3S 6569   2.229   4.471   5.328 -0.2354  1.9348  0.8877
   74SLPC   C24 6570   2.386   4.436   5.201 -0.3027 -0.0359  0.1825
   74SLPC   H4R 6571   2.386   4.329   5.171 -0.6502 -0.4363  1.5756
   74SLPC   H4S 6572   2.493   4.466   5.197 -0.0847 -0.8109  0.1238
   74SLPC   C25 6573   2.322   4.521   5.089  0.0362  0.3590  0.8981
   74SLPC   H5R 6574   2.353   4.626   5.108 -0.4564  0.9762 -1.4750
   74SLPC   H5S 6575   2.211   4.520   5.099 -0.3651  2.2343 -2.3365
   74SLPC   C26 6576   2.362   4.484   4.946 -0.4450 -0.4587 -0.1497
   74SLPC   H6R 6577   2.302   4.397   4.913  1.0617 -0.9841 -1.5977
   74SLPC   H6S 6578   2.465   4.444   4.953 -0.0147  0.8882  1.7317
   74SLPC   C27 6579   2.357   4.595   4.837 -0.3139 -0.2614 -0.8664
   74SLPC   H7R 6580   2.429   4.676   4.858 -0.8538 -0.1332  0.5153
   74SLPC   H7S 6581   2.254   4.632   4.819 -0.1591  0.1806 -0.8268
   74SLPC   C28 6582   2.388   4.547   4.689  0.0606 -0.4727  0.1230
   74SLPC   H8R 6583   2.488   4.504   4.712  1.4189  4.1945  3.5797
   74SLPC   H8S 6584   2.398   4.634   4.621  0.5286 -0.9537 -0.4230
   74SLPC   C29 6585   2.291   4.454   4.620  0.8366 -0.4346  0.1153
   74SLPC   H9R 6586   2.219   4.403   4.685 -0.4114  2.8162  1.3789
   74SLPC  C210 6587   2.280   4.439   4.487 -0.2975  0.4618  0.0200
   74SLPC  H10R 6588   2.202   4.369   4.452  1.6988 -0.6691 -2.3896
   74SLPC  C211 6589   2.362   4.513   4.384  0.2900  0.2486 -0.7546
   74SLPC  H11R 6590   2.472   4.499   4.397  0.0683 -0.5842  0.3111
   74SLPC  H11S 6591   2.341   4.621   4.400 -1.1604  0.1519 -1.9769
   74SLPC  C212 6592   2.321   4.484   4.244  0.1022  0.3690  0.4460
   74SLPC  H12R 6593   2.218   4.449   4.230  1.0719 -1.8123 -1.5814
   74SLPC  C213 6594   2.394   4.515   4.136  0.4419 -0.2811 -0.1773
   74SLPC  H13R 6595   2.353   4.493   4.036  2.0451 -2.5078 -0.3743
   74SLPC  C214 6596   2.530   4.578   4.105 -0.1097  0.4685 -0.5529
   74SLPC  H14R 6597   2.588   4.595   4.198 -1.0913 -0.2114  0.1901
   74SLPC  H14S 6598   2.523   4.672   4.046  1.5223  0.2528 -1.1138
   74SLPC  C215 6599   2.615   4.485   4.018 -0.1036  0.3292 -0.1356
   74SLPC  H15R 6600   2.595   4.376   4.008 -0.3949  0.2611  1.1900
   74SLPC  H15S 6601   2.712   4.468   4.071  2.0793  2.7421 -3.1409
   74SLPC  C216 6602   2.661   4.542   3.883  0.3792 -0.0516 -0.3926
   74SLPC  H16R 6603   2.672   4.652   3.889  1.4825 -0.3147  3.3635
   74SLPC  H16S 6604   2.593   4.525   3.797 -2.2316 -1.6963  1.9018
   74SLPC  C217 6605   2.804   4.494   3.849 -0.0906  0.0088 -0.3555
   74SLPC  H17R 6606   2.810   4.384   3.838  1.8244 -0.0691  1.0571
   74SLPC  H17S 6607   2.879   4.518   3.927 -0.0042 -2.4882  0.3758
   74SLPC  C218 6608   2.858   4.551   3.717 -0.5224  0.6075 -0.1316
   74SLPC  H18R 6609   2.917   4.640   3.748  0.3765 -0.6590  1.9350
   74SLPC  H18S 6610   2.772   4.582   3.655 -0.1586  0.0487 -0.9274
   74SLPC  H18T 6611   2.917   4.481   3.655 -3.0283  0.4387 -2.3902
   74SLPC   C33 6612   2.839   4.186   5.075 -0.6197  0.0637  0.0670
   74SLPC   H3X 6613   2.939   4.234   5.078  0.2542 -1.4839 -2.3407
   74SLPC   H3Y 6614   2.771   4.259   5.027 -0.8051  1.8284  2.9189
   74SLPC   C34 6615   2.841   4.069   4.975  0.6301  0.0401  0.0933
   74SLPC   H4X 6616   2.925   3.999   4.993  0.2930 -0.5898 -0.6933
   74SLPC   H4Y 6617   2.849   4.108   4.871  1.8135  1.4505  0.7069
   74SLPC   C35 6618   2.703   3.996   4.961 -0.4581  0.0677 -0.0210
   74SLPC   H5X 6619   2.662   3.947   5.051 -0.1265 -0.0174  0.0862
   74SLPC   H5Y 6620   2.710   3.920   4.880 -0.1175 -0.5503  0.5823
   74SLPC   C36 6621   2.591   4.089   4.899  0.6240 -0.3890 -0.6941
   74SLPC   H6X 6622   2.606   4.145   4.804  0.4365  2.0778  0.6858
   74SLPC   H6Y 6623   2.574   4.162   4.981  1.1948 -1.6970  0.6240
   74SLPC   C37 6624   2.463   4.018   4.869  0.4130 -0.4412  0.4018
   74SLPC   H7X 6625   2.421   3.984   4.966 -0.8856 -3.2399 -1.0753
   74SLPC   H7Y 6626   2.491   3.924   4.817  0.0437 -0.0584 -0.4970
   74SLPC   C38 6627   2.365   4.107   4.780 -0.2977 -0.3228 -0.5656
   74SLPC   H8X 6628   2.424   4.141   4.692  2.3620  0.4173  1.4310
   74SLPC   H8Y 6629   2.344   4.202   4.834 -1.3105  0.9562 -3.1081
   74SLPC   C39 6630   2.241   4.037   4.726  0.6290  0.5950 -0.3459
   74SLPC   H9X 6631   2.175   4.025   4.814 -1.1299 -2.4618 -2.0168
   74SLPC   H9Y 6632   2.256   3.936   4.683  0.5191  0.3879  0.1057
   74SLPC  C310 6633   2.168   4.122   4.629  0.0363  0.4285 -0.2455
   74SLPC  H10X 6634   2.227   4.159   4.543  1.0211  0.8119  0.5776
   74SLPC  H10Y 6635   2.125   4.212   4.680  0.4401  1.8980 -2.4429
   74SLPC  C311 6636   2.049   4.045   4.577  0.7633  0.3483  0.7658
   74SLPC  H11X 6637   1.967   4.024   4.648 -0.5161  0.5356 -0.6364
   74SLPC  H11Y 6638   2.081   3.942   4.549 -3.2108 -0.5331 -0.8655
   74SLPC  C312 6639   1.997   4.085   4.437  0.2628 -0.4429  0.3915
   74SLPC  H12X 6640   1.928   4.009   4.395  0.4193 -1.1098  1.3268
   74SLPC  H12Y 6641   2.090   4.086   4.375 -0.4160  0.0421 -0.6442
   74SLPC  C313 6642   1.932   4.227   4.437 -1.0180 -0.9352  0.0244
   74SLPC  H13X 6643   1.991   4.292   4.506 -3.0487  0.7599  0.2109
   74SLPC  H13Y 6644   1.834   4.213   4.488 -0.8012  0.4110  0.8214
   74SLPC  C314 6645   1.932   4.297   4.291  0.6780 -0.1231  0.4169
   74SLPC  H14X 6646   1.899   4.216   4.223 -0.5540  1.4653 -0.9154
   74SLPC  H14Y 6647   2.032   4.332   4.257  0.4896  0.2665  0.2596
   74SLPC  C315 6648   1.823   4.405   4.288 -0.2209 -0.2506 -0.1567
   74SLPC  H15X 6649   1.851   4.486   4.359 -3.8485  0.8172  0.1914
   74SLPC  H15Y 6650   1.725   4.362   4.321 -0.0197 -2.3408 -2.1635
   74SLPC  C316 6651   1.808   4.452   4.141  0.0699  0.1426 -0.5018
   74SLPC  H16X 6652   1.751   4.548   4.143  0.8516  0.6066  0.1140
   74SLPC  H16Y 6653   1.740   4.384   4.086  1.2261 -2.3299  1.0847
   74SLPC  C317 6654   1.934   4.484   4.050  0.8784 -0.2880  0.6385
   74SLPC  H17X 6655   1.897   4.492   3.945 -0.6019 -1.2866  1.0711
   74SLPC  H17Y 6656   2.001   4.395   4.049 -1.6183 -2.2253  0.4017
   74SLPC  C318 6657   2.011   4.617   4.070 -0.0017 -0.0511  0.1113
   74SLPC  H18X 6658   2.063   4.618   4.168 -0.6567  0.2455  0.4625
   74SLPC  H18Y 6659   1.935   4.698   4.064 -0.3044 -0.1212  2.5681
   74SLPC  H18Z 6660   2.078   4.629   3.982  0.8319  0.1182  0.7584
   75SLPC     N 6661   5.921   4.356   6.206 -0.4144 -0.5332  0.7322
   75SLPC   C13 6662   5.877   4.367   6.352 -0.4091  0.0709 -0.1112
   75SLPC  H13A 6663   5.773   4.339   6.355 -0.1621 -0.7587  1.0673
   75SLPC  H13B 6664   5.926   4.289   6.408  0.1738  0.0597 -0.6281
   75SLPC  H13C 6665   5.903   4.465   6.390  1.4038  0.4822 -2.2808
   75SLPC   C14 6666   5.912   4.218   6.156  0.6463  0.4070 -0.1379
   75SLPC  H14A 6667   5.812   4.176   6.153  0.8422 -0.0463 -0.3706
   75SLPC  H14B 6668   5.957   4.217   6.058 -0.5269  0.2700 -0.6902
   75SLPC  H14C 6669   5.969   4.151   6.218  1.7559  1.5114  0.0617
   75SLPC   C15 6670   6.067   4.392   6.205 -0.2010 -0.0258 -0.5148
   75SLPC  H15A 6671   6.081   4.495   6.236 -2.2979  0.0980  0.0583
   75SLPC  H15B 6672   6.123   4.322   6.265 -1.1215 -0.2004  0.1479
   75SLPC  H15C 6673   6.102   4.386   6.103 -0.5588  0.3562 -0.6614
   75SLPC   C12 6674   5.832   4.449   6.125 -0.3587 -0.4607  0.1549
   75SLPC  H12A 6675   5.845   4.548   6.166 -2.4978  0.1242 -0.5566
   75SLPC  H12B 6676   5.730   4.416   6.136  0.5222 -3.1613  0.7751
   75SLPC   C11 6677   5.870   4.452   5.968  0.5581 -0.2089 -0.2419
   75SLPC  H11A 6678   5.784   4.501   5.918 -0.9182  1.0883  3.4208
   75SLPC  H11B 6679   5.882   4.347   5.934 -0.2143 -0.3883  0.0078
   75SLPC     P 6680   6.098   4.492   5.835  0.7176 -0.0594  0.0594
   75SLPC   O13 6681   6.143   4.617   5.774  0.0800  0.0481  0.1777
   75SLPC   O14 6682   6.204   4.405   5.892  0.6690 -0.1684  0.5942
   75SLPC   O12 6683   5.988   4.527   5.956  0.3732  0.3644 -0.4951
   75SLPC   O11 6684   6.014   4.404   5.733 -0.1740 -0.2729  0.6354
   75SLPC    C1 6685   6.051   4.388   5.595  0.9669 -0.5239 -0.0034
   75SLPC    HA 6686   6.161   4.396   5.582  0.9929 -1.0460 -0.1212
   75SLPC    HB 6687   6.012   4.291   5.557 -2.4434  0.6723  0.3096
   75SLPC    C2 6688   5.987   4.499   5.506 -0.6108  0.9172  0.4731
   75SLPC    HS 6689   5.981   4.603   5.546  0.6540  0.4086  2.0749
   75SLPC   O21 6690   5.852   4.464   5.488  0.4755 -0.2574  0.1509
   75SLPC   C21 6691   5.770   4.551   5.441 -0.0491  0.3918  0.2611
   75SLPC   O22 6692   5.800   4.660   5.397 -0.2310 -0.1227 -0.3357
   75SLPC   C22 6693   5.634   4.481   5.450  0.2595 -0.5696 -0.6483
   75SLPC   H2R 6694   5.646   4.371   5.450  5.3691 -0.1423 -0.9519
   75SLPC   H2S 6695   5.584   4.506   5.546 -0.2869 -3.4658 -0.1416
   75SLPC    C3 6696   6.055   4.505   5.366 -0.4244 -0.5923 -0.2082
   75SLPC    HX 6697   6.160   4.534   5.387  0.1757 -2.8540  0.1247
   75SLPC    HY 6698   6.003   4.584   5.307 -1.9132 -2.2486 -1.1700
   75SLPC   O31 6699   6.047   4.380   5.302 -0.1256 -0.3495 -0.2815
   75SLPC   C31 6700   5.959   4.361   5.208  0.3997  0.0030  0.1941
   75SLPC   O32 6701   5.898   4.450   5.149  0.4528 -0.0471 -0.2548
   75SLPC   C32 6702   5.956   4.213   5.179  0.6876  0.4544 -0.5651
   75SLPC   H2X 6703   5.940   4.163   5.277  2.4603 -0.6227 -0.7987
   75SLPC   H2Y 6704   6.056   4.185   5.139  0.7358  0.1801 -0.2532
   75SLPC   C23 6705   5.539   4.506   5.332  0.1647  0.9674  0.0144
   75SLPC   H3R 6706   5.601   4.520   5.241  0.1006  0.6178 -0.0849
   75SLPC   H3S 6707   5.483   4.601   5.346  0.0189  1.1551 -1.6759
   75SLPC   C24 6708   5.440   4.396   5.304  0.4398  0.0651  0.1528
   75SLPC   H4R 6709   5.380   4.381   5.396 -1.1376 -0.3093 -0.9233
   75SLPC   H4S 6710   5.491   4.303   5.271 -0.8286 -0.9223  0.9378
   75SLPC   C25 6711   5.352   4.444   5.188  0.0388  0.4058  0.7884
   75SLPC   H5R 6712   5.337   4.554   5.187  1.9756  0.7292  2.5322
   75SLPC   H5S 6713   5.252   4.399   5.207  1.4783 -3.2398  0.0393
   75SLPC   C26 6714   5.398   4.385   5.053 -0.0611 -0.5984  0.5840
   75SLPC   H6R 6715   5.328   4.404   4.969  1.2991 -2.4617 -1.0351
   75SLPC   H6S 6716   5.405   4.274   5.063 -0.5844 -0.5023  2.2871
   75SLPC   C27 6717   5.535   4.444   5.020  0.1425  0.4281  0.6960
   75SLPC   H7R 6718   5.610   4.406   5.093 -2.4529  0.8423  3.6309
   75SLPC   H7S 6719   5.538   4.555   5.023 -0.3935  0.4285  1.3525
   75SLPC   C28 6720   5.580   4.394   4.874 -0.1976 -0.2006 -0.0196
   75SLPC   H8R 6721   5.531   4.431   4.782  0.0781  1.3140  0.4203
   75SLPC   H8S 6722   5.574   4.283   4.877  0.9657 -0.2799 -0.4762
   75SLPC   C29 6723   5.723   4.446   4.851  0.6342  0.6908 -0.1606
   75SLPC   H9R 6724   5.770   4.489   4.941 -1.3280  0.6588  0.9160
   75SLPC  C210 6725   5.799   4.426   4.738 -0.3576 -0.2213  0.2372
   75SLPC  H10R 6726   5.891   4.484   4.722  0.2453 -1.4703 -0.8346
   75SLPC  C211 6727   5.745   4.363   4.612  0.1071 -0.5728 -0.4394
   75SLPC  H11R 6728   5.712   4.447   4.548 -0.2173  0.3308  0.8942
   75SLPC  H11S 6729   5.652   4.304   4.629  0.5055 -1.4902 -1.3961
   75SLPC  C212 6730   5.857   4.291   4.539 -0.0695  0.7720 -0.2185
   75SLPC  H12R 6731   5.871   4.187   4.572 -0.4305  0.5703 -0.6834
   75SLPC  C213 6732   5.933   4.342   4.436 -0.4154 -0.3857 -0.2527
   75SLPC  H13R 6733   6.007   4.286   4.377  1.3146  3.1111 -1.5406
   75SLPC  C214 6734   5.926   4.485   4.388 -0.1843  0.4666  0.4423
   75SLPC  H14R 6735   5.898   4.543   4.478  1.1782  0.7894  0.6679
   75SLPC  H14S 6736   5.855   4.501   4.303 -0.3126 -4.2655 -0.4956
   75SLPC  C215 6737   6.065   4.524   4.339  0.4922 -0.5474  0.7372
   75SLPC  H15R 6738   6.110   4.452   4.267 -0.8796 -1.1585  0.4596
   75SLPC  H15S 6739   6.133   4.511   4.426  0.1711 -2.9945  0.6676
   75SLPC  C216 6740   6.067   4.664   4.290 -0.0307  0.0122 -0.3886
   75SLPC  H16R 6741   5.987   4.686   4.216  0.2034 -2.5405 -1.4242
   75SLPC  H16S 6742   6.161   4.682   4.232  0.0577  0.0707 -0.2286
   75SLPC  C217 6743   6.064   4.768   4.403 -0.7083 -0.5889 -0.3505
   75SLPC  H17R 6744   6.115   4.721   4.490  0.6789  0.8307 -0.3740
   75SLPC  H17S 6745   5.959   4.793   4.427  0.4683  2.7685  1.6113
   75SLPC  C218 6746   6.153   4.888   4.374  0.6931  0.5559 -0.3332
   75SLPC  H18R 6747   6.254   4.859   4.338  1.5012  0.3818  1.9770
   75SLPC  H18S 6748   6.164   4.958   4.460 -1.4008  0.0383  0.3785
   75SLPC  H18T 6749   6.094   4.948   4.302 -0.8731 -3.0301 -2.1823
   75SLPC   C33 6750   5.858   4.165   5.074 -0.1098 -0.6052 -0.4386
   75SLPC   H3X 6751   5.884   4.213   4.978 -1.1457 -2.0361 -1.4549
   75SLPC   H3Y 6752   5.759   4.204   5.107  0.5603 -0.2144  1.1543
   75SLPC   C34 6753   5.869   4.024   5.036 -0.2049  1.0988 -0.6988
   75SLPC   H4X 6754   5.846   3.967   5.128  0.0592 -0.8064 -1.7902
   75SLPC   H4Y 6755   5.973   3.998   5.007  0.0539  1.0330  0.2894
   75SLPC   C35 6756   5.779   3.982   4.927 -0.5058  0.0152  0.0620
   75SLPC   H5X 6757   5.671   3.994   4.952 -0.2224  1.5870  0.5953
   75SLPC   H5Y 6758   5.798   3.876   4.898  2.2564  0.0788  1.5053
   75SLPC   C36 6759   5.795   4.059   4.790 -0.1674  0.5835  0.0087
   75SLPC   H6X 6760   5.899   4.066   4.751  0.3843  1.4646  1.6090
   75SLPC   H6Y 6761   5.754   4.162   4.795 -1.9646 -0.1944  2.5399
   75SLPC   C37 6762   5.708   4.000   4.677 -0.1879  0.0672 -0.1330
   75SLPC   H7X 6763   5.737   3.894   4.665  0.8835  0.3033  0.3053
   75SLPC   H7Y 6764   5.712   4.042   4.574 -1.8702 -0.8025 -0.5690
   75SLPC   C38 6765   5.557   4.031   4.705 -0.4805 -0.5855 -0.6826
   75SLPC   H8X 6766   5.542   4.134   4.743  0.6159 -0.8686  0.5635
   75SLPC   H8Y 6767   5.513   3.956   4.774  2.0088  0.9002  2.7182
   75SLPC   C39 6768   5.470   4.006   4.586 -0.6529 -0.0546  0.7984
   75SLPC   H9X 6769   5.466   3.901   4.550 -0.0547 -0.1259  0.9344
   75SLPC   H9Y 6770   5.509   4.059   4.497  0.5654 -0.7523  0.9069
   75SLPC  C310 6771   5.320   4.047   4.600  0.4112  0.4659  0.0015
   75SLPC  H10X 6772   5.265   3.975   4.664 -0.2779  1.4489  0.5338
   75SLPC  H10Y 6773   5.283   4.026   4.497  0.0390 -3.8621  0.9321
   75SLPC  C311 6774   5.288   4.191   4.637  0.2201 -0.3300  0.6442
   75SLPC  H11X 6775   5.313   4.220   4.741 -1.6215  0.8057  0.7898
   75SLPC  H11Y 6776   5.178   4.204   4.637  0.2302 -0.2346  2.3412
   75SLPC  C312 6777   5.352   4.291   4.537 -0.9684 -0.0805 -0.6834
   75SLPC  H12X 6778   5.301   4.278   4.439 -1.3141 -1.2709 -0.3546
   75SLPC  H12Y 6779   5.462   4.278   4.544 -0.7954 -0.1515 -3.0286
   75SLPC  C313 6780   5.337   4.444   4.591  0.6585  0.6022  0.1654
   75SLPC  H13X 6781   5.414   4.501   4.536  0.1568 -0.4430 -1.6504
   75SLPC  H13Y 6782   5.364   4.436   4.699  0.7252  0.5618  0.1460
   75SLPC  C314 6783   5.199   4.507   4.574 -0.1054 -0.7397  0.3022
   75SLPC  H14X 6784   5.117   4.440   4.608 -0.2906 -1.2768 -1.1528
   75SLPC  H14Y 6785   5.195   4.532   4.466  3.4823  1.2156  0.5543
   75SLPC  C315 6786   5.181   4.642   4.650 -0.1217 -0.0247 -0.3006
   75SLPC  H15X 6787   5.075   4.676   4.662  0.4626  1.6356  0.3543
   75SLPC  H15Y 6788   5.224   4.730   4.596  2.1230 -1.7071 -1.3439
   75SLPC  C316 6789   5.232   4.636   4.789  0.3257  0.5146  0.1449
   75SLPC  H16X 6790   5.342   4.621   4.797  0.0876 -2.0529 -0.9708
   75SLPC  H16Y 6791   5.191   4.544   4.836  1.6964 -0.8925 -1.3682
   75SLPC  C317 6792   5.204   4.761   4.871 -0.5269 -0.1878  0.6317
   75SLPC  H17X 6793   5.096   4.787   4.874 -0.3284  0.8263 -0.7523
   75SLPC  H17Y 6794   5.245   4.856   4.830  1.0649  0.6391  3.9274
   75SLPC  C318 6795   5.255   4.760   5.013  0.5562  0.4492 -0.2160
   75SLPC  H18X 6796   5.363   4.737   5.024  0.2118 -0.4884  1.3966
   75SLPC  H18Y 6797   5.209   4.682   5.077  0.0833  2.3087  1.7681
   75SLPC  H18Z 6798   5.239   4.856   5.066  1.1213  0.6586 -0.4231
   76SLPC     N 6799   6.700   3.426   6.178 -0.1688  0.1253 -0.1606
   76SLPC   C13 6800   6.789   3.308   6.202  0.0128 -0.0702  0.2687
   76SLPC  H13A 6801   6.890   3.347   6.197 -1.1386  2.8431 -1.7211
   76SLPC  H13B 6802   6.786   3.272   6.303  1.8077  0.6801  0.6025
   76SLPC  H13C 6803   6.776   3.230   6.128  1.3105 -2.1776  2.2145
   76SLPC   C14 6804   6.742   3.539   6.263 -0.3546 -0.1735  0.3874
   76SLPC  H14A 6805   6.837   3.573   6.226 -0.8759 -1.0657 -1.8361
   76SLPC  H14B 6806   6.685   3.629   6.251  2.6261  1.7770  0.3931
   76SLPC  H14C 6807   6.745   3.504   6.365  1.6520  1.1948  0.8321
   76SLPC   C15 6808   6.560   3.390   6.218  0.8113  0.4510  0.4321
   76SLPC  H15A 6809   6.493   3.474   6.211 -1.6231 -1.5187 -0.9341
   76SLPC  H15B 6810   6.513   3.296   6.193 -0.4635  0.6725  1.9104
   76SLPC  H15C 6811   6.561   3.384   6.326  1.7259 -1.9060  0.3351
   76SLPC   C12 6812   6.703   3.462   6.036  0.5183  0.2382  0.2674
   76SLPC  H12A 6813   6.645   3.551   6.018  0.5142  0.7061  2.5386
   76SLPC  H12B 6814   6.657   3.382   5.980 -0.7006  1.0908  0.0207
   76SLPC   C11 6815   6.843   3.494   5.963  0.7996 -0.2419 -0.1937
   76SLPC  H11A 6816   6.816   3.509   5.856  2.3210 -0.5280 -0.6208
   76SLPC  H11B 6817   6.921   3.417   5.981  0.9687  0.4236  2.0518
   76SLPC     P 6818   6.891   3.745   5.932 -0.2092  0.2693 -0.3113
   76SLPC   O13 6819   6.894   3.865   6.022 -0.6800 -0.4872 -0.0996
   76SLPC   O14 6820   6.979   3.741   5.818 -0.0737 -0.0822  0.2147
   76SLPC   O12 6821   6.908   3.613   6.018 -0.1330 -0.2127 -0.3694
   76SLPC   O11 6822   6.743   3.738   5.881 -0.6349 -0.0215  0.4327
   76SLPC    C1 6823   6.668   3.849   5.817 -0.4591 -0.0023 -0.8575
   76SLPC    HA 6824   6.567   3.857   5.862  0.1051  0.3009  0.3884
   76SLPC    HB 6825   6.724   3.942   5.841 -0.1393 -0.6899  1.1633
   76SLPC    C2 6826   6.648   3.825   5.663 -0.4190 -0.0091 -0.4589
   76SLPC    HS 6827   6.590   3.736   5.633 -0.7988  0.7996 -2.1840
   76SLPC   O21 6828   6.779   3.809   5.600 -0.0173 -0.1216 -0.1556
   76SLPC   C21 6829   6.805   3.680   5.558 -0.1467 -0.4754 -0.2282
   76SLPC   O22 6830   6.714   3.600   5.531 -0.4883 -0.2566 -0.6495
   76SLPC   C22 6831   6.952   3.656   5.539 -0.5655 -0.0965 -0.9044
   76SLPC   H2R 6832   6.999   3.756   5.553  4.1913 -2.0878 -1.5572
   76SLPC   H2S 6833   6.978   3.598   5.630 -3.8667  1.4369  1.1252
   76SLPC    C3 6834   6.569   3.947   5.610  0.0086 -0.2125  1.2608
   76SLPC    HX 6835   6.617   4.038   5.653 -0.9868  2.2639 -2.5518
   76SLPC    HY 6836   6.467   3.950   5.654  0.1864  0.0225  1.6571
   76SLPC   O31 6837   6.568   3.948   5.465  0.2565 -0.1654 -0.0389
   76SLPC   C31 6838   6.673   4.003   5.405 -0.4768  0.5299  0.1079
   76SLPC   O32 6839   6.761   4.079   5.451 -0.2847 -0.3252 -0.5063
   76SLPC   C32 6840   6.664   3.975   5.256 -0.1663  0.1556 -0.6451
   76SLPC   H2X 6841   6.721   4.062   5.219  0.4056  0.2008  0.3339
   76SLPC   H2Y 6842   6.559   3.974   5.219  0.3890 -2.7089 -2.2330
   76SLPC   C23 6843   7.002   3.581   5.419  0.1789 -0.7557 -0.0280
   76SLPC   H3R 6844   6.969   3.641   5.331  3.2526  1.9651  0.5752
   76SLPC   H3S 6845   6.940   3.489   5.411  0.8599 -1.2640  0.4889
   76SLPC   C24 6846   7.160   3.558   5.416  0.6556  0.4584  0.6553
   76SLPC   H4R 6847   7.176   3.475   5.488 -0.4458 -0.2944  0.0454
   76SLPC   H4S 6848   7.216   3.651   5.436  0.5436  0.1859  2.2969
   76SLPC   C25 6849   7.211   3.485   5.277  0.1695 -0.6111  0.0469
   76SLPC   H5R 6850   7.185   3.377   5.290 -0.1935 -0.6900 -1.3266
   76SLPC   H5S 6851   7.320   3.485   5.298  0.4355  0.2718 -1.3021
   76SLPC   C26 6852   7.187   3.558   5.146  0.2801  0.9800  0.3701
   76SLPC   H6R 6853   7.225   3.663   5.147 -1.7869  1.7489  0.0547
   76SLPC   H6S 6854   7.079   3.553   5.120 -0.0126 -0.7466  1.8013
   76SLPC   C27 6855   7.250   3.478   5.033 -0.6080  0.0919 -1.2136
   76SLPC   H7R 6856   7.193   3.383   5.046 -0.2527 -0.2838 -2.2750
   76SLPC   H7S 6857   7.359   3.462   5.050 -1.2901 -1.3728  2.2028
   76SLPC   C28 6858   7.240   3.556   4.897  0.4620  0.2920  0.3005
   76SLPC   H8R 6859   7.308   3.510   4.822  1.6578  1.9578  0.3181
   76SLPC   H8S 6860   7.304   3.646   4.914  0.4143  0.9919 -2.8058
   76SLPC   C29 6861   7.098   3.592   4.851 -0.0449 -0.0798 -0.3205
   76SLPC   H9R 6862   7.050   3.659   4.925  0.6829 -0.2798  0.3395
   76SLPC  C210 6863   7.029   3.541   4.751  0.5253 -0.3243  0.5522
   76SLPC  H10R 6864   6.928   3.578   4.732  1.2521  1.8586  0.8447
   76SLPC  C211 6865   7.079   3.428   4.665  0.8420  0.2962 -0.2356
   76SLPC  H11R 6866   6.987   3.376   4.631 -0.2071  1.3558  0.9286
   76SLPC  H11S 6867   7.144   3.355   4.718  1.8667  1.4856  0.1841
   76SLPC  C212 6868   7.167   3.475   4.559  0.1305 -0.4039  1.0583
   76SLPC  H12R 6869   7.271   3.504   4.582  0.1028 -2.1355  3.5140
   76SLPC  C213 6870   7.129   3.509   4.431  0.8291  0.0692 -0.3921
   76SLPC  H13R 6871   7.209   3.534   4.359 -1.2636  1.3653 -2.3425
   76SLPC  C214 6872   6.986   3.504   4.373  0.3271 -0.6957  0.7515
   76SLPC  H14R 6873   6.913   3.543   4.447 -0.3239 -0.4161 -0.0400
   76SLPC  H14S 6874   6.958   3.398   4.352  0.1930 -0.4092 -0.5483
   76SLPC  C215 6875   6.972   3.589   4.246 -0.2123  0.4524 -1.0399
   76SLPC  H15R 6876   6.868   3.598   4.210 -0.8145 -1.4565  0.1457
   76SLPC  H15S 6877   7.038   3.545   4.168  2.2744  2.6704 -0.2666
   76SLPC  C216 6878   7.018   3.742   4.252 -0.6938  0.3483  0.0824
   76SLPC  H16R 6879   7.110   3.757   4.313 -1.4185  0.8584  1.0788
   76SLPC  H16S 6880   6.936   3.793   4.308 -0.3855 -0.2870  1.1294
   76SLPC  C217 6881   7.019   3.807   4.121 -0.5464  0.2244  0.2861
   76SLPC  H17R 6882   6.917   3.804   4.075 -0.1265 -0.0603 -0.6387
   76SLPC  H17S 6883   7.091   3.759   4.052  0.3347 -1.5296  2.4034
   76SLPC  C218 6884   7.063   3.964   4.137  0.7292 -0.2530 -0.1688
   76SLPC  H18R 6885   7.020   4.029   4.058 -0.6469 -0.2009  0.6128
   76SLPC  H18S 6886   7.173   3.980   4.143  0.5237  0.4205  2.6361
   76SLPC  H18T 6887   7.023   4.004   4.233  0.6264 -1.0159  0.1113
   76SLPC   C33 6888   6.748   3.852   5.226 -0.2802  0.5436  0.1372
   76SLPC   H3X 6889   6.721   3.768   5.294 -0.1201 -0.1384 -0.6251
   76SLPC   H3Y 6890   6.855   3.879   5.225  0.0468 -0.7057 -1.0614
   76SLPC   C34 6891   6.707   3.791   5.091  0.0059  0.1875 -0.0243
   76SLPC   H4X 6892   6.599   3.766   5.083 -0.3910  1.2590  1.6874
   76SLPC   H4Y 6893   6.774   3.702   5.089 -0.3600 -0.1569  1.7234
   76SLPC   C35 6894   6.744   3.873   4.963  0.3626 -0.3970 -0.8932
   76SLPC   H5X 6895   6.855   3.879   4.968  0.2975 -0.5508  0.8894
   76SLPC   H5Y 6896   6.705   3.977   4.959 -0.2694 -0.6394 -1.1944
   76SLPC   C36 6897   6.692   3.815   4.840  0.4050 -0.2031 -0.0281
   76SLPC   H6X 6898   6.590   3.851   4.814 -0.5506 -1.6372  1.6405
   76SLPC   H6Y 6899   6.693   3.704   4.845 -0.7776 -0.1586  1.5827
   76SLPC   C37 6900   6.781   3.853   4.717 -0.0154  0.2785  0.5872
   76SLPC   H7X 6901   6.889   3.825   4.717 -0.3051 -0.8852  1.3630
   76SLPC   H7Y 6902   6.765   3.961   4.694 -3.5648 -0.4089 -0.5329
   76SLPC   C38 6903   6.736   3.784   4.583 -0.0568  0.1614 -0.2831
   76SLPC   H8X 6904   6.715   3.677   4.605 -2.2092  0.4881 -0.5770
   76SLPC   H8Y 6905   6.812   3.799   4.503 -0.7479 -0.3108 -1.0411
   76SLPC   C39 6906   6.589   3.833   4.550  0.3963  0.1832  0.5379
   76SLPC   H9X 6907   6.592   3.943   4.540  0.4936  0.0210 -1.4652
   76SLPC   H9Y 6908   6.511   3.801   4.622  1.0475  1.5726  1.8928
   76SLPC  C310 6909   6.549   3.785   4.412 -0.2042 -0.3688  0.2123
   76SLPC  H10X 6910   6.621   3.836   4.345  0.0481 -0.7608  0.1845
   76SLPC  H10Y 6911   6.454   3.838   4.391  1.2021  2.6919  1.2872
   76SLPC  C311 6912   6.556   3.628   4.391 -0.4269  0.1423  0.3350
   76SLPC  H11X 6913   6.484   3.572   4.454 -0.8925  0.7671  0.3632
   76SLPC  H11Y 6914   6.659   3.587   4.396 -0.7560 -0.5946  1.1018
   76SLPC  C312 6915   6.503   3.587   4.250  0.1892 -0.3770  1.2717
   76SLPC  H12X 6916   6.550   3.648   4.170  2.7606 -2.9822  0.7060
   76SLPC  H12Y 6917   6.399   3.625   4.256  0.4156 -0.0981  4.0230
   76SLPC  C313 6918   6.525   3.434   4.210  0.1258  0.3508 -0.2684
   76SLPC  H13X 6919   6.462   3.364   4.269  1.3971 -0.6248 -0.0505
   76SLPC  H13Y 6920   6.633   3.407   4.220  0.2292 -0.0093 -2.0841
   76SLPC  C314 6921   6.499   3.416   4.060  0.1011  0.3398 -0.1597
   76SLPC  H14X 6922   6.575   3.475   4.004  0.2227 -0.7508 -1.1701
   76SLPC  H14Y 6923   6.399   3.457   4.033  1.3973  1.6580 -3.2537
   76SLPC  C315 6924   6.509   3.259   4.030 -0.3323 -0.5454 -0.1991
   76SLPC  H15X 6925   6.456   3.203   4.110 -0.7009 -1.3388 -0.9971
   76SLPC  H15Y 6926   6.616   3.245   4.059 -0.1417  1.1654 -0.0416
   76SLPC  C316 6927   6.477   3.227   3.886 -0.4475  0.6906 -0.4891
   76SLPC  H16X 6928   6.368   3.228   3.863 -0.5784  2.5726  0.1231
   76SLPC  H16Y 6929   6.500   3.119   3.881 -1.2672  0.3395  2.5405
   76SLPC  C317 6930   6.569   3.287   3.782  0.4396 -0.3816 -0.2695
   76SLPC  H17X 6931   6.677   3.265   3.797  0.5488 -0.3291 -0.9734
   76SLPC  H17Y 6932   6.561   3.398   3.778 -1.0006 -0.5272 -1.5857
   76SLPC  C318 6933   6.527   3.233   3.643 -0.2953 -0.5054 -0.3976
   76SLPC  H18X 6934   6.580   3.294   3.567 -0.8131  1.5589  0.8669
   76SLPC  H18Y 6935   6.417   3.247   3.639 -0.3002  0.3017  1.7291
   76SLPC  H18Z 6936   6.562   3.128   3.636  2.9490  0.5469 -0.5469
   77SLPC     N 6937   1.162   4.365   5.963  0.2649  0.2744  0.1129
   77SLPC   C13 6938   1.044   4.356   5.866 -0.3451 -0.5095 -0.1707
   77SLPC  H13A 6939   1.075   4.325   5.767 -3.5916 -1.3752 -0.9547
   77SLPC  H13B 6940   0.972   4.288   5.909 -1.0218  0.5980  0.4575
   77SLPC  H13C 6941   0.977   4.440   5.867 -0.7408 -0.7910 -2.0144
   77SLPC   C14 6942   1.255   4.470   5.912 -0.3360  0.2992  0.2109
   77SLPC  H14A 6943   1.274   4.461   5.806 -1.2596  0.2382  0.0426
   77SLPC  H14B 6944   1.207   4.567   5.908 -1.5310 -0.3547 -1.8452
   77SLPC  H14C 6945   1.350   4.470   5.964 -0.2277  0.5172  0.0116
   77SLPC   C15 6946   1.228   4.233   5.942 -0.4921 -1.1820 -0.2143
   77SLPC  H15A 6947   1.240   4.219   5.836  1.9647  0.5788 -0.2111
   77SLPC  H15B 6948   1.320   4.246   5.998 -1.3136  2.1411  0.4646
   77SLPC  H15C 6949   1.169   4.157   5.991 -0.9769 -0.9896 -0.4996
   77SLPC   C12 6950   1.105   4.388   6.104 -0.2898 -0.6275 -0.4646
   77SLPC  H12A 6951   1.055   4.483   6.091 -1.4897 -1.2422 -0.5093
   77SLPC  H12B 6952   1.186   4.406   6.172 -1.9895 -2.7603  2.2128
   77SLPC   C11 6953   1.015   4.269   6.169  0.0287  0.2008 -0.4645
   77SLPC  H11A 6954   0.971   4.302   6.266 -0.4540 -1.6221 -0.0394
   77SLPC  H11B 6955   1.082   4.181   6.183  0.4339  0.5092 -0.4635
   77SLPC     P 6956   0.775   4.180   6.126  0.1824 -0.1642  0.1101
   77SLPC   O13 6957   0.797   4.041   6.178  0.3658 -0.4424 -0.0186
   77SLPC   O14 6958   0.723   4.276   6.224 -0.6990 -0.7670 -0.3071
   77SLPC   O12 6959   0.914   4.234   6.075  0.2760 -0.6810 -0.2798
   77SLPC   O11 6960   0.670   4.185   6.002 -0.2121  0.3693 -0.1350
   77SLPC    C1 6961   0.680   4.278   5.899  0.3668 -0.9744 -0.3626
   77SLPC    HA 6962   0.729   4.372   5.933 -1.5379  0.3010 -1.0774
   77SLPC    HB 6963   0.744   4.244   5.814  1.6567  1.9803 -0.6799
   77SLPC    C2 6964   0.545   4.310   5.843  0.2767 -0.6597  0.6337
   77SLPC    HS 6965   0.486   4.350   5.928 -0.3560 -1.2295  0.4706
   77SLPC   O21 6966   0.487   4.196   5.781  0.4595  0.0825  0.2743
   77SLPC   C21 6967   0.356   4.199   5.767 -0.2796 -0.2734 -0.2254
   77SLPC   O22 6968   0.277   4.269   5.832 -0.7033 -0.2903 -0.1899
   77SLPC   C22 6969   0.308   4.103   5.654 -0.2724  0.1063  0.1155
   77SLPC   H2R 6970   0.390   4.092   5.580 -2.7887  2.6457 -3.1925
   77SLPC   H2S 6971   0.285   4.002   5.694 -0.7032 -0.1567 -0.7930
   77SLPC    C3 6972   0.549   4.424   5.742  0.4563 -0.4944 -0.2632
   77SLPC    HX 6973   0.587   4.514   5.795 -1.2535  0.1595 -0.1151
   77SLPC    HY 6974   0.449   4.459   5.708  1.7510  3.7958 -0.0122
   77SLPC   O31 6975   0.653   4.394   5.639  0.0172  0.8001 -0.2546
   77SLPC   C31 6976   0.619   4.338   5.521  0.0607  0.0560  0.1682
   77SLPC   O32 6977   0.509   4.336   5.469 -0.0904  0.1977 -0.2816
   77SLPC   C32 6978   0.749   4.268   5.477  0.3367 -0.0753 -0.0103
   77SLPC   H2X 6979   0.808   4.237   5.566 -0.4055  0.9684  0.8652
   77SLPC   H2Y 6980   0.799   4.346   5.416 -1.8073 -0.8287 -2.8202
   77SLPC   C23 6981   0.178   4.155   5.578 -0.3359  0.6162 -0.1253
   77SLPC   H3R 6982   0.189   4.266   5.568  0.1621  0.6465  0.7172
   77SLPC   H3S 6983   0.094   4.132   5.646  0.9738 -1.6362  0.7651
   77SLPC   C24 6984   0.169   4.096   5.440 -0.6119  0.1567  0.5613
   77SLPC   H4R 6985   0.152   3.986   5.440  0.7212 -0.0583 -0.4974
   77SLPC   H4S 6986   0.268   4.110   5.391 -0.0059  0.0075  1.7050
   77SLPC   C25 6987   0.055   4.157   5.361  0.2560  0.3321 -0.4020
   77SLPC   H5R 6988   0.081   4.264   5.351  2.8854 -0.1879  0.4951
   77SLPC   H5S 6989  -0.037   4.150   5.424  1.8682 -2.8578  1.6912
   77SLPC   C26 6990   0.043   4.096   5.222  0.2076 -0.5586 -0.8454
   77SLPC   H6R 6991   0.009   3.991   5.212 -0.7194 -0.3051 -0.4065
   77SLPC   H6S 6992   0.136   4.107   5.162 -0.5807 -0.6663 -2.1029
   77SLPC   C27 6993  -0.064   4.159   5.136  0.3013 -0.1512 -0.0952
   77SLPC   H7R 6994  -0.053   4.269   5.137 -0.2002 -0.0988  1.5411
   77SLPC   H7S 6995  -0.165   4.141   5.178  0.6350  0.1152  0.8359
   77SLPC   C28 6996  -0.065   4.106   4.986 -0.2899 -0.3914 -0.1715
   77SLPC   H8R 6997  -0.166   4.132   4.947 -0.6737  0.7398  1.5280
   77SLPC   H8S 6998  -0.065   3.994   4.989 -2.2741 -0.6009 -4.5153
   77SLPC   C29 6999   0.038   4.162   4.895  0.1628 -0.0953  0.1974
   77SLPC   H9R 7000   0.035   4.272   4.898 -0.5672 -0.1037 -0.0510
   77SLPC  C210 7001   0.131   4.097   4.827 -0.1411 -0.2208  0.0696
   77SLPC  H10R 7002   0.189   4.156   4.754  1.3728 -0.8627  0.7464
   77SLPC  C211 7003   0.169   3.953   4.823  0.4112 -0.0557  0.7175
   77SLPC  H11R 7004   0.164   3.927   4.931 -2.2501  0.9293  0.8631
   77SLPC  H11S 7005   0.277   3.949   4.798  0.3454  2.8878 -0.2142
   77SLPC  C212 7006   0.087   3.857   4.746 -0.3985 -0.1959  1.3972
   77SLPC  H12R 7007  -0.020   3.881   4.741 -0.2280  0.4270  0.5983
   77SLPC  C213 7008   0.130   3.740   4.697 -1.1993 -0.1179  0.3753
   77SLPC  H13R 7009   0.058   3.670   4.654  0.6688 -3.4080  2.3366
   77SLPC  C214 7010   0.273   3.699   4.708 -0.1560 -0.1760 -0.6896
   77SLPC  H14R 7011   0.320   3.733   4.803  0.4947 -0.4203 -0.9226
   77SLPC  H14S 7012   0.323   3.759   4.630  0.9569 -2.6001 -1.8873
   77SLPC  C215 7013   0.303   3.551   4.707  0.6810 -0.2033  0.1878
   77SLPC  H15R 7014   0.280   3.508   4.607  4.6770 -0.4540 -0.7427
   77SLPC  H15S 7015   0.236   3.499   4.778  0.2713 -1.6827 -1.2389
   77SLPC  C216 7016   0.448   3.509   4.751  0.4007 -0.0944  0.5343
   77SLPC  H16R 7017   0.463   3.399   4.751 -0.7062 -0.2530 -1.1424
   77SLPC  H16S 7018   0.449   3.531   4.860  2.9021 -0.9890  0.7195
   77SLPC  C217 7019   0.562   3.587   4.679  0.4941  0.0535 -0.4376
   77SLPC  H17R 7020   0.648   3.600   4.749 -0.7293  1.2518  0.8552
   77SLPC  H17S 7021   0.515   3.687   4.667 -1.8743 -1.2239 -2.0859
   77SLPC  C218 7022   0.595   3.544   4.546 -0.1612 -0.1887  0.2636
   77SLPC  H18R 7023   0.623   3.436   4.542 -1.3880 -0.4818 -0.7108
   77SLPC  H18S 7024   0.671   3.612   4.504  0.5206 -0.9299  0.2781
   77SLPC  H18T 7025   0.508   3.544   4.476  1.8201  0.4468 -2.2702
   77SLPC   C33 7026   0.714   4.149   5.394 -0.5124 -0.4442 -0.0550
   77SLPC   H3X 7027   0.630   4.167   5.325 -0.9633 -0.6408  0.4381
   77SLPC   H3Y 7028   0.690   4.063   5.461 -0.7326 -0.2114  0.1628
   77SLPC   C34 7029   0.836   4.099   5.314 -0.0109  0.1890  1.2441
   77SLPC   H4X 7030   0.911   4.085   5.394  2.9100 -0.5376 -1.4967
   77SLPC   H4Y 7031   0.885   4.182   5.258  0.9331 -1.7829 -0.9538
   77SLPC   C35 7032   0.823   3.986   5.227  0.9141  0.1891  0.1469
   77SLPC   H5X 7033   0.792   3.895   5.281  1.9804 -0.9539 -1.1340
   77SLPC   H5Y 7034   0.927   3.970   5.191  0.7701  0.7804 -0.5621
   77SLPC   C36 7035   0.717   3.999   5.119 -0.7969  0.0860  0.2869
   77SLPC   H6X 7036   0.760   4.070   5.046 -0.8716 -0.5428 -0.3646
   77SLPC   H6Y 7037   0.620   4.045   5.152 -1.1417 -1.5012  1.5454
   77SLPC   C37 7038   0.703   3.861   5.046  0.1105  0.5228 -0.1192
   77SLPC   H7X 7039   0.654   3.782   5.107 -0.1655  0.9104  0.1596
   77SLPC   H7Y 7040   0.805   3.818   5.031 -0.3778  0.2370 -2.9856
   77SLPC   C38 7041   0.630   3.878   4.911 -0.2933 -0.0012 -0.0967
   77SLPC   H8X 7042   0.554   3.959   4.913  2.1197  2.3328  1.2565
   77SLPC   H8Y 7043   0.582   3.780   4.891  1.9493 -1.1957  0.2391
   77SLPC   C39 7044   0.742   3.908   4.806  0.1162 -0.4472  0.2981
   77SLPC   H9X 7045   0.817   3.826   4.810 -1.0033 -1.5023 -0.0192
   77SLPC   H9Y 7046   0.797   3.997   4.843  0.4683  0.1167 -1.5385
   77SLPC  C310 7047   0.692   3.935   4.666  0.4636  0.1116  0.2151
   77SLPC  H10X 7048   0.653   4.039   4.652  1.9571  1.0326  2.6858
   77SLPC  H10Y 7049   0.605   3.870   4.642  0.6802  0.1717 -0.7500
   77SLPC  C311 7050   0.809   3.904   4.566  0.2245  0.0060 -0.2129
   77SLPC  H11X 7051   0.768   3.825   4.499 -0.5377 -0.3856  0.6907
   77SLPC  H11Y 7052   0.892   3.848   4.615 -0.0891 -0.6496 -0.4239
   77SLPC  C312 7053   0.863   4.020   4.481  0.1141  0.0112 -0.5308
   77SLPC  H12X 7054   0.879   4.108   4.546  0.5862 -0.1192 -0.4697
   77SLPC  H12Y 7055   0.780   4.059   4.418  0.0615  0.9404  0.1045
   77SLPC  C313 7056   0.999   4.005   4.417  0.6112  0.2828  0.0658
   77SLPC  H13X 7057   0.990   3.925   4.341  1.1618  1.7520 -1.5568
   77SLPC  H13Y 7058   1.075   3.971   4.490 -2.0052  1.2207  3.3832
   77SLPC  C314 7059   1.031   4.144   4.352 -0.2041  1.1016  0.3552
   77SLPC  H14X 7060   1.052   4.225   4.425  1.6821  1.3406 -0.4111
   77SLPC  H14Y 7061   0.942   4.162   4.288 -0.4239  0.1330  0.3746
   77SLPC  C315 7062   1.142   4.118   4.241  0.5114  0.3276 -0.6524
   77SLPC  H15X 7063   1.090   4.072   4.155 -0.8872  2.2816 -0.8897
   77SLPC  H15Y 7064   1.218   4.043   4.271  0.5380 -0.8015 -3.3489
   77SLPC  C316 7065   1.204   4.252   4.191 -0.4742 -0.9647 -0.3965
   77SLPC  H16X 7066   1.281   4.225   4.116  0.2109 -1.4301  0.4672
   77SLPC  H16Y 7067   1.259   4.305   4.272  0.8656 -1.3474 -1.0380
   77SLPC  C317 7068   1.113   4.363   4.126 -0.3597 -0.4551  0.5697
   77SLPC  H17X 7069   1.177   4.450   4.101 -0.6182 -0.6532 -0.8264
   77SLPC  H17Y 7070   1.044   4.403   4.204  0.0744 -0.9261  1.2022
   77SLPC  C318 7071   1.041   4.327   3.999  0.1581 -0.4792 -0.4173
   77SLPC  H18X 7072   1.115   4.319   3.917  0.8154 -0.0125  0.1138
   77SLPC  H18Y 7073   0.965   4.408   3.988  1.8307  1.6638  2.8407
   77SLPC  H18Z 7074   0.987   4.231   4.003 -1.7289  0.6011  1.0492
   78SLPC     N 7075   3.260   0.935   6.206  0.1597 -0.1418 -0.7037
   78SLPC   C13 7076   3.131   0.852   6.220 -0.0006 -0.5046  0.3476
   78SLPC  H13A 7077   3.148   0.771   6.288 -1.0706 -0.2834  0.8807
   78SLPC  H13B 7078   3.050   0.917   6.250  0.8083  0.5030  0.4010
   78SLPC  H13C 7079   3.120   0.798   6.127 -0.4207 -0.0280  0.1199
   78SLPC   C14 7080   3.376   0.841   6.214 -0.0688  0.3776 -0.0376
   78SLPC  H14A 7081   3.470   0.890   6.234 -0.5853  1.0731  0.7574
   78SLPC  H14B 7082   3.368   0.776   6.300 -0.6501 -0.6887 -0.8839
   78SLPC  H14C 7083   3.380   0.777   6.127  1.0717  0.6671 -0.2057
   78SLPC   C15 7084   3.274   1.032   6.321  0.4267  0.3725  0.1384
   78SLPC  H15A 7085   3.271   0.983   6.417  0.7718  1.9692  0.9683
   78SLPC  H15B 7086   3.375   1.070   6.317  0.3300  0.5632 -0.5985
   78SLPC  H15C 7087   3.196   1.107   6.318 -1.7673 -1.7986  1.1514
   78SLPC   C12 7088   3.266   0.999   6.066  0.4414  0.0289  0.0344
   78SLPC  H12A 7089   3.353   1.062   6.056  0.3695  0.0687 -0.3382
   78SLPC  H12B 7090   3.177   1.061   6.071 -0.5309 -1.3565  0.2834
   78SLPC   C11 7091   3.281   0.899   5.941  0.4285 -0.3942 -0.5634
   78SLPC  H11A 7092   3.370   0.835   5.956  2.1990  2.1533  0.0875
   78SLPC  H11B 7093   3.293   0.957   5.847 -2.2704 -0.6975 -1.1476
   78SLPC     P 7094   3.180   0.681   5.849  0.2818  0.2206 -0.1741
   78SLPC   O13 7095   3.313   0.623   5.880  0.2964 -0.2584 -0.1408
   78SLPC   O14 7096   3.061   0.591   5.887 -0.0117 -0.6433 -0.2985
   78SLPC   O12 7097   3.162   0.823   5.919 -0.1103 -0.4594 -0.4153
   78SLPC   O11 7098   3.175   0.718   5.696 -0.0937  0.0010  0.5084
   78SLPC    C1 7099   3.051   0.725   5.632  0.6802 -0.8683  0.0017
   78SLPC    HA 7100   2.974   0.774   5.695  0.0567  0.1815 -1.5503
   78SLPC    HB 7101   3.056   0.797   5.549 -0.6283  2.5176  2.7356
   78SLPC    C2 7102   2.996   0.596   5.565 -0.8373  0.2669 -0.7506
   78SLPC    HS 7103   2.985   0.519   5.644 -1.2286  1.0392 -0.0540
   78SLPC   O21 7104   3.093   0.552   5.464 -0.5448 -0.4300  0.1390
   78SLPC   C21 7105   3.175   0.449   5.496  0.2014  0.5774 -0.5301
   78SLPC   O22 7106   3.166   0.374   5.589 -1.1693 -0.3812 -0.5244
   78SLPC   C22 7107   3.272   0.439   5.378 -0.7347  0.2128  0.7632
   78SLPC   H2R 7108   3.222   0.474   5.285 -2.3700  1.2163  1.9978
   78SLPC   H2S 7109   3.358   0.505   5.405  0.4877  0.0951 -2.6424
   78SLPC    C3 7110   2.860   0.617   5.507 -0.4092 -0.6990 -0.3626
   78SLPC    HX 7111   2.859   0.712   5.449 -0.4774 -0.9887 -0.8346
   78SLPC    HY 7112   2.791   0.638   5.592 -0.1733 -1.6990  0.0825
   78SLPC   O31 7113   2.809   0.507   5.432 -0.0390 -0.5373  0.1541
   78SLPC   C31 7114   2.799   0.531   5.304  0.1082  0.0422  0.4074
   78SLPC   O32 7115   2.824   0.637   5.252 -0.0336 -0.0709  0.1135
   78SLPC   C32 7116   2.744   0.401   5.240 -0.0640 -0.0127  0.1616
   78SLPC   H2X 7117   2.647   0.382   5.291 -0.1551 -0.7938 -0.2901
   78SLPC   H2Y 7118   2.816   0.317   5.249 -2.7165 -2.7092 -2.4641
   78SLPC   C23 7119   3.315   0.285   5.353 -0.2874  0.4702 -0.5641
   78SLPC   H3R 7120   3.351   0.244   5.450 -2.2009  2.9389  1.2639
   78SLPC   H3S 7121   3.406   0.294   5.290 -1.1105  0.3130 -1.7899
   78SLPC   C24 7122   3.200   0.196   5.289 -0.2790 -0.3428  0.5983
   78SLPC   H4R 7123   3.121   0.203   5.367 -0.9322  0.2736 -0.1141
   78SLPC   H4S 7124   3.226   0.088   5.297  0.2000 -0.2263  0.6017
   78SLPC   C25 7125   3.155   0.240   5.150  0.1802 -0.2466 -0.6936
   78SLPC   H5R 7126   3.110   0.339   5.169  1.0714 -0.0095  0.2278
   78SLPC   H5S 7127   3.078   0.171   5.110  0.7818 -0.5184 -1.4085
   78SLPC   C26 7128   3.263   0.254   5.048 -0.1242 -0.2692  0.0709
   78SLPC   H6R 7129   3.346   0.307   5.098  2.4887 -1.7060 -2.5716
   78SLPC   H6S 7130   3.228   0.321   4.966  0.2432  0.0309  0.1589
   78SLPC   C27 7131   3.293   0.113   4.992 -0.0472  0.3650 -0.2014
   78SLPC   H7R 7132   3.204   0.062   4.951  0.6934 -1.2012  0.0700
   78SLPC   H7S 7133   3.349   0.060   5.072  1.2775 -0.3773 -1.6040
   78SLPC   C28 7134   3.390   0.129   4.871  0.1416  0.3073  0.6337
   78SLPC   H8R 7135   3.428   0.027   4.851 -0.3590  0.5493 -1.6941
   78SLPC   H8S 7136   3.474   0.195   4.902  0.2947 -0.2137  1.3402
   78SLPC   C29 7137   3.336   0.171   4.738  0.6980  0.3587 -0.3598
   78SLPC   H9R 7138   3.279   0.093   4.687  1.1506 -0.3592  0.2281
   78SLPC  C210 7139   3.371   0.286   4.682  1.0031  0.0765 -0.0137
   78SLPC  H10R 7140   3.329   0.315   4.584 -3.0831 -1.0371  1.3110
   78SLPC  C211 7141   3.466   0.391   4.740  0.5349  0.5491  0.5605
   78SLPC  H11R 7142   3.563   0.338   4.742 -0.3698 -1.1825 -0.5953
   78SLPC  H11S 7143   3.452   0.417   4.847  1.3464 -1.6895  1.2279
   78SLPC  C212 7144   3.476   0.517   4.652 -0.5470 -0.1874 -1.5136
   78SLPC  H12R 7145   3.531   0.502   4.558  0.5718 -1.1102 -0.7327
   78SLPC  C213 7146   3.443   0.640   4.689  0.9220 -0.1915  0.6124
   78SLPC  H13R 7147   3.436   0.716   4.610  0.0572 -0.6034  0.2851
   78SLPC  C214 7148   3.381   0.687   4.813 -0.4431  0.4137  0.4407
   78SLPC  H14R 7149   3.398   0.797   4.822  1.8465  0.6194 -4.4340
   78SLPC  H14S 7150   3.427   0.642   4.903 -3.7871 -1.1660  1.4516
   78SLPC  C215 7151   3.234   0.660   4.826 -0.2978 -0.5558 -0.3302
   78SLPC  H15R 7152   3.217   0.558   4.866  2.8381 -1.0400 -0.1457
   78SLPC  H15S 7153   3.178   0.672   4.730  0.8966  1.0670 -0.8349
   78SLPC  C216 7154   3.173   0.756   4.930  0.2837 -0.0219 -0.5723
   78SLPC  H16R 7155   3.065   0.774   4.911 -0.3745 -1.6376  1.4674
   78SLPC  H16S 7156   3.204   0.862   4.942  0.7021 -0.2120  0.0246
   78SLPC  C217 7157   3.188   0.700   5.066  0.0918  0.0850 -0.7680
   78SLPC  H17R 7158   3.293   0.666   5.082  0.1228  0.8646  0.8010
   78SLPC  H17S 7159   3.133   0.604   5.074 -0.7263  0.4735 -1.6701
   78SLPC  C218 7160   3.144   0.785   5.182  0.2828 -0.1225  0.1357
   78SLPC  H18R 7161   3.136   0.732   5.280 -0.2003 -2.4701 -1.1407
   78SLPC  H18S 7162   3.058   0.845   5.146  1.3060  0.6678 -0.9948
   78SLPC  H18T 7163   3.228   0.855   5.199 -1.3623  1.7835  0.7049
   78SLPC   C33 7164   2.719   0.414   5.094 -0.4313  0.2355 -0.0299
   78SLPC   H3X 7165   2.697   0.519   5.065 -1.3553  0.3864  1.1458
   78SLPC   H3Y 7166   2.624   0.359   5.078 -0.3024  0.5845 -2.0240
   78SLPC   C34 7167   2.835   0.369   5.006 -0.5089  0.4252  0.0023
   78SLPC   H4X 7168   2.870   0.264   5.020 -0.9858  0.1115 -1.1270
   78SLPC   H4Y 7169   2.903   0.450   5.039 -1.4693  0.8744  0.9006
   78SLPC   C35 7170   2.803   0.402   4.857 -0.0076  0.2531 -0.2756
   78SLPC   H5X 7171   2.783   0.511   4.851  0.3733  0.2500 -1.7118
   78SLPC   H5Y 7172   2.712   0.344   4.829 -0.5454  1.3299 -0.7620
   78SLPC   C36 7173   2.920   0.368   4.761  0.1156 -0.0695 -0.0321
   78SLPC   H6X 7174   3.017   0.410   4.795  0.8298 -0.4460 -1.5609
   78SLPC   H6Y 7175   2.892   0.412   4.663 -0.9380  2.3741  1.3164
   78SLPC   C37 7176   2.938   0.216   4.729  0.9628 -0.1318  0.1866
   78SLPC   H7X 7177   2.964   0.159   4.821 -2.9763 -0.4108  1.2151
   78SLPC   H7Y 7178   3.026   0.212   4.661 -1.1412 -2.3048 -2.5094
   78SLPC   C38 7179   2.814   0.152   4.665  0.1865  0.0167  0.4131
   78SLPC   H8X 7180   2.794   0.189   4.562  0.1921 -0.7804  0.1151
   78SLPC   H8Y 7181   2.717   0.156   4.720 -0.3359  1.0816 -0.5730
   78SLPC   C39 7182   2.839  -0.005   4.659 -0.1377 -0.2852  0.8124
   78SLPC   H9X 7183   2.743  -0.061   4.653 -1.6428  2.3061 -0.3156
   78SLPC   H9Y 7184   2.894  -0.039   4.749  1.2582 -1.2183 -0.3692
   78SLPC  C310 7185   2.924  -0.070   4.546  0.4159  0.3032  0.1635
   78SLPC  H10X 7186   2.930  -0.002   4.458 -0.8251  0.5056  0.2387
   78SLPC  H10Y 7187   2.873  -0.165   4.521  1.2163  0.0975 -0.7332
   78SLPC  C311 7188   3.068  -0.088   4.596 -0.3172  0.0769 -0.1600
   78SLPC  H11X 7189   3.068  -0.108   4.705 -0.8481 -4.0083 -0.8307
   78SLPC  H11Y 7190   3.110   0.015   4.588 -0.8388  0.2661 -0.5192
   78SLPC  C312 7191   3.154  -0.174   4.506  0.4433  0.0870 -0.6299
   78SLPC  H12X 7192   3.144  -0.154   4.397 -2.3190  0.3094 -0.3681
   78SLPC  H12Y 7193   3.131  -0.282   4.518 -1.7866  0.2637 -2.7417
   78SLPC  C313 7194   3.306  -0.151   4.531  0.3586 -0.2210 -0.7024
   78SLPC  H13X 7195   3.329  -0.176   4.637  0.9760  0.7329 -0.6031
   78SLPC  H13Y 7196   3.323  -0.041   4.534  1.7187 -0.4525  1.6326
   78SLPC  C314 7197   3.396  -0.238   4.444 -0.4584 -0.2927 -0.4011
   78SLPC  H14X 7198   3.380  -0.216   4.337 -0.0164  0.2236 -0.3631
   78SLPC  H14Y 7199   3.388  -0.349   4.445  1.1077 -0.4137 -0.4501
   78SLPC  C315 7200   3.543  -0.206   4.487  0.6567 -0.0896 -0.4043
   78SLPC  H15X 7201   3.556  -0.218   4.597  1.7037 -0.1184 -0.5277
   78SLPC  H15Y 7202   3.559  -0.099   4.460 -0.9699  1.1391  3.1292
   78SLPC  C316 7203   3.656  -0.279   4.406 -0.2970 -0.0830  0.3881
   78SLPC  H16X 7204   3.743  -0.210   4.404 -0.6866  0.3746 -1.1851
   78SLPC  H16Y 7205   3.629  -0.280   4.298  1.0995 -1.8786  0.0437
   78SLPC  C317 7206   3.683  -0.423   4.453  0.2383  0.0688  0.0653
   78SLPC  H17X 7207   3.600  -0.488   4.418  1.2306 -0.8376 -0.6388
   78SLPC  H17Y 7208   3.683  -0.417   4.564 -0.6923  2.4488 -0.0369
   78SLPC  C318 7209   3.816  -0.468   4.400  0.3157 -0.5702 -0.4846
   78SLPC  H18X 7210   3.819  -0.464   4.289 -0.5103 -4.0934 -0.6999
   78SLPC  H18Y 7211   3.830  -0.577   4.420 -0.3610 -1.0878 -2.6503
   78SLPC  H18Z 7212   3.900  -0.405   4.436 -0.9132  1.4103 -1.0187
   79SLPC     N 7213   7.080   4.090   5.751 -0.2626 -0.1429  0.0369
   79SLPC   C13 7214   7.167   4.214   5.757 -0.1192  0.2405 -0.8408
   79SLPC  H13A 7215   7.217   4.209   5.853 -0.5565 -2.6535 -0.7135
   79SLPC  H13B 7216   7.248   4.221   5.686  1.1858  1.3549  0.7076
   79SLPC  H13C 7217   7.112   4.306   5.766 -1.8565 -0.6241 -2.2657
   79SLPC   C14 7218   7.170   3.976   5.778  0.7203 -0.2803 -0.1958
   79SLPC  H14A 7219   7.221   3.950   5.686  1.8756  0.3939  0.2421
   79SLPC  H14B 7220   7.241   3.993   5.858  1.0191 -1.0677 -0.2938
   79SLPC  H14C 7221   7.112   3.889   5.803 -1.2336  1.1511  0.3869
   79SLPC   C15 7222   7.030   4.071   5.602  0.3020  0.2296 -0.0214
   79SLPC  H15A 7223   6.961   4.150   5.578  1.9856  0.5057 -4.5939
   79SLPC  H15B 7224   7.108   4.083   5.528  0.7205  0.8630  0.5234
   79SLPC  H15C 7225   6.975   3.980   5.579 -2.9679  2.1699 -0.2198
   79SLPC   C12 7226   6.964   4.091   5.844  0.8541  0.3923 -0.2787
   79SLPC  H12A 7227   7.013   4.101   5.940  1.1164 -0.4703 -0.3188
   79SLPC  H12B 7228   6.914   3.995   5.848  0.0172  0.8578  0.6071
   79SLPC   C11 7229   6.863   4.204   5.847  0.4220  0.6607 -0.3550
   79SLPC  H11A 7230   6.784   4.179   5.921 -2.5660  2.2053 -2.8885
   79SLPC  H11B 7231   6.812   4.204   5.748 -0.5420 -1.6010  0.1109
   79SLPC     P 7232   6.959   4.378   6.023  0.2418  0.8237 -0.0196
   79SLPC   O13 7233   6.861   4.481   6.062  0.2182 -0.3751  0.2917
   79SLPC   O14 7234   6.991   4.264   6.116 -0.1296 -0.2083 -0.1690
   79SLPC   O12 7235   6.920   4.333   5.882  0.4559 -0.5025 -0.5288
   79SLPC   O11 7236   7.097   4.444   5.992  0.7823 -0.2775  0.1469
   79SLPC    C1 7237   7.103   4.582   5.950 -0.0234  0.5013 -0.5136
   79SLPC    HA 7238   7.003   4.630   5.953 -0.1158  0.3184 -0.6174
   79SLPC    HB 7239   7.158   4.643   6.024 -0.5313  1.6873 -1.1125
   79SLPC    C2 7240   7.173   4.612   5.813 -0.3309 -0.3133  0.0887
   79SLPC    HS 7241   7.160   4.722   5.806  3.7675  0.3234  0.9154
   79SLPC   O21 7242   7.112   4.534   5.707  0.4898  0.0148 -0.3220
   79SLPC   C21 7243   6.987   4.570   5.681 -0.0350 -0.1314 -0.0549
   79SLPC   O22 7244   6.936   4.660   5.741 -0.2563 -0.2554  0.2182
   79SLPC   C22 7245   6.923   4.489   5.564 -0.5677  0.4317 -0.8061
   79SLPC   H2R 7246   6.971   4.389   5.559 -1.4100  0.0609 -1.6499
   79SLPC   H2S 7247   6.818   4.477   5.596 -0.8262  0.7788 -1.5077
   79SLPC    C3 7248   7.322   4.581   5.822  0.2851 -0.8729  0.3850
   79SLPC    HX 7249   7.345   4.472   5.828  2.7361 -0.4781 -1.0496
   79SLPC    HY 7250   7.362   4.631   5.912  1.2357  1.8645 -1.4705
   79SLPC   O31 7251   7.394   4.643   5.713 -0.2652  0.9067 -0.3734
   79SLPC   C31 7252   7.418   4.560   5.605  0.9666 -0.1295 -0.7988
   79SLPC   O32 7253   7.370   4.449   5.590 -0.6340  0.1354 -0.4156
   79SLPC   C32 7254   7.502   4.635   5.500 -1.0146  0.1593 -0.4635
   79SLPC   H2X 7255   7.581   4.673   5.569  0.5646 -2.7877 -0.5987
   79SLPC   H2Y 7256   7.438   4.716   5.458 -0.7989 -0.2130 -1.5376
   79SLPC   C23 7257   6.918   4.566   5.430  0.5379 -0.0159  0.1032
   79SLPC   H3R 7258   7.016   4.616   5.415  2.0913 -3.2458 -0.8274
   79SLPC   H3S 7259   6.849   4.652   5.444  0.0614 -0.2915 -0.5462
   79SLPC   C24 7260   6.865   4.493   5.305 -0.4507 -0.3120 -0.0264
   79SLPC   H4R 7261   6.826   4.557   5.224 -0.5407  1.7859  1.6337
   79SLPC   H4S 7262   6.781   4.439   5.355  1.2273 -2.0209  1.0237
   79SLPC   C25 7263   6.961   4.382   5.252 -0.3616 -0.2029 -0.7832
   79SLPC   H5R 7264   7.003   4.318   5.332  0.4317 -0.2060 -1.1967
   79SLPC   H5S 7265   7.046   4.438   5.207 -1.9443  1.4990 -1.7668
   79SLPC   C26 7266   6.894   4.294   5.139  0.0274 -0.2917  0.5803
   79SLPC   H6R 7267   6.799   4.254   5.179 -1.2231  0.5664 -1.4574
   79SLPC   H6S 7268   6.957   4.205   5.115  0.6371  0.6083 -1.2997
   79SLPC   C27 7269   6.847   4.375   5.016 -0.0540  0.1864  0.0777
   79SLPC   H7R 7270   6.942   4.405   4.967 -0.3762 -0.4919 -0.9790
   79SLPC   H7S 7271   6.799   4.472   5.043 -0.5759  0.8195 -2.9096
   79SLPC   C28 7272   6.767   4.289   4.923  1.1122  0.5494  0.0197
   79SLPC   H8R 7273   6.690   4.233   4.979  0.5186  0.0534 -1.2584
   79SLPC   H8S 7274   6.829   4.205   4.883 -1.4774 -0.8598 -1.1614
   79SLPC   C29 7275   6.695   4.367   4.822 -0.8337  0.5938  0.2269
   79SLPC   H9R 7276   6.607   4.416   4.865 -2.5886  0.3597 -2.9090
   79SLPC  C210 7277   6.738   4.393   4.699  0.0120  0.5481  0.4523
   79SLPC  H10R 7278   6.662   4.444   4.637  1.4888  2.6979  0.3470
   79SLPC  C211 7279   6.868   4.358   4.634  0.6909  0.0532  0.0402
   79SLPC  H11R 7280   6.949   4.356   4.710  0.0876  0.1951  0.6884
   79SLPC  H11S 7281   6.898   4.425   4.550  1.9239 -1.0517 -0.4221
   79SLPC  C212 7282   6.854   4.221   4.572 -0.3575  0.2936  0.0766
   79SLPC  H12R 7283   6.764   4.219   4.508  0.1493  0.8274 -0.6626
   79SLPC  C213 7284   6.926   4.109   4.573 -0.3468  0.1130 -0.7290
   79SLPC  H13R 7285   6.881   4.023   4.522  0.2136 -0.8813  0.4303
   79SLPC  C214 7286   7.049   4.078   4.642  0.2228 -0.7588 -0.4284
   79SLPC  H14R 7287   7.048   3.967   4.650 -1.5176 -0.6854  0.4666
   79SLPC  H14S 7288   7.040   4.117   4.746 -1.4888  1.0642 -1.2261
   79SLPC  C215 7289   7.179   4.127   4.580 -0.1326 -0.6793 -0.1902
   79SLPC  H15R 7290   7.256   4.076   4.642 -1.5644 -2.0366  0.4951
   79SLPC  H15S 7291   7.190   4.237   4.586  1.0639 -0.8305  0.6602
   79SLPC  C216 7292   7.195   4.072   4.432  0.7568 -0.1603  0.7934
   79SLPC  H16R 7293   7.131   4.123   4.356  2.1746  1.0461  0.3954
   79SLPC  H16S 7294   7.161   3.967   4.417  0.7530 -0.1435  0.6858
   79SLPC  C217 7295   7.349   4.072   4.396 -0.0392  0.7337  0.0385
   79SLPC  H17R 7296   7.370   4.037   4.293  0.6791  0.1514  0.3788
   79SLPC  H17S 7297   7.399   4.000   4.464 -2.5163  0.4525  1.6572
   79SLPC  C218 7298   7.411   4.214   4.402 -0.8850 -0.1980 -0.1954
   79SLPC  H18R 7299   7.522   4.209   4.403 -0.8508  0.6376  0.7831
   79SLPC  H18S 7300   7.388   4.269   4.496  0.2055  0.7695 -0.4824
   79SLPC  H18T 7301   7.390   4.293   4.326 -1.7678  0.8474  1.1185
   79SLPC   C33 7302   7.555   4.554   5.379 -0.4707 -0.3393  0.1191
   79SLPC   H3X 7303   7.473   4.508   5.319  0.1532 -0.2779 -0.7933
   79SLPC   H3Y 7304   7.616   4.470   5.418 -0.2627 -1.1594 -1.8858
   79SLPC   C34 7305   7.648   4.631   5.287 -0.5914  0.7772 -1.0474
   79SLPC   H4X 7306   7.722   4.688   5.347  1.3765  0.8136 -3.4087
   79SLPC   H4Y 7307   7.598   4.711   5.229 -0.4296 -0.3756 -2.8584
   79SLPC   C35 7308   7.726   4.527   5.195  0.5826 -0.4482 -1.1260
   79SLPC   H5X 7309   7.779   4.459   5.265 -1.0014  2.1945  2.7794
   79SLPC   H5Y 7310   7.800   4.587   5.137  1.1923  1.2188  1.2872
   79SLPC   C36 7311   7.639   4.456   5.098 -0.4387 -0.1107  0.7720
   79SLPC   H6X 7312   7.547   4.517   5.082  0.0901  0.5104  0.1010
   79SLPC   H6Y 7313   7.607   4.361   5.146  1.5720 -0.9550  0.4893
   79SLPC   C37 7314   7.702   4.424   4.962 -0.2633  0.2682 -0.0707
   79SLPC   H7X 7315   7.720   4.520   4.908  0.9906 -0.7727 -1.5494
   79SLPC   H7Y 7316   7.625   4.387   4.891 -1.2306  2.2104 -0.0859
   79SLPC   C38 7317   7.834   4.346   4.969 -0.2681  1.0716 -0.0454
   79SLPC   H8X 7318   7.811   4.267   5.044  0.4841  0.4782 -0.4350
   79SLPC   H8Y 7319   7.923   4.396   5.011  0.0121  0.0655  0.5779
   79SLPC   C39 7320   7.850   4.269   4.837 -0.3010 -0.1409  0.4907
   79SLPC   H9X 7321   7.760   4.204   4.829  2.4903 -4.0819 -0.3335
   79SLPC   H9Y 7322   7.942   4.208   4.830 -0.0975  0.2423 -0.1756
   79SLPC  C310 7323   7.871   4.368   4.712  0.3993  0.6687 -1.3208
   79SLPC  H10X 7324   7.979   4.386   4.697  1.2818 -3.1012  0.0364
   79SLPC  H10Y 7325   7.810   4.460   4.729  2.7441  1.8705  0.8884
   79SLPC  C311 7326   7.817   4.304   4.590 -0.0622  0.7129 -0.3393
   79SLPC  H11X 7327   7.708   4.288   4.605  0.0213  0.0350 -0.4157
   79SLPC  H11Y 7328   7.870   4.206   4.594  0.3359  0.8546 -1.7276
   79SLPC  C312 7329   7.848   4.367   4.452  0.3762 -0.2695  0.2739
   79SLPC  H12X 7330   7.856   4.287   4.374 -2.5100 -2.3369  2.0089
   79SLPC  H12Y 7331   7.951   4.408   4.464 -0.4962  2.0198  0.2035
   79SLPC  C313 7332   7.745   4.464   4.408  0.1096 -0.2686 -0.2545
   79SLPC  H13X 7333   7.756   4.558   4.467  1.6029 -1.2609  1.0931
   79SLPC  H13Y 7334   7.648   4.412   4.427  0.2516 -1.1456 -1.8411
   79SLPC  C314 7335   7.772   4.502   4.265  0.1096  0.4832 -0.5239
   79SLPC  H14X 7336   7.728   4.422   4.202 -0.7924  0.1491  0.5295
   79SLPC  H14Y 7337   7.881   4.510   4.241 -0.1229  1.1172 -1.4202
   79SLPC  C315 7338   7.711   4.638   4.222 -0.4763 -0.4924 -0.2323
   79SLPC  H15X 7339   7.724   4.651   4.112  1.6925 -0.3816  0.0154
   79SLPC  H15Y 7340   7.768   4.711   4.283  0.8585  1.4012 -3.6095
   79SLPC  C316 7341   7.561   4.643   4.239 -0.1401 -0.2385 -0.4500
   79SLPC  H16X 7342   7.524   4.621   4.342 -0.8750 -2.2211 -1.1134
   79SLPC  H16Y 7343   7.514   4.561   4.181  0.9672 -1.2749  0.0840
   79SLPC  C317 7344   7.503   4.781   4.200  0.4637 -0.8316 -0.2237
   79SLPC  H17X 7345   7.527   4.803   4.093 -0.0191 -0.4904 -0.2663
   79SLPC  H17Y 7346   7.539   4.856   4.273 -2.4711 -1.6444  2.1419
   79SLPC  C318 7347   7.348   4.776   4.218  0.5045 -0.0347 -0.9440
   79SLPC  H18X 7348   7.298   4.869   4.183  0.6407  0.4649  0.1530
   79SLPC  H18Y 7349   7.319   4.768   4.325  0.6045  1.3373 -0.7958
   79SLPC  H18Z 7350   7.300   4.698   4.156  0.7497 -1.9498  1.2163
   80SLPC     N 7351   5.949   7.011   5.877  0.4298  0.5809 -0.4447
   80SLPC   C13 7352   5.821   7.094   5.881 -0.0991 -0.9659 -0.0874
   80SLPC  H13A 7353   5.747   7.057   5.951  0.7535 -1.9283  0.3270
   80SLPC  H13B 7354   5.845   7.199   5.885 -0.8515 -0.7957  0.0850
   80SLPC  H13C 7355   5.760   7.078   5.794 -1.3764 -0.9276  0.7786
   80SLPC   C14 7356   6.039   7.055   5.768  0.1841 -0.1610  0.2529
   80SLPC  H14A 7357   6.070   7.158   5.774 -0.3777  0.1130 -1.3189
   80SLPC  H14B 7358   6.119   6.983   5.761  1.9045  1.0353  5.4398
   80SLPC  H14C 7359   5.993   7.060   5.670  2.0998 -2.1021 -0.7918
   80SLPC   C15 7360   5.906   6.869   5.860 -0.3303 -0.8627 -0.5000
   80SLPC  H15A 7361   5.995   6.807   5.848  0.3034  0.1951 -1.3250
   80SLPC  H15B 7362   5.848   6.846   5.948 -0.2833  1.0017  0.0306
   80SLPC  H15C 7363   5.844   6.862   5.772 -2.1317 -1.1208  0.7810
   80SLPC   C12 7364   6.026   7.016   6.008  0.5374  0.3443  0.1651
   80SLPC  H12A 7365   6.106   6.943   6.012  0.6998  0.6091  3.5290
   80SLPC  H12B 7366   5.959   6.988   6.089  0.8992  0.3299  0.4579
   80SLPC   C11 7367   6.098   7.148   6.048 -0.2852 -0.2796 -0.3065
   80SLPC  H11A 7368   6.173   7.174   5.972 -2.0009  2.0674 -1.2395
   80SLPC  H11B 7369   6.157   7.134   6.141 -1.0742 -1.9531 -0.0262
   80SLPC     P 7370   5.990   7.399   6.002 -0.2632 -0.4199  0.1387
   80SLPC   O13 7371   5.874   7.473   6.053 -0.5524  0.0230  0.1037
   80SLPC   O14 7372   6.118   7.465   6.018 -0.2289  0.2688 -0.0816
   80SLPC   O12 7373   5.997   7.251   6.065 -0.4535 -0.1819  0.1735
   80SLPC   O11 7374   5.968   7.363   5.851  0.2099  0.0919  0.7528
   80SLPC    C1 7375   6.028   7.439   5.745 -0.0160  0.6385 -0.2290
   80SLPC    HA 7376   6.106   7.512   5.772 -1.9713  2.0407  1.8980
   80SLPC    HB 7377   6.074   7.368   5.674 -0.4336 -0.3369  0.4460
   80SLPC    C2 7378   5.917   7.515   5.662  0.0151 -0.2168  0.8679
   80SLPC    HS 7379   5.872   7.590   5.731 -1.4523  0.4907 -0.8272
   80SLPC   O21 7380   5.818   7.425   5.607 -0.5711 -0.3384  0.0787
   80SLPC   C21 7381   5.690   7.454   5.631 -0.4530 -0.2243  0.0536
   80SLPC   O22 7382   5.658   7.561   5.681  0.5829  0.1257 -0.5339
   80SLPC   C22 7383   5.588   7.339   5.607  0.4962  0.3435 -0.6750
   80SLPC   H2R 7384   5.626   7.259   5.540 -1.0155  0.8453 -2.1617
   80SLPC   H2S 7385   5.556   7.301   5.706 -1.7117  1.0500 -1.0871
   80SLPC    C3 7386   5.984   7.582   5.533  0.1500  0.4473  0.2386
   80SLPC    HX 7387   6.013   7.496   5.469 -2.0101 -0.1844  0.0557
   80SLPC    HY 7388   6.080   7.632   5.558  1.0724 -0.2622 -1.7776
   80SLPC   O31 7389   5.889   7.673   5.465  0.3732  0.3264 -0.1037
   80SLPC   C31 7390   5.855   7.779   5.525  0.1938 -0.4598 -0.1337
   80SLPC   O32 7391   5.917   7.841   5.610  0.3815 -0.7943 -0.4460
   80SLPC   C32 7392   5.727   7.833   5.474  1.0441 -0.1504 -0.1329
   80SLPC   H2X 7393   5.722   7.941   5.500 -2.2872 -0.0736 -0.8942
   80SLPC   H2Y 7394   5.648   7.780   5.531 -0.2416  1.0708 -0.7637
   80SLPC   C23 7395   5.455   7.394   5.542  0.5927  0.1262 -0.8746
   80SLPC   H3R 7396   5.452   7.504   5.553  0.5292  0.3766 -3.0880
   80SLPC   H3S 7397   5.363   7.356   5.591  1.5347  0.2819  1.0431
   80SLPC   C24 7398   5.442   7.361   5.397 -0.5407 -0.0753  0.2907
   80SLPC   H4R 7399   5.460   7.252   5.380  2.3901  0.2915  0.8188
   80SLPC   H4S 7400   5.521   7.407   5.334 -1.2427 -0.3393 -0.7964
   80SLPC   C25 7401   5.305   7.393   5.332  0.1723 -0.0074 -0.0596
   80SLPC   H5R 7402   5.295   7.502   5.311  1.3305 -0.2615 -2.0684
   80SLPC   H5S 7403   5.218   7.371   5.397  0.7597  0.4882  0.9113
   80SLPC   C26 7404   5.273   7.319   5.207  0.0266 -0.0787  0.5713
   80SLPC   H6R 7405   5.173   7.335   5.162 -0.0202 -1.9781 -0.0285
   80SLPC   H6S 7406   5.255   7.213   5.233 -1.5599  0.5461  2.1274
   80SLPC   C27 7407   5.373   7.340   5.093  0.1081  0.2826 -0.5717
   80SLPC   H7R 7408   5.343   7.274   5.010  0.9592  1.1826 -1.6218
   80SLPC   H7S 7409   5.476   7.309   5.124  0.2762 -1.1225 -2.4608
   80SLPC   C28 7410   5.383   7.482   5.044  0.0262  0.5846  0.7506
   80SLPC   H8R 7411   5.388   7.555   5.128 -1.3419  1.8346 -0.2179
   80SLPC   H8S 7412   5.289   7.520   4.998  1.3644  0.1927 -2.3977
   80SLPC   C29 7413   5.492   7.508   4.941 -0.4900 -0.1334  0.0844
   80SLPC   H9R 7414   5.588   7.534   4.988  0.6003 -1.4282 -1.3615
   80SLPC  C210 7415   5.483   7.504   4.808 -0.0930  0.1374 -0.0185
   80SLPC  H10R 7416   5.572   7.526   4.747 -2.0012  2.0667 -2.1545
   80SLPC  C211 7417   5.363   7.472   4.728 -0.4063  0.3791 -0.5518
   80SLPC  H11R 7418   5.280   7.466   4.801 -1.2672 -0.0753 -1.5594
   80SLPC  H11S 7419   5.376   7.370   4.685  1.2740 -0.0125  0.7949
   80SLPC  C212 7420   5.333   7.564   4.608 -0.4497  0.3318 -0.3164
   80SLPC  H12R 7421   5.378   7.664   4.622  1.7759 -0.9982  2.5158
   80SLPC  C213 7422   5.264   7.545   4.495  0.0391  0.2925  0.6884
   80SLPC  H13R 7423   5.236   7.631   4.431 -2.1024 -0.2262  0.8880
   80SLPC  C214 7424   5.198   7.410   4.454 -0.2424  0.2215 -0.3961
   80SLPC  H14R 7425   5.207   7.338   4.538  0.9092 -0.8272 -1.3963
   80SLPC  H14S 7426   5.261   7.369   4.372  1.3377 -0.8464  1.3249
   80SLPC  C215 7427   5.052   7.417   4.395 -0.2377  0.0453 -0.6604
   80SLPC  H15R 7428   4.982   7.458   4.471  1.9480  0.6648  1.0817
   80SLPC  H15S 7429   5.023   7.312   4.374  1.8161 -0.2890 -1.9796
   80SLPC  C216 7430   5.047   7.489   4.261  0.1550  0.2914 -0.3048
   80SLPC  H16R 7431   5.107   7.433   4.185  0.0373  0.9282 -0.8808
   80SLPC  H16S 7432   5.104   7.585   4.269  2.0205 -0.9060  1.3136
   80SLPC  C217 7433   4.911   7.514   4.206  0.8540  0.1205 -0.1310
   80SLPC  H17R 7434   4.855   7.583   4.272  0.1391  0.3658 -0.9865
   80SLPC  H17S 7435   4.857   7.418   4.196 -1.2399  1.2635 -0.0103
   80SLPC  C218 7436   4.919   7.579   4.068 -0.1628 -0.3375  0.5401
   80SLPC  H18R 7437   4.942   7.497   3.996 -1.9511 -0.4661  0.0969
   80SLPC  H18S 7438   4.994   7.661   4.063 -0.2283 -0.3444 -0.5831
   80SLPC  H18T 7439   4.824   7.634   4.051 -0.4449 -0.9079  0.2481
   80SLPC   C33 7440   5.712   7.812   5.321  0.5645 -0.5606 -0.6021
   80SLPC   H3X 7441   5.700   7.706   5.289  3.5075 -0.6442 -1.6036
   80SLPC   H3Y 7442   5.801   7.862   5.277  0.4641  0.7403  0.6382
   80SLPC   C34 7443   5.589   7.887   5.271  0.6144 -0.4847 -0.3183
   80SLPC   H4X 7444   5.604   7.997   5.280  0.1804 -0.6090  2.0726
   80SLPC   H4Y 7445   5.505   7.861   5.339  0.1214  0.0837 -0.6952
   80SLPC   C35 7446   5.547   7.849   5.131  0.4042 -0.2783 -0.0014
   80SLPC   H5X 7447   5.540   7.739   5.136  3.0792 -0.4174  1.6744
   80SLPC   H5Y 7448   5.621   7.876   5.053  0.4361  0.0400  0.1380
   80SLPC   C36 7449   5.412   7.900   5.085 -0.1002 -0.1420  0.8255
   80SLPC   H6X 7450   5.406   8.005   5.121 -1.8522  0.5196 -1.3024
   80SLPC   H6Y 7451   5.327   7.843   5.128 -2.4897  1.7913 -1.1278
   80SLPC   C37 7452   5.390   7.899   4.937 -0.3020 -0.1785  0.5375
   80SLPC   H7X 7453   5.338   7.803   4.912  1.6347 -0.9247 -0.7507
   80SLPC   H7Y 7454   5.492   7.897   4.893 -0.3256 -0.6979  0.5034
   80SLPC   C38 7455   5.318   8.021   4.876 -0.1708  0.8761 -0.1525
   80SLPC   H8X 7456   5.354   8.115   4.923 -2.0934  0.8623  1.4056
   80SLPC   H8Y 7457   5.207   8.014   4.876 -0.1848  0.9538  1.1308
   80SLPC   C39 7458   5.365   8.042   4.734  0.2503 -0.2250  0.5671
   80SLPC   H9X 7459   5.339   7.953   4.673  1.1881 -0.9755  1.2330
   80SLPC   H9Y 7460   5.475   8.056   4.728  0.3497 -1.0083  0.4209
   80SLPC  C310 7461   5.283   8.156   4.670  0.3818  0.1620 -0.1266
   80SLPC  H10X 7462   5.299   8.256   4.715  2.6350 -0.0531 -0.3819
   80SLPC  H10Y 7463   5.180   8.129   4.701  1.9173 -3.2367  2.4461
   80SLPC  C311 7464   5.294   8.154   4.517 -0.1589 -0.1744  0.3653
   80SLPC  H11X 7465   5.253   8.056   4.485  1.4994 -0.5519 -0.6499
   80SLPC  H11Y 7466   5.398   8.141   4.482 -0.6384 -2.3301 -0.3106
   80SLPC  C312 7467   5.229   8.282   4.448  0.6481 -0.5271 -0.4577
   80SLPC  H12X 7468   5.255   8.374   4.506  0.4605 -0.9305  0.2687
   80SLPC  H12Y 7469   5.119   8.273   4.464  0.6234  0.2839 -0.1440
   80SLPC  C313 7470   5.265   8.303   4.301 -0.6922 -0.1331  0.1474
   80SLPC  H13X 7471   5.373   8.324   4.289 -0.8345 -0.1867 -1.4567
   80SLPC  H13Y 7472   5.233   8.409   4.286 -0.4159 -0.0777 -0.0617
   80SLPC  C314 7473   5.208   8.212   4.192  0.5943  0.5162  0.8210
   80SLPC  H14X 7474   5.233   8.104   4.205 -0.3454  0.1859  0.0329
   80SLPC  H14Y 7475   5.237   8.238   4.088 -4.1212 -3.0911 -1.6595
   80SLPC  C315 7476   5.051   8.210   4.190  0.2511  0.3752 -0.3090
   80SLPC  H15X 7477   5.003   8.310   4.174  0.5474  0.9426  2.0828
   80SLPC  H15Y 7478   5.008   8.174   4.286  2.6866  1.3272  1.1895
   80SLPC  C316 7479   4.991   8.104   4.093  0.4660 -0.7178  0.1530
   80SLPC  H16X 7480   5.035   8.003   4.111 -0.0887 -0.8561  0.7447
   80SLPC  H16Y 7481   5.005   8.133   3.987 -2.6986  0.4004 -0.0064
   80SLPC  C317 7482   4.841   8.087   4.119  0.3718  0.1241 -0.4610
   80SLPC  H17X 7483   4.780   8.175   4.091 -0.9273 -0.6319 -0.0458
   80SLPC  H17Y 7484   4.816   8.064   4.225  3.0747 -0.2216  0.1475
   80SLPC  C318 7485   4.775   7.970   4.041 -0.2961 -0.0624  0.4623
   80SLPC  H18X 7486   4.664   7.970   4.047 -0.2450 -0.0404  1.3958
   80SLPC  H18Y 7487   4.820   7.873   4.070 -1.3036 -0.7310 -0.1667
   80SLPC  H18Z 7488   4.801   7.987   3.934  1.4440  0.7876  0.9995
   81SLPC     N 7489   4.272   3.916   2.769 -0.2038  0.5420 -0.5932
   81SLPC   C13 7490   4.388   3.952   2.858  0.3455  0.9199  1.0387
   81SLPC  H13A 7491   4.473   3.893   2.826 -0.6748 -0.5196  0.9659
   81SLPC  H13B 7492   4.412   4.057   2.849  1.5680  0.4736 -1.4965
   81SLPC  H13C 7493   4.371   3.926   2.961 -0.8564  1.0752  0.8821
   81SLPC   C14 7494   4.163   4.002   2.809  0.3279 -0.2342 -0.7432
   81SLPC  H14A 7495   4.070   3.984   2.757  0.3379 -2.2388 -0.1222
   81SLPC  H14B 7496   4.143   4.007   2.915  1.0887 -1.9901 -0.5111
   81SLPC  H14C 7497   4.185   4.105   2.785 -0.9561  0.3447  0.4981
   81SLPC   C15 7498   4.239   3.774   2.788 -0.8685  0.0839  0.1708
   81SLPC  H15A 7499   4.206   3.755   2.890 -1.4139 -1.8226 -0.3304
   81SLPC  H15B 7500   4.151   3.746   2.731 -1.2772 -0.0933  0.8759
   81SLPC  H15C 7501   4.307   3.695   2.760 -1.1906 -0.4543  0.8734
   81SLPC   C12 7502   4.295   3.951   2.620  0.2575 -0.7561  0.3613
   81SLPC  H12A 7503   4.204   3.924   2.568  0.8526 -1.2726 -0.4269
   81SLPC  H12B 7504   4.370   3.890   2.572  1.5178  1.1844 -0.1771
   81SLPC   C11 7505   4.342   4.095   2.573 -0.2461  0.1155  0.7586
   81SLPC  H11A 7506   4.336   4.092   2.462  0.2080 -0.3572  0.7463
   81SLPC  H11B 7507   4.447   4.117   2.601  0.4069 -0.5295 -1.1303
   81SLPC     P 7508   4.313   4.332   2.650  0.3515 -0.4496  0.4788
   81SLPC   O13 7509   4.393   4.325   2.772  0.0367  0.1586  0.1888
   81SLPC   O14 7510   4.368   4.377   2.523 -0.0796 -0.7220  0.2054
   81SLPC   O12 7511   4.248   4.187   2.633 -0.3778 -0.0226  0.3702
   81SLPC   O11 7512   4.173   4.407   2.670  0.2482 -0.7159  0.8511
   81SLPC    C1 7513   4.072   4.345   2.750 -0.3591 -1.2771  0.2687
   81SLPC    HA 7514   3.979   4.400   2.726 -0.0162 -0.4267  0.8556
   81SLPC    HB 7515   4.050   4.238   2.730  1.9113 -2.0702  1.7888
   81SLPC    C2 7516   4.087   4.371   2.906 -0.7043 -1.1157 -0.2900
   81SLPC    HS 7517   4.137   4.470   2.912  0.1848 -1.4863 -1.3702
   81SLPC   O21 7518   4.164   4.264   2.962 -0.1407 -0.2661 -0.2380
   81SLPC   C21 7519   4.219   4.302   3.073  0.3888  0.2444 -0.1521
   81SLPC   O22 7520   4.207   4.413   3.129 -0.2877 -0.5194  0.0078
   81SLPC   C22 7521   4.308   4.193   3.128 -0.2884  0.5485 -0.5583
   81SLPC   H2R 7522   4.347   4.141   3.038  1.0293 -1.6330  1.2086
   81SLPC   H2S 7523   4.397   4.245   3.168 -0.5177 -0.3938  1.2018
   81SLPC    C3 7524   3.949   4.386   2.983 -0.8217  0.1728 -0.0143
   81SLPC    HX 7525   3.881   4.454   2.928 -1.4443  1.7422  2.6168
   81SLPC    HY 7526   3.967   4.447   3.074 -1.0979 -0.2082  0.2958
   81SLPC   O31 7527   3.893   4.260   3.028  0.5074  0.2286  0.3976
   81SLPC   C31 7528   3.817   4.202   2.933 -0.1506  0.0445 -0.2664
   81SLPC   O32 7529   3.806   4.247   2.823  0.7930  0.3230  0.4106
   81SLPC   C32 7530   3.783   4.063   2.984 -0.2741 -0.1235 -0.3187
   81SLPC   H2X 7531   3.770   3.996   2.897  1.9192 -0.6659 -0.2582
   81SLPC   H2Y 7532   3.682   4.070   3.029 -0.0070  0.0827  0.2560
   81SLPC   C23 7533   4.238   4.099   3.228  0.0921 -0.1202  0.7036
   81SLPC   H3R 7534   4.292   4.003   3.212  0.7672  0.5969 -1.4888
   81SLPC   H3S 7535   4.129   4.091   3.207  0.4148 -0.9439 -0.7242
   81SLPC   C24 7536   4.264   4.143   3.374  0.5267  0.1964  0.3971
   81SLPC   H4R 7537   4.370   4.176   3.375  0.8079 -0.7139  0.3120
   81SLPC   H4S 7538   4.256   4.066   3.453 -1.8603 -0.3964 -0.3812
   81SLPC   C25 7539   4.165   4.251   3.424  0.0272 -0.5001  0.3897
   81SLPC   H5R 7540   4.065   4.214   3.395  0.6950 -0.7115 -1.7354
   81SLPC   H5S 7541   4.171   4.352   3.379  0.2644 -0.6657  0.0490
   81SLPC   C26 7542   4.191   4.286   3.566  0.3721 -0.5052  0.0156
   81SLPC   H6R 7543   4.127   4.373   3.591  1.6187  0.7809 -1.1445
   81SLPC   H6S 7544   4.296   4.323   3.575 -0.2193  1.2780 -0.3379
   81SLPC   C27 7545   4.163   4.184   3.673  0.0168 -0.0104  0.0114
   81SLPC   H7R 7546   4.189   4.218   3.776 -0.1575  2.2064 -0.6321
   81SLPC   H7S 7547   4.225   4.096   3.647 -0.5916 -0.3253 -0.3977
   81SLPC   C28 7548   4.019   4.131   3.674 -0.0226 -0.5537 -0.5387
   81SLPC   H8R 7549   3.996   4.082   3.577  1.3596 -0.8508 -0.7236
   81SLPC   H8S 7550   3.944   4.213   3.678  0.5204 -0.0033 -1.4923
   81SLPC   C29 7551   3.997   4.039   3.797 -0.4678 -0.1484 -0.0878
   81SLPC   H9R 7552   4.036   3.937   3.784 -2.6771 -1.0354 -0.0052
   81SLPC  C210 7553   3.918   4.072   3.904 -0.0207 -0.3078 -0.6613
   81SLPC  H10R 7554   3.896   3.998   3.982  2.4790  0.2511  0.6430
   81SLPC  C211 7555   3.847   4.208   3.921  0.1213 -0.1795  0.2609
   81SLPC  H11R 7556   3.772   4.201   3.840  0.3871  2.2762 -0.2437
   81SLPC  H11S 7557   3.919   4.292   3.906  1.2725 -0.9631  1.2512
   81SLPC  C212 7558   3.777   4.225   4.050  0.0991  0.2338 -0.2616
   81SLPC  H12R 7559   3.669   4.202   4.052 -0.4116  2.6115  0.3895
   81SLPC  C213 7560   3.830   4.269   4.162  0.6992  0.1692  0.0820
   81SLPC  H13R 7561   3.769   4.303   4.248  0.1149  2.0621 -1.0568
   81SLPC  C214 7562   3.975   4.310   4.176 -0.3268 -0.5718 -0.3532
   81SLPC  H14R 7563   4.019   4.356   4.085 -0.4849  0.1984 -0.0459
   81SLPC  H14S 7564   4.023   4.210   4.171 -1.7841 -1.2571 -0.9080
   81SLPC  C215 7565   4.010   4.390   4.303  0.3201  0.1265  0.6100
   81SLPC  H15R 7566   3.936   4.471   4.320 -1.2022 -0.7593 -1.5730
   81SLPC  H15S 7567   4.108   4.438   4.281  0.1367  1.0251  1.6624
   81SLPC  C216 7568   4.031   4.301   4.428  0.6323  0.0580 -0.1420
   81SLPC  H16R 7569   3.946   4.229   4.427  0.5712  0.1364 -0.8591
   81SLPC  H16S 7570   4.031   4.368   4.517 -0.1364  0.8451 -0.7259
   81SLPC  C217 7571   4.166   4.222   4.428  0.9060 -0.4130  0.7313
   81SLPC  H17R 7572   4.244   4.300   4.423  1.6107 -1.2513 -2.7604
   81SLPC  H17S 7573   4.187   4.169   4.333 -0.3505  0.8101 -0.2519
   81SLPC  C218 7574   4.185   4.123   4.538  0.0756 -0.3342 -0.4568
   81SLPC  H18R 7575   4.148   4.164   4.634  0.4625 -2.8742  0.8089
   81SLPC  H18S 7576   4.289   4.101   4.571  0.3295  0.7273 -0.5437
   81SLPC  H18T 7577   4.130   4.028   4.523 -0.4252 -0.1512  0.1944
   81SLPC   C33 7578   3.875   3.996   3.088 -0.2263  0.3102  0.1604
   81SLPC   H3X 7579   3.864   4.045   3.187 -1.2950  0.1782  0.1079
   81SLPC   H3Y 7580   3.979   4.003   3.049  0.3487  1.9409  1.8979
   81SLPC   C34 7581   3.847   3.845   3.108 -0.6828 -0.3859 -0.5895
   81SLPC   H4X 7582   3.845   3.803   3.005 -0.6230 -1.1919 -0.2610
   81SLPC   H4Y 7583   3.750   3.831   3.160 -0.2221 -0.4932  0.2317
   81SLPC   C35 7584   3.944   3.755   3.184  0.1058 -0.4572 -0.2586
   81SLPC   H5X 7585   4.047   3.784   3.156 -0.4574  1.6315 -0.2470
   81SLPC   H5Y 7586   3.921   3.652   3.148  2.3939 -1.2742  0.5304
   81SLPC   C36 7587   3.928   3.764   3.338 -0.3839  0.8297 -0.1332
   81SLPC   H6X 7588   3.821   3.785   3.361  0.0239  1.1016  1.5206
   81SLPC   H6Y 7589   3.986   3.854   3.367  0.8859 -0.4821  1.4354
   81SLPC   C37 7590   3.968   3.630   3.412  0.5257 -0.5349  0.5697
   81SLPC   H7X 7591   4.070   3.602   3.377 -0.1632  0.7467 -2.5941
   81SLPC   H7Y 7592   3.899   3.548   3.380  1.1571 -1.4744  1.5768
   81SLPC   C38 7593   3.946   3.643   3.564  0.2003  0.6535  0.1732
   81SLPC   H8X 7594   3.838   3.664   3.573  0.2454  0.3582  1.5753
   81SLPC   H8Y 7595   3.994   3.722   3.625  2.2325 -1.1905  1.0445
   81SLPC   C39 7596   3.965   3.505   3.628 -0.2995 -0.1200  0.2383
   81SLPC   H9X 7597   4.073   3.487   3.608 -0.3917  2.0880 -2.6701
   81SLPC   H9Y 7598   3.897   3.432   3.580 -1.9812  0.0007  2.3964
   81SLPC  C310 7599   3.930   3.495   3.771  0.3529  0.1770 -0.4234
   81SLPC  H10X 7600   3.830   3.536   3.800  0.7404  1.1839 -0.4827
   81SLPC  H10Y 7601   3.996   3.570   3.819 -2.6282  0.7810  2.9401
   81SLPC  C311 7602   3.953   3.356   3.837 -0.1820 -0.5181  0.2133
   81SLPC  H11X 7603   4.060   3.337   3.816 -0.6785 -0.3207 -2.7156
   81SLPC  H11Y 7604   3.883   3.282   3.792 -1.3055  0.9162 -0.4465
   81SLPC  C312 7605   3.919   3.358   3.989  0.8125  0.2796  0.3671
   81SLPC  H12X 7606   3.811   3.374   4.013  1.2875  1.3478  1.8035
   81SLPC  H12Y 7607   3.971   3.436   4.047 -1.0993  0.9932  1.1689
   81SLPC  C313 7608   3.952   3.224   4.054  0.8365 -0.1239  0.6234
   81SLPC  H13X 7609   3.913   3.138   3.997  0.5914  0.3346  0.0933
   81SLPC  H13Y 7610   3.897   3.216   4.150  0.0393  2.0147  0.3716
   81SLPC  C314 7611   4.096   3.196   4.093  0.4746 -0.0273 -0.2489
   81SLPC  H14X 7612   4.131   3.268   4.169 -1.9076  1.0552 -0.1162
   81SLPC  H14Y 7613   4.143   3.220   3.995  1.1234  0.6882  0.2327
   81SLPC  C315 7614   4.118   3.052   4.129 -0.0429 -0.7946  0.0598
   81SLPC  H15X 7615   4.092   2.995   4.038 -0.4753 -0.6537  0.0964
   81SLPC  H15Y 7616   4.048   3.017   4.207  0.3488  1.7917  1.6451
   81SLPC  C316 7617   4.265   3.010   4.162  0.2904 -0.6086  0.2651
   81SLPC  H16X 7618   4.339   3.056   4.093 -0.9309  0.0113 -0.6590
   81SLPC  H16Y 7619   4.284   2.901   4.150  0.3528 -0.6071  0.3531
   81SLPC  C317 7620   4.305   3.024   4.310  0.6478 -0.3442  0.2817
   81SLPC  H17X 7621   4.226   2.974   4.371 -0.4571 -0.2025 -0.9969
   81SLPC  H17Y 7622   4.295   3.132   4.335  0.4063 -0.6718  1.6473
   81SLPC  C318 7623   4.443   2.980   4.362  0.4719  0.3557 -0.0070
   81SLPC  H18X 7624   4.439   2.870   4.376 -2.6764  0.7633  3.0729
   81SLPC  H18Y 7625   4.458   3.019   4.465  0.8672 -0.6092  0.3047
   81SLPC  H18Z 7626   4.525   3.009   4.292  0.5647  0.1811  0.0295
   82SLPC     N 7627   3.153   3.427   2.278 -0.3730  0.3648 -0.0070
   82SLPC   C13 7628   3.105   3.560   2.240  0.0102  0.5340  0.1884
   82SLPC  H13A 7629   3.146   3.635   2.306  0.7237 -0.7215  1.1962
   82SLPC  H13B 7630   3.134   3.589   2.140 -2.2581  1.4660 -0.2160
   82SLPC  H13C 7631   2.998   3.569   2.248 -0.2358 -1.7969 -0.2425
   82SLPC   C14 7632   3.298   3.413   2.241 -0.4756  1.2126  0.4075
   82SLPC  H14A 7633   3.332   3.310   2.248 -0.1541  1.2904 -0.0050
   82SLPC  H14B 7634   3.321   3.446   2.141  0.5905 -0.4826  0.0725
   82SLPC  H14C 7635   3.363   3.478   2.296  0.6667 -0.6105  1.2583
   82SLPC   C15 7636   3.077   3.331   2.187  0.3652  0.1411 -0.0822
   82SLPC  H15A 7637   3.105   3.352   2.084  0.8282  1.3010  0.2713
   82SLPC  H15B 7638   3.094   3.229   2.217 -1.8205  0.8132  3.7302
   82SLPC  H15C 7639   2.976   3.368   2.202  0.0362 -0.8501  0.1505
   82SLPC   C12 7640   3.125   3.381   2.422 -0.5443  0.0599  0.3451
   82SLPC  H12A 7641   3.176   3.289   2.447 -1.8456 -0.4541  1.1596
   82SLPC  H12B 7642   3.023   3.348   2.424 -0.5087 -0.2688 -1.7034
   82SLPC   C11 7643   3.140   3.484   2.543  0.2756  0.2846  0.6214
   82SLPC  H11A 7644   3.250   3.502   2.542  0.5663 -1.4000 -0.5964
   82SLPC  H11B 7645   3.115   3.417   2.628  0.5737 -1.3129 -0.5316
   82SLPC     P 7646   3.107   3.740   2.568  0.2171  0.0053  0.0319
   82SLPC   O13 7647   3.250   3.737   2.558 -0.3942 -0.0181  0.2221
   82SLPC   O14 7648   3.033   3.843   2.499  0.6866  0.2339 -0.2873
   82SLPC   O12 7649   3.049   3.602   2.535 -0.5307  0.1651 -0.5470
   82SLPC   O11 7650   3.069   3.760   2.717 -0.4654 -0.5445 -0.0002
   82SLPC    C1 7651   2.948   3.696   2.775  0.0621 -0.9458 -0.3640
   82SLPC    HA 7652   2.888   3.771   2.830  1.8281  0.0858  0.2012
   82SLPC    HB 7653   2.880   3.658   2.696 -0.7793 -0.3430  0.0660
   82SLPC    C2 7654   2.988   3.587   2.868 -0.4515  0.1750  0.8014
   82SLPC    HS 7655   3.036   3.501   2.816  0.4493 -0.1476  2.1356
   82SLPC   O21 7656   2.863   3.549   2.940  0.0606  0.2169  0.5959
   82SLPC   C21 7657   2.772   3.477   2.875  0.5894 -0.1701  0.5544
   82SLPC   O22 7658   2.783   3.430   2.763 -0.1027 -0.0344 -0.0759
   82SLPC   C22 7659   2.653   3.455   2.972 -0.7208  0.3385 -0.2010
   82SLPC   H2R 7660   2.564   3.449   2.906 -0.3880 -2.6996 -0.4788
   82SLPC   H2S 7661   2.671   3.360   3.027  0.9503 -0.0678 -1.3916
   82SLPC    C3 7662   3.092   3.628   2.974  0.1670  0.3110 -0.3095
   82SLPC    HX 7663   3.183   3.654   2.915 -0.5288 -0.8897 -1.9200
   82SLPC    HY 7664   3.117   3.542   3.040 -1.8006 -0.8326 -1.0378
   82SLPC   O31 7665   3.052   3.746   3.058  0.3845  0.3220  0.4985
   82SLPC   C31 7666   2.988   3.732   3.172  0.3568  0.4903  0.1200
   82SLPC   O32 7667   2.956   3.624   3.228 -0.8456  1.2214  0.0536
   82SLPC   C32 7668   2.953   3.870   3.218  0.6802 -0.4173 -0.9031
   82SLPC   H2X 7669   2.947   3.943   3.135 -0.0420  1.6350  0.9375
   82SLPC   H2Y 7670   3.027   3.904   3.294 -2.1205 -2.3954  2.8404
   82SLPC   C23 7671   2.633   3.570   3.071  0.3283  0.0170  0.0873
   82SLPC   H3R 7672   2.625   3.665   3.015 -0.6698 -1.2808 -2.0496
   82SLPC   H3S 7673   2.708   3.563   3.152 -0.5378 -1.5294  0.7872
   82SLPC   C24 7674   2.498   3.561   3.150 -0.5072 -0.2232  0.9961
   82SLPC   H4R 7675   2.491   3.461   3.197  1.6817 -0.1741  1.4500
   82SLPC   H4S 7676   2.408   3.585   3.090  0.2866  0.1893 -0.0292
   82SLPC   C25 7677   2.516   3.633   3.286 -0.5233 -0.1845  0.3031
   82SLPC   H5R 7678   2.529   3.742   3.270  0.7588 -0.6005 -1.6750
   82SLPC   H5S 7679   2.613   3.603   3.331  0.0049 -1.5116 -1.6381
   82SLPC   C26 7680   2.401   3.612   3.379 -0.4069 -0.4856 -0.0402
   82SLPC   H6R 7681   2.382   3.510   3.417  0.6579  0.7943  4.2970
   82SLPC   H6S 7682   2.310   3.649   3.327 -1.1704 -1.5704  0.5042
   82SLPC   C27 7683   2.413   3.702   3.506  0.2057 -0.5876  0.6706
   82SLPC   H7R 7684   2.322   3.698   3.569  0.4916  0.1441  1.1425
   82SLPC   H7S 7685   2.425   3.808   3.474  1.2702 -1.2304 -1.1320
   82SLPC   C28 7686   2.518   3.658   3.603  0.0667  0.6236 -0.5566
   82SLPC   H8R 7687   2.621   3.676   3.564  0.3568  0.9613  0.3385
   82SLPC   H8S 7688   2.511   3.548   3.616 -1.1685  0.7301 -0.2331
   82SLPC   C29 7689   2.512   3.731   3.735 -0.3606  0.0599 -0.1844
   82SLPC   H9R 7690   2.524   3.841   3.732 -0.1923  0.0436 -0.1259
   82SLPC  C210 7691   2.489   3.677   3.854 -0.1602 -0.2694  0.8418
   82SLPC  H10R 7692   2.507   3.746   3.938 -0.2442  0.3011  0.3897
   82SLPC  C211 7693   2.460   3.531   3.885 -0.3057 -0.4983  0.4100
   82SLPC  H11R 7694   2.543   3.464   3.855  0.9892  0.2516  2.2749
   82SLPC  H11S 7695   2.366   3.499   3.834  0.8927 -2.4938 -0.5868
   82SLPC  C212 7696   2.444   3.510   4.033 -0.3232 -0.1844  0.3289
   82SLPC  H12R 7697   2.344   3.512   4.079 -0.7734  1.5714 -0.6487
   82SLPC  C213 7698   2.542   3.485   4.125  0.0556  0.5064  0.7991
   82SLPC  H13R 7699   2.507   3.465   4.227  0.0075  0.5976  0.8004
   82SLPC  C214 7700   2.693   3.468   4.097 -0.3743 -0.0704  0.2227
   82SLPC  H14R 7701   2.707   3.472   3.987  0.2255 -2.1616  0.2154
   82SLPC  H14S 7702   2.723   3.367   4.132 -1.8191 -0.6127 -0.1022
   82SLPC  C215 7703   2.785   3.572   4.167 -1.1046 -0.2955 -0.2188
   82SLPC  H15R 7704   2.821   3.527   4.262  1.7192  0.6342 -0.7980
   82SLPC  H15S 7705   2.737   3.672   4.174 -0.3387 -0.0140  1.0737
   82SLPC  C216 7706   2.911   3.595   4.077  0.0547  0.0622  0.2062
   82SLPC  H16R 7707   2.882   3.649   3.984  2.1803 -0.7199 -0.9384
   82SLPC  H16S 7708   2.940   3.489   4.059  0.1936 -0.3178  2.5337
   82SLPC  C217 7709   3.022   3.668   4.150  0.3236 -0.0862 -0.0487
   82SLPC  H17R 7710   3.032   3.619   4.249 -0.9274  0.7277  0.4912
   82SLPC  H17S 7711   2.997   3.776   4.163  0.3036 -0.2462  1.2150
   82SLPC  C218 7712   3.146   3.657   4.065 -0.3517  0.4285 -0.2250
   82SLPC  H18R 7713   3.128   3.684   3.959  0.1150 -0.5332 -0.5572
   82SLPC  H18S 7714   3.187   3.554   4.061  1.4728  1.1057  0.5129
   82SLPC  H18T 7715   3.224   3.720   4.112 -0.4976 -0.4780  1.2965
   82SLPC   C33 7716   2.806   3.874   3.290  0.3624 -0.0531  0.6947
   82SLPC   H3X 7717   2.814   3.805   3.377  0.8593  0.2989  0.9326
   82SLPC   H3Y 7718   2.717   3.839   3.234 -0.4760  2.1181  0.6340
   82SLPC   C34 7719   2.755   4.014   3.329  0.5826  0.0893  0.1934
   82SLPC   H4X 7720   2.732   4.075   3.240  2.3741  3.3363  1.8437
   82SLPC   H4Y 7721   2.850   4.058   3.368  1.8265 -0.5548 -2.0392
   82SLPC   C35 7722   2.640   4.022   3.429  0.1161 -0.2959  0.6138
   82SLPC   H5X 7723   2.642   3.931   3.493 -0.9672 -1.0634 -0.4104
   82SLPC   H5Y 7724   2.552   4.015   3.361  1.4877  1.6805 -1.3824
   82SLPC   C36 7725   2.618   4.156   3.507  0.5162  0.3643 -0.6670
   82SLPC   H6X 7726   2.571   4.232   3.440  1.0860 -0.8112 -2.4236
   82SLPC   H6Y 7727   2.715   4.192   3.546  0.8653  0.6958 -1.8251
   82SLPC   C37 7728   2.509   4.138   3.616 -0.2383 -0.0989  0.2491
   82SLPC   H7X 7729   2.535   4.046   3.673  0.1940 -0.7390 -0.9673
   82SLPC   H7Y 7730   2.415   4.121   3.560  0.1816 -4.4218  0.6707
   82SLPC   C38 7731   2.473   4.258   3.697 -0.4238  0.3057 -1.0500
   82SLPC   H8X 7732   2.429   4.343   3.643 -2.5125 -0.9329 -1.3447
   82SLPC   H8Y 7733   2.561   4.292   3.756 -1.3164 -2.3283  1.9578
   82SLPC   C39 7734   2.369   4.222   3.810  0.0832  0.1833 -0.1651
   82SLPC   H9X 7735   2.277   4.193   3.755  0.3311  1.3477 -1.2201
   82SLPC   H9Y 7736   2.340   4.321   3.850  1.3015  0.7092 -0.5813
   82SLPC  C310 7737   2.401   4.126   3.918  0.3295  0.8735  0.0981
   82SLPC  H10X 7738   2.492   4.153   3.976  0.6409 -2.1180  1.1218
   82SLPC  H10Y 7739   2.428   4.026   3.878  0.1202  1.0278 -0.4240
   82SLPC  C311 7740   2.290   4.114   4.024 -0.1869  0.0762  0.0907
   82SLPC  H11X 7741   2.202   4.084   3.963 -1.1965 -1.1251  2.1093
   82SLPC  H11Y 7742   2.283   4.215   4.069 -2.1691  0.4966 -1.0961
   82SLPC  C312 7743   2.324   4.007   4.134 -0.1240  0.1446 -0.4273
   82SLPC  H12X 7744   2.314   3.911   4.079  1.6965 -0.6842  0.6477
   82SLPC  H12Y 7745   2.239   4.011   4.205  1.9944 -1.3521  2.2476
   82SLPC  C313 7746   2.460   4.019   4.211 -0.1135 -0.1828  0.2951
   82SLPC  H13X 7747   2.447   4.106   4.279  1.3520 -0.2364  0.6745
   82SLPC  H13Y 7748   2.544   4.038   4.140 -0.3009  0.3650  0.2154
   82SLPC  C314 7749   2.481   3.890   4.293 -0.7266 -0.3852 -0.9097
   82SLPC  H14X 7750   2.519   3.808   4.228 -1.2269 -0.3425 -1.2638
   82SLPC  H14Y 7751   2.385   3.851   4.333 -3.3790  4.1241 -2.4415
   82SLPC  C315 7752   2.589   3.916   4.394  0.1999 -0.3403 -0.7896
   82SLPC  H15X 7753   2.545   3.988   4.466 -0.4032  0.2651 -1.7604
   82SLPC  H15Y 7754   2.668   3.965   4.333 -0.7880  2.0060 -0.2291
   82SLPC  C316 7755   2.640   3.789   4.464 -0.4781 -0.4929  0.5274
   82SLPC  H16X 7756   2.700   3.722   4.399 -0.3860 -0.4229  0.5408
   82SLPC  H16Y 7757   2.557   3.735   4.516 -0.8624  0.3312  0.7850
   82SLPC  C317 7758   2.733   3.839   4.572 -0.5195 -0.5635  0.0915
   82SLPC  H17X 7759   2.665   3.879   4.650 -0.4660  0.2892 -0.2942
   82SLPC  H17Y 7760   2.801   3.918   4.534 -1.1816  0.5789  1.2426
   82SLPC  C318 7761   2.813   3.733   4.652  0.2214 -0.0287  0.0734
   82SLPC  H18X 7762   2.849   3.785   4.744  0.2062  2.3042 -1.2144
   82SLPC  H18Y 7763   2.906   3.725   4.593  0.0716  0.6215 -0.2555
   82SLPC  H18Z 7764   2.760   3.635   4.650  0.3551 -0.0938 -0.3030
   83SLPC     N 7765   3.990   5.813   2.677  0.3085  0.7946  0.4664
   83SLPC   C13 7766   4.116   5.774   2.606  0.0204 -0.0281 -0.3948
   83SLPC  H13A 7767   4.139   5.669   2.593 -0.0902 -0.2015  0.7395
   83SLPC  H13B 7768   4.122   5.818   2.507 -0.7060  1.3053  0.1393
   83SLPC  H13C 7769   4.197   5.814   2.665  0.4678  0.8439 -1.5885
   83SLPC   C14 7770   3.977   5.959   2.697  0.1711 -0.5585  0.8826
   83SLPC  H14A 7771   3.884   5.974   2.750 -0.7278 -1.7434 -0.3315
   83SLPC  H14B 7772   4.062   5.997   2.752  0.6486  0.3475 -0.4487
   83SLPC  H14C 7773   3.978   6.023   2.611  0.8652 -0.3537  1.0395
   83SLPC   C15 7774   3.978   5.741   2.805  0.0544  0.7386 -0.0413
   83SLPC  H15A 7775   3.886   5.764   2.856  0.3812  0.6558  0.5884
   83SLPC  H15B 7776   3.996   5.636   2.788  0.5996  1.1935 -2.5449
   83SLPC  H15C 7777   4.070   5.758   2.860  0.5448  0.3639 -0.7316
   83SLPC   C12 7778   3.869   5.773   2.594  0.2725  0.0275 -0.3355
   83SLPC  H12A 7779   3.872   5.825   2.500 -1.4416 -0.6371 -0.7755
   83SLPC  H12B 7780   3.777   5.797   2.644 -1.2450 -0.9831 -2.5549
   83SLPC   C11 7781   3.845   5.621   2.556  0.8010  0.2730  0.0789
   83SLPC  H11A 7782   3.927   5.592   2.487 -0.0210 -1.1485 -0.3197
   83SLPC  H11B 7783   3.752   5.636   2.497  3.0025  2.5398 -2.9546
   83SLPC     P 7784   3.695   5.485   2.714 -0.1150  0.4267  0.6725
   83SLPC   O13 7785   3.590   5.587   2.677 -0.0941  0.0261  0.4264
   83SLPC   O14 7786   3.687   5.348   2.657  0.5920 -0.5297 -0.1090
   83SLPC   O12 7787   3.840   5.538   2.675 -0.0060  0.0466  0.4551
   83SLPC   O11 7788   3.708   5.490   2.866 -0.0258 -0.0494  0.9566
   83SLPC    C1 7789   3.811   5.412   2.938  0.2148 -0.0817 -0.0662
   83SLPC    HA 7790   3.903   5.421   2.878 -0.8562 -0.2034 -1.7486
   83SLPC    HB 7791   3.828   5.457   3.038  0.5059 -0.8219  0.2207
   83SLPC    C2 7792   3.787   5.259   2.948 -0.5041  0.4782 -0.0167
   83SLPC    HS 7793   3.765   5.228   2.844  3.2298  0.8145 -0.9934
   83SLPC   O21 7794   3.684   5.228   3.040 -0.4563 -0.3166 -0.0975
   83SLPC   C21 7795   3.597   5.130   3.018 -0.1107 -0.3649  0.4828
   83SLPC   O22 7796   3.584   5.067   2.916  0.2444  0.0676 -0.3750
   83SLPC   C22 7797   3.510   5.104   3.141 -0.5632  0.4089 -0.3665
   83SLPC   H2R 7798   3.457   5.199   3.165  3.0030  2.9560 -2.0899
   83SLPC   H2S 7799   3.449   5.012   3.132 -1.2897  1.0402 -1.9602
   83SLPC    C3 7800   3.904   5.178   2.990  0.3376  0.4011  0.1914
   83SLPC    HX 7801   3.992   5.201   2.928  1.0361 -0.0331  1.0026
   83SLPC    HY 7802   3.868   5.074   2.969 -0.7516  0.8542 -0.2118
   83SLPC   O31 7803   3.927   5.190   3.131  0.1297 -0.3625  0.1268
   83SLPC   C31 7804   4.014   5.287   3.151  0.1907 -0.1660  0.1366
   83SLPC   O32 7805   4.090   5.340   3.074 -0.4594  0.1841 -0.2113
   83SLPC   C32 7806   4.024   5.318   3.303  0.9115  0.1885 -0.1442
   83SLPC   H2X 7807   4.127   5.285   3.330  1.0231  1.7724  1.4539
   83SLPC   H2Y 7808   3.949   5.263   3.363  0.8628 -1.1895 -1.4499
   83SLPC   C23 7809   3.598   5.079   3.269  0.0770 -0.5611 -0.6096
   83SLPC   H3R 7810   3.672   5.160   3.289 -0.4625  0.8923 -4.0337
   83SLPC   H3S 7811   3.662   4.991   3.247  3.1617  0.6542  2.9673
   83SLPC   C24 7812   3.527   5.041   3.395  0.7827  0.1244  0.1204
   83SLPC   H4R 7813   3.457   4.956   3.378  0.6299  0.3913 -0.6027
   83SLPC   H4S 7814   3.483   5.133   3.437 -0.1094 -0.2851  0.0949
   83SLPC   C25 7815   3.619   4.991   3.515 -0.0524  0.5669 -0.0405
   83SLPC   H5R 7816   3.656   4.889   3.492 -0.5010  0.4379 -0.1953
   83SLPC   H5S 7817   3.548   4.985   3.600 -0.3741 -1.8633 -0.4511
   83SLPC   C26 7818   3.741   5.083   3.537 -0.1417  0.3803  0.2754
   83SLPC   H6R 7819   3.710   5.189   3.523  0.6619  0.4980 -0.5992
   83SLPC   H6S 7820   3.825   5.074   3.465 -1.7491 -1.9074 -1.3749
   83SLPC   C27 7821   3.787   5.069   3.683  0.4299  0.1594 -0.3256
   83SLPC   H7R 7822   3.817   4.966   3.712  1.5233  0.4307 -0.4745
   83SLPC   H7S 7823   3.706   5.096   3.754  0.0933  1.2051 -1.1002
   83SLPC   C28 7824   3.911   5.154   3.708 -0.2581 -0.9127  0.4274
   83SLPC   H8R 7825   3.898   5.256   3.666  0.7375 -0.6072  0.8276
   83SLPC   H8S 7826   3.978   5.111   3.630  0.1388 -0.3947  0.4769
   83SLPC   C29 7827   3.961   5.151   3.844 -0.0544  0.2461 -0.7961
   83SLPC   H9R 7828   3.889   5.136   3.926 -0.3834  1.4519 -0.8658
   83SLPC  C210 7829   4.082   5.186   3.879 -0.2582  0.4240  0.2093
   83SLPC  H10R 7830   4.110   5.187   3.986  0.0977  4.8942  0.1364
   83SLPC  C211 7831   4.189   5.236   3.787  0.1305  0.2808  0.1429
   83SLPC  H11R 7832   4.217   5.336   3.829  1.1743  0.7874 -1.7002
   83SLPC  H11S 7833   4.146   5.261   3.688 -3.2411  1.4350  1.8205
   83SLPC  C212 7834   4.317   5.145   3.795 -0.1398  0.3719  1.1224
   83SLPC  H12R 7835   4.320   5.060   3.725  1.0871  1.7961 -0.6050
   83SLPC  C213 7836   4.409   5.150   3.888 -0.4893  0.0001 -0.9019
   83SLPC  H13R 7837   4.498   5.086   3.876  0.2279  0.6615  0.7768
   83SLPC  C214 7838   4.414   5.243   4.005 -0.2406 -0.1662 -0.4496
   83SLPC  H14R 7839   4.324   5.307   4.004  0.6886  1.1976  1.0081
   83SLPC  H14S 7840   4.500   5.311   3.988  1.2894 -1.8083  0.4129
   83SLPC  C215 7841   4.404   5.201   4.163 -0.2639  0.6387  0.1873
   83SLPC  H15R 7842   4.497   5.152   4.199 -1.9821 -2.0306  1.1306
   83SLPC  H15S 7843   4.312   5.139   4.166 -0.6248  1.0086 -2.2948
   83SLPC  C216 7844   4.399   5.322   4.256  0.1594  0.0155  0.1273
   83SLPC  H16R 7845   4.400   5.285   4.361 -0.7758 -1.6906 -0.4401
   83SLPC  H16S 7846   4.303   5.376   4.244 -0.2957 -0.2507  2.3752
   83SLPC  C217 7847   4.514   5.421   4.231 -0.2878  1.3577  0.1893
   83SLPC  H17R 7848   4.595   5.374   4.172  0.6609  0.4992  2.1176
   83SLPC  H17S 7849   4.560   5.457   4.326  2.7555 -0.3851 -0.5365
   83SLPC  C218 7850   4.474   5.541   4.135 -0.3711 -0.0639 -0.4900
   83SLPC  H18R 7851   4.416   5.624   4.180  0.0046  0.2232 -0.5328
   83SLPC  H18S 7852   4.421   5.506   4.044 -1.3819 -0.1982  0.1362
   83SLPC  H18T 7853   4.570   5.585   4.102 -1.1956  0.8829 -1.7156
   83SLPC   C33 7854   4.011   5.470   3.328  0.5909 -0.1474  0.0051
   83SLPC   H3X 7855   3.916   5.506   3.284  1.3950 -1.9543 -3.3903
   83SLPC   H3Y 7856   4.092   5.529   3.280  0.0107 -0.3309 -1.2115
   83SLPC   C34 7857   4.010   5.485   3.483 -0.1691  0.2806 -0.8363
   83SLPC   H4X 7858   4.110   5.450   3.516  0.4652 -0.2625 -3.2265
   83SLPC   H4Y 7859   3.922   5.436   3.529 -1.3079  1.0627 -2.1473
   83SLPC   C35 7860   4.019   5.631   3.524 -0.5007  0.3065  0.0923
   83SLPC   H5X 7861   3.927   5.684   3.491  0.2570 -0.0757 -2.7273
   83SLPC   H5Y 7862   4.112   5.677   3.485  0.3277 -1.4267  0.0106
   83SLPC   C36 7863   4.024   5.648   3.675  0.2178  0.3967 -0.1525
   83SLPC   H6X 7864   4.038   5.757   3.693 -1.7204  0.6039  0.2190
   83SLPC   H6Y 7865   4.106   5.587   3.718  0.1501 -1.1096 -2.0993
   83SLPC   C37 7866   3.894   5.609   3.745  0.2653  0.5168  0.7823
   83SLPC   H7X 7867   3.872   5.502   3.729 -0.7221  0.8762 -0.4580
   83SLPC   H7Y 7868   3.814   5.670   3.698  0.9935  0.5030 -0.5226
   83SLPC   C38 7869   3.893   5.645   3.896  0.6232 -0.4827 -0.2049
   83SLPC   H8X 7870   3.794   5.637   3.946  0.9646 -0.0605  0.5446
   83SLPC   H8Y 7871   3.918   5.751   3.919 -3.2144  0.6610 -0.9603
   83SLPC   C39 7872   3.991   5.560   3.982 -0.8648 -0.8118 -0.3447
   83SLPC   H9X 7873   4.097   5.557   3.952 -0.4793 -0.7130  0.9561
   83SLPC   H9Y 7874   3.949   5.457   3.977 -1.5657 -0.5499 -0.0038
   83SLPC  C310 7875   3.992   5.593   4.132 -0.2227 -0.0216 -0.1219
   83SLPC  H10X 7876   4.052   5.517   4.186 -0.6512 -0.1565  0.1626
   83SLPC  H10Y 7877   3.889   5.593   4.173 -0.5306  1.6308 -0.8413
   83SLPC  C311 7878   4.048   5.732   4.166 -0.4596 -0.3610  1.0149
   83SLPC  H11X 7879   3.975   5.809   4.133  0.6986 -0.2508 -1.4138
   83SLPC  H11Y 7880   4.145   5.736   4.112 -1.2739  3.0951 -0.3354
   83SLPC  C312 7881   4.080   5.757   4.312  1.0592 -0.5248  0.1442
   83SLPC  H12X 7882   4.170   5.718   4.364  0.0133  0.4686  2.7827
   83SLPC  H12Y 7883   4.000   5.713   4.375  0.9396 -0.8379 -0.2265
   83SLPC  C313 7884   4.082   5.905   4.349 -0.1477  0.2162 -0.5899
   83SLPC  H13X 7885   4.097   5.918   4.458 -1.3767 -0.3699 -0.3388
   83SLPC  H13Y 7886   3.981   5.950   4.342 -0.2055  0.4418  1.5471
   83SLPC  C314 7887   4.191   5.992   4.271  0.4385 -0.2774  0.1697
   83SLPC  H14X 7888   4.180   6.096   4.308  0.7329 -0.2895  0.2861
   83SLPC  H14Y 7889   4.164   5.976   4.164  0.6791 -0.1530  0.0904
   83SLPC  C315 7890   4.334   5.956   4.306 -0.2707 -0.1630 -1.0092
   83SLPC  H15X 7891   4.356   5.849   4.284  2.0257  0.0392  0.1625
   83SLPC  H15Y 7892   4.346   5.972   4.415  1.1200 -2.1753 -0.8301
   83SLPC  C316 7893   4.433   6.027   4.210  0.4149 -0.3908 -0.4644
   83SLPC  H16X 7894   4.433   6.136   4.232  0.1413 -0.5246  0.2366
   83SLPC  H16Y 7895   4.405   6.026   4.103  1.3990 -1.6450 -0.7245
   83SLPC  C317 7896   4.562   5.952   4.207 -0.5412  0.7556 -0.6900
   83SLPC  H17X 7897   4.545   5.847   4.176  0.4160  0.6495 -0.8589
   83SLPC  H17Y 7898   4.611   5.957   4.307 -0.4514 -1.5788 -0.5814
   83SLPC  C318 7899   4.676   6.007   4.113 -0.1625  0.2341 -0.2570
   83SLPC  H18X 7900   4.771   5.958   4.144  0.0373  0.8663  0.1417
   83SLPC  H18Y 7901   4.690   6.116   4.124 -3.4763  0.5255  1.3540
   83SLPC  H18Z 7902   4.662   5.987   4.004  3.0206 -1.2790 -0.4779
   84SLPC     N 7903   0.439   2.212   2.466  0.6876  0.3477  0.2788
   84SLPC   C13 7904   0.338   2.279   2.554 -0.6866  0.1285 -0.2451
   84SLPC  H13A 7905   0.303   2.201   2.620 -0.4713  1.1564  1.1106
   84SLPC  H13B 7906   0.390   2.358   2.607 -1.3610 -0.6298  1.5915
   84SLPC  H13C 7907   0.262   2.324   2.492  0.6764 -0.2626 -2.2604
   84SLPC   C14 7908   0.503   2.318   2.379 -0.4974 -0.4539 -0.0046
   84SLPC  H14A 7909   0.435   2.378   2.320 -0.0474  0.0606 -0.0046
   84SLPC  H14B 7910   0.552   2.384   2.450 -2.5480 -0.8568  1.8546
   84SLPC  H14C 7911   0.582   2.276   2.319 -1.2106  0.9328 -1.9743
   84SLPC   C15 7912   0.372   2.107   2.376 -0.5709  0.1121  0.1651
   84SLPC  H15A 7913   0.296   2.049   2.426 -0.8111 -0.2346 -0.6046
   84SLPC  H15B 7914   0.324   2.157   2.293 -0.8342  0.0230  0.2627
   84SLPC  H15C 7915   0.455   2.056   2.330  0.9150  0.4675  2.3428
   84SLPC   C12 7916   0.551   2.145   2.550  0.2156 -0.6818  0.0288
   84SLPC  H12A 7917   0.637   2.134   2.485  0.0507  0.5664 -0.4203
   84SLPC  H12B 7918   0.526   2.042   2.568  1.5616 -0.9777  0.2303
   84SLPC   C11 7919   0.603   2.225   2.672  0.2575  0.0966  0.1798
   84SLPC  H11A 7920   0.685   2.166   2.718  0.1615 -0.3086 -0.1696
   84SLPC  H11B 7921   0.516   2.232   2.741 -0.1197  4.3175 -0.5535
   84SLPC     P 7922   0.626   2.479   2.722 -0.5695 -0.0324  0.2825
   84SLPC   O13 7923   0.711   2.575   2.659 -0.2737  0.2882  0.2166
   84SLPC   O14 7924   0.477   2.506   2.734  0.0626 -0.1091  0.2910
   84SLPC   O12 7925   0.650   2.356   2.631 -0.5443 -0.2178  0.1045
   84SLPC   O11 7926   0.685   2.411   2.850 -0.0332  0.5611 -0.0949
   84SLPC    C1 7927   0.622   2.449   2.975  0.4417  0.2206 -0.3272
   84SLPC    HA 7928   0.642   2.554   3.005  0.5778 -0.3275  1.5513
   84SLPC    HB 7929   0.512   2.432   2.970  0.4517 -0.4826  1.4105
   84SLPC    C2 7930   0.663   2.363   3.104  0.1290 -0.4033 -0.3998
   84SLPC    HS 7931   0.575   2.362   3.172 -0.7678  1.5896 -1.4828
   84SLPC   O21 7932   0.771   2.432   3.166  0.7403 -0.5569 -0.5526
   84SLPC   C21 7933   0.771   2.429   3.297  0.6997  0.1613  0.5342
   84SLPC   O22 7934   0.682   2.388   3.366 -0.2715 -0.1416 -0.1828
   84SLPC   C22 7935   0.903   2.493   3.351  0.4227 -0.3688  0.2276
   84SLPC   H2R 7936   0.986   2.442   3.298  0.2199 -1.5230  1.0158
   84SLPC   H2S 7937   0.892   2.597   3.313 -3.5027 -0.6173  0.5030
   84SLPC    C3 7938   0.694   2.215   3.074 -0.1748 -0.3269  0.9962
   84SLPC    HX 7939   0.767   2.219   2.991 -2.1901  2.7976 -0.7520
   84SLPC    HY 7940   0.605   2.165   3.030 -1.2470  2.2400  0.1871
   84SLPC   O31 7941   0.745   2.132   3.181 -0.2989 -0.3746  0.0548
   84SLPC   C31 7942   0.653   2.083   3.261  0.3841 -0.0341  0.0412
   84SLPC   O32 7943   0.533   2.087   3.242 -0.0827  0.2911  0.4371
   84SLPC   C32 7944   0.722   2.018   3.374  0.1470 -0.0846 -0.2851
   84SLPC   H2X 7945   0.780   2.095   3.429  0.9555  1.0348 -2.6146
   84SLPC   H2Y 7946   0.789   1.948   3.319 -0.3622  0.1351 -1.1943
   84SLPC   C23 7947   0.912   2.485   3.501  0.1922 -0.6161 -0.2665
   84SLPC   H3R 7948   0.927   2.377   3.525 -0.5504 -0.7384 -0.3689
   84SLPC   H3S 7949   0.818   2.527   3.542  0.8002 -1.0069  1.5844
   84SLPC   C24 7950   1.031   2.578   3.543 -0.4292 -0.8928 -0.1608
   84SLPC   H4R 7951   1.008   2.678   3.502  1.0747 -0.6717 -0.5046
   84SLPC   H4S 7952   1.132   2.541   3.515 -0.2542 -2.0797  1.9459
   84SLPC   C25 7953   1.042   2.590   3.695 -0.2325 -0.6077  0.0197
   84SLPC   H5R 7954   0.946   2.616   3.744  0.6059  0.1908  1.2828
   84SLPC   H5S 7955   1.115   2.671   3.717  0.9171 -2.1010  1.9169
   84SLPC   C26 7956   1.101   2.466   3.757 -0.1298  0.7813 -0.4213
   84SLPC   H6R 7957   1.187   2.435   3.694 -1.3620  1.0312 -2.2789
   84SLPC   H6S 7958   1.029   2.382   3.746 -0.8713  1.3582 -0.0551
   84SLPC   C27 7959   1.133   2.491   3.905  0.3778 -0.4904 -0.0915
   84SLPC   H7R 7960   1.154   2.599   3.918  1.2910 -0.6719 -0.0201
   84SLPC   H7S 7961   1.224   2.434   3.934 -0.5248 -0.8165  2.2181
   84SLPC   C28 7962   1.023   2.444   3.996 -0.0723 -0.2794  0.0712
   84SLPC   H8R 7963   1.000   2.337   3.979  0.6209 -1.0445  3.4689
   84SLPC   H8S 7964   0.941   2.518   3.982 -0.8205 -1.4966 -2.1828
   84SLPC   C29 7965   1.068   2.456   4.140 -0.0221 -0.6976  0.1915
   84SLPC   H9R 7966   1.131   2.544   4.161 -2.7493  1.7711 -1.5471
   84SLPC  C210 7967   1.026   2.377   4.239  0.6475 -0.2088  0.2155
   84SLPC  H10R 7968   1.082   2.385   4.333 -0.1602 -2.3313  0.8896
   84SLPC  C211 7969   0.925   2.267   4.236 -0.1819  1.1180 -0.3344
   84SLPC  H11R 7970   0.950   2.200   4.152  0.9269 -0.9061  1.5554
   84SLPC  H11S 7971   0.829   2.319   4.212 -0.7820  0.1597 -0.0446
   84SLPC  C212 7972   0.908   2.187   4.363  0.0950 -0.6367 -0.6048
   84SLPC  H12R 7973   0.867   2.234   4.453 -2.9493 -5.7547  0.9091
   84SLPC  C213 7974   0.944   2.056   4.382 -0.6546  0.8922  0.4380
   84SLPC  H13R 7975   0.932   2.017   4.484  0.0759  1.2210  0.6579
   84SLPC  C214 7976   1.006   1.954   4.288 -0.4430  0.2660 -0.3825
   84SLPC  H14R 7977   1.105   1.924   4.329  0.4261  0.9435 -1.9396
   84SLPC  H14S 7978   1.035   1.986   4.185 -0.8105 -3.4806 -1.7507
   84SLPC  C215 7979   0.931   1.820   4.270 -0.0386  0.2640 -0.2292
   84SLPC  H15R 7980   0.903   1.779   4.369 -0.8684 -1.4230 -1.1435
   84SLPC  H15S 7981   0.988   1.741   4.218  0.2700  1.1789 -1.3067
   84SLPC  C216 7982   0.801   1.844   4.196 -1.0578 -0.9277 -1.2825
   84SLPC  H16R 7983   0.733   1.921   4.239 -1.2835 -0.2151 -2.8793
   84SLPC  H16S 7984   0.745   1.748   4.195  0.5193 -1.9668  1.8767
   84SLPC  C217 7985   0.824   1.895   4.050  0.1133 -0.8349 -0.2295
   84SLPC  H17R 7986   0.872   1.995   4.062 -0.1831 -0.3474 -2.7966
   84SLPC  H17S 7987   0.726   1.921   4.005 -1.0075 -2.8746  0.9745
   84SLPC  C218 7988   0.905   1.799   3.965  0.6513 -0.4236 -0.3783
   84SLPC  H18R 7989   0.910   1.831   3.859 -0.9836  2.6032  0.4121
   84SLPC  H18S 7990   0.848   1.703   3.967 -0.7588  0.4003  0.3305
   84SLPC  H18T 7991   1.006   1.775   4.003 -0.4777 -3.5068  0.8414
   84SLPC   C33 7992   0.625   1.946   3.473 -0.0697  1.0459 -0.6602
   84SLPC   H3X 7993   0.690   1.870   3.523 -0.5166  0.5009 -0.9053
   84SLPC   H3Y 7994   0.557   1.883   3.414  3.3131  0.9369 -4.6728
   84SLPC   C34 7995   0.551   2.039   3.580 -0.4280  0.9098  0.2977
   84SLPC   H4X 7996   0.520   1.966   3.657  0.9171  0.3414  0.3093
   84SLPC   H4Y 7997   0.458   2.077   3.531  0.0385  1.5787 -0.0809
   84SLPC   C35 7998   0.641   2.146   3.639 -0.1005  0.5715 -0.2706
   84SLPC   H5X 7999   0.650   2.233   3.572 -2.1062  1.5069  0.6293
   84SLPC   H5Y 8000   0.741   2.099   3.654  0.8930  3.2528  1.9939
   84SLPC   C36 8001   0.605   2.202   3.778 -0.0339  0.4670 -0.9360
   84SLPC   H6X 8002   0.605   2.125   3.859  2.0364  1.6773  0.2929
   84SLPC   H6Y 8003   0.499   2.231   3.765 -0.2695 -0.4872 -1.1455
   84SLPC   C37 8004   0.701   2.318   3.814  0.9037 -0.2124  0.8465
   84SLPC   H7X 8005   0.722   2.376   3.722  1.2288  1.3907  1.9099
   84SLPC   H7Y 8006   0.800   2.272   3.839  1.1055  0.5076  1.3778
   84SLPC   C38 8007   0.659   2.406   3.935 -0.7543  1.2855  0.5421
   84SLPC   H8X 8008   0.751   2.461   3.965 -0.6939  1.4814  0.0172
   84SLPC   H8Y 8009   0.627   2.348   4.023 -1.8518  1.9251  0.5681
   84SLPC   C39 8010   0.549   2.503   3.902  0.7442  0.3273 -0.0475
   84SLPC   H9X 8011   0.454   2.446   3.909  1.3049 -0.5918  0.2001
   84SLPC   H9Y 8012   0.565   2.542   3.799  2.4674 -0.4333 -0.0765
   84SLPC  C310 8013   0.520   2.618   3.995  0.0464 -0.0839  0.1957
   84SLPC  H10X 8014   0.432   2.680   3.969 -0.7072 -0.9774  0.6100
   84SLPC  H10Y 8015   0.602   2.694   3.991  1.1533 -1.2240  0.7154
   84SLPC  C311 8016   0.502   2.590   4.148  0.1566  0.0497  1.0724
   84SLPC  H11X 8017   0.584   2.519   4.174 -0.6038 -1.5991 -0.8534
   84SLPC  H11Y 8018   0.413   2.528   4.174 -0.5600 -0.5678 -2.5923
   84SLPC  C312 8019   0.500   2.715   4.239 -0.3406  0.0359 -0.1525
   84SLPC  H12X 8020   0.402   2.761   4.219  0.1101  0.1113 -2.3169
   84SLPC  H12Y 8021   0.573   2.789   4.200 -2.2325  1.1178 -1.7199
   84SLPC  C313 8022   0.507   2.691   4.390  1.2726 -0.0021  0.3995
   84SLPC  H13X 8023   0.586   2.612   4.386  0.9204 -0.2879 -1.3141
   84SLPC  H13Y 8024   0.404   2.653   4.411  1.2526 -1.4917 -2.0724
   84SLPC  C314 8025   0.544   2.822   4.459 -0.1964 -0.2901 -0.1792
   84SLPC  H14X 8026   0.482   2.911   4.434  1.7551  1.3890  0.7971
   84SLPC  H14Y 8027   0.647   2.854   4.430 -1.3295  3.0851 -0.7026
   84SLPC  C315 8028   0.535   2.811   4.616 -0.2813  0.4496 -0.1085
   84SLPC  H15X 8029   0.603   2.725   4.635 -0.1438  0.3015 -1.1849
   84SLPC  H15Y 8030   0.434   2.776   4.644 -0.6839 -1.6906 -3.7838
   84SLPC  C316 8031   0.575   2.945   4.683 -0.1307  0.3615 -0.4649
   84SLPC  H16X 8032   0.524   2.964   4.780  0.6202  1.8545 -0.3561
   84SLPC  H16Y 8033   0.548   3.026   4.612 -1.8099  1.9004  1.8451
   84SLPC  C317 8034   0.727   2.942   4.693  0.4273  0.4541  0.3968
   84SLPC  H17X 8035   0.777   2.901   4.602  2.6560  0.3517  1.6347
   84SLPC  H17Y 8036   0.758   2.871   4.773  0.4935  1.3452  1.1681
   84SLPC  C318 8037   0.787   3.076   4.732 -0.5688 -0.1514  0.5570
   84SLPC  H18X 8038   0.896   3.060   4.746 -0.4516 -0.2446 -0.4260
   84SLPC  H18Y 8039   0.742   3.120   4.824 -3.1515  1.1408 -1.2641
   84SLPC  H18Z 8040   0.757   3.140   4.646 -1.3798 -0.8723  0.2995
   85SLPC     N 8041   6.888   4.623   2.342 -0.1303  0.1293  0.8820
   85SLPC   C13 8042   6.806   4.501   2.363 -0.6366 -0.4981  0.0486
   85SLPC  H13A 8043   6.767   4.474   2.266  0.4829  0.7616 -0.7778
   85SLPC  H13B 8044   6.859   4.412   2.394 -1.0633 -0.4825  0.8447
   85SLPC  H13C 8045   6.740   4.522   2.446 -0.7598  1.2016 -0.4575
   85SLPC   C14 8046   6.788   4.729   2.287  0.3093 -0.0999  0.6045
   85SLPC  H14A 8047   6.834   4.824   2.269 -0.4854 -0.2398 -2.6067
   85SLPC  H14B 8048   6.748   4.695   2.192  0.3070  0.2370  0.4863
   85SLPC  H14C 8049   6.704   4.740   2.353  0.3349 -0.6455  0.7329
   85SLPC   C15 8050   6.995   4.594   2.242 -0.2407 -0.5370 -0.7432
   85SLPC  H15A 8051   7.029   4.682   2.191  0.9797 -0.9319 -0.6207
   85SLPC  H15B 8052   7.076   4.541   2.289  0.1781  2.4709  2.1112
   85SLPC  H15C 8053   6.959   4.530   2.162  0.2980 -1.1666 -0.4898
   85SLPC   C12 8054   6.950   4.676   2.476  0.1656 -0.5063  0.1451
   85SLPC  H12A 8055   7.020   4.754   2.449 -2.5611  1.2935 -2.1036
   85SLPC  H12B 8056   6.987   4.588   2.527 -0.8797 -0.1489  1.5622
   85SLPC   C11 8057   6.859   4.746   2.578 -0.7773 -0.1246 -0.7913
   85SLPC  H11A 8058   6.925   4.761   2.666 -2.0060 -1.5681  0.4015
   85SLPC  H11B 8059   6.784   4.668   2.605 -0.9050  0.5951  1.0295
   85SLPC     P 8060   6.688   4.943   2.599  0.4840  0.4854 -0.2917
   85SLPC   O13 8061   6.705   5.087   2.592 -0.0916  0.0252 -0.1029
   85SLPC   O14 8062   6.565   4.893   2.532 -0.0266 -0.5877 -0.1403
   85SLPC   O12 8063   6.806   4.873   2.525 -0.2792  0.1016 -0.0437
   85SLPC   O11 8064   6.691   4.889   2.749 -0.2969 -0.3570 -0.3835
   85SLPC    C1 8065   6.714   4.978   2.860  1.0006  0.2786  0.6616
   85SLPC    HA 8066   6.633   5.054   2.861 -0.0048 -0.7777  0.5985
   85SLPC    HB 8067   6.711   4.916   2.953  0.7653 -1.2389 -0.3459
   85SLPC    C2 8068   6.855   5.051   2.847  0.2713  0.6593  0.6651
   85SLPC    HS 8069   6.854   5.111   2.753 -2.6494  0.8956  0.7985
   85SLPC   O21 8070   6.958   4.952   2.854 -0.0537  0.3837  0.4583
   85SLPC   C21 8071   7.080   5.007   2.817  1.3541 -0.4704  0.4768
   85SLPC   O22 8072   7.094   5.120   2.780 -0.0295 -0.2464  0.1064
   85SLPC   C22 8073   7.189   4.911   2.822 -0.2011  0.0918  0.1313
   85SLPC   H2R 8074   7.181   4.834   2.742 -0.7117  0.0697  0.2013
   85SLPC   H2S 8075   7.288   4.961   2.813  0.2920 -0.5859  1.7415
   85SLPC    C3 8076   6.875   5.146   2.968  0.3712  0.2783  0.6598
   85SLPC    HX 8077   6.806   5.231   2.953  1.8866  1.6252  1.2447
   85SLPC    HY 8078   6.976   5.191   2.964  2.1320 -3.3050  2.6720
   85SLPC   O31 8079   6.831   5.086   3.091  0.0669  0.1285 -0.0586
   85SLPC   C31 8080   6.874   5.167   3.191  0.3012  0.1103 -0.3375
   85SLPC   O32 8081   6.941   5.267   3.187 -0.5089 -0.2689  0.2081
   85SLPC   C32 8082   6.797   5.124   3.318  0.0814  0.5551 -0.0031
   85SLPC   H2X 8083   6.832   5.019   3.329  0.2138  0.5722 -0.2660
   85SLPC   H2Y 8084   6.687   5.135   3.306  0.2714  1.8779 -0.6266
   85SLPC   C23 8085   7.199   4.836   2.958 -0.5061  0.5945  0.6199
   85SLPC   H3R 8086   7.275   4.757   2.949 -1.9015 -1.3855  5.0400
   85SLPC   H3S 8087   7.108   4.773   2.967  0.5392 -0.9972  0.1607
   85SLPC   C24 8088   7.237   4.925   3.079  0.7670 -0.2522  0.4990
   85SLPC   H4R 8089   7.151   4.994   3.093  1.3050  1.1640 -2.6934
   85SLPC   H4S 8090   7.326   4.979   3.041  1.2908 -0.2834  1.6700
   85SLPC   C25 8091   7.268   4.831   3.193  0.0854 -0.0502  0.4419
   85SLPC   H5R 8092   7.179   4.767   3.212 -0.6015 -0.0672 -2.5274
   85SLPC   H5S 8093   7.355   4.762   3.183  0.4208 -0.0990  3.2351
   85SLPC   C26 8094   7.297   4.910   3.325  0.1957  0.1576 -0.2008
   85SLPC   H6R 8095   7.372   4.989   3.305 -0.3801  1.5541  2.8044
   85SLPC   H6S 8096   7.329   4.839   3.404 -2.5890 -0.1217  0.7363
   85SLPC   C27 8097   7.178   4.977   3.397  0.0854  0.2915  0.1918
   85SLPC   H7R 8098   7.099   4.899   3.401  0.5983 -0.3784 -1.9983
   85SLPC   H7S 8099   7.136   5.061   3.336 -0.4207 -0.8145 -1.0035
   85SLPC   C28 8100   7.216   5.039   3.532 -0.0875  0.1374  0.2841
   85SLPC   H8R 8101   7.138   5.111   3.566 -0.2491  0.1490 -0.1071
   85SLPC   H8S 8102   7.304   5.101   3.505 -1.1320  0.4415 -2.6417
   85SLPC   C29 8103   7.273   4.949   3.637 -0.1339 -0.5929  0.9719
   85SLPC   H9R 8104   7.360   4.900   3.590 -0.4722  1.6888 -2.2361
   85SLPC  C210 8105   7.223   4.916   3.763  0.0395  0.4405 -0.0706
   85SLPC  H10R 8106   7.276   4.853   3.836 -2.1629  0.9923  2.0679
   85SLPC  C211 8107   7.092   4.960   3.824 -0.0715 -0.2620  0.2024
   85SLPC  H11R 8108   7.016   4.881   3.808 -1.0077  0.7298 -0.2701
   85SLPC  H11S 8109   7.048   5.042   3.764 -2.0016 -0.2649  1.5672
   85SLPC  C212 8110   7.099   4.993   3.969 -0.0107 -0.4667  0.0443
   85SLPC  H12R 8111   7.151   5.089   3.985 -0.2015 -0.6425  1.8751
   85SLPC  C213 8112   7.042   4.935   4.078  0.3848  0.0203  0.1304
   85SLPC  H13R 8113   7.051   4.975   4.180  0.6512  1.7562 -0.5658
   85SLPC  C214 8114   6.947   4.813   4.075  0.5764 -0.2177 -0.0362
   85SLPC  H14R 8115   6.934   4.777   3.970 -0.5329 -2.9328  0.9867
   85SLPC  H14S 8116   6.847   4.846   4.110  0.1252 -0.3525 -1.1767
   85SLPC  C215 8117   7.025   4.695   4.149 -0.0933 -0.5356 -0.2304
   85SLPC  H15R 8118   7.053   4.735   4.249  1.3425 -0.3199 -0.7045
   85SLPC  H15S 8119   7.116   4.652   4.102 -0.5162  0.4889 -2.0330
   85SLPC  C216 8120   6.932   4.574   4.175 -0.5594 -0.5881  0.0487
   85SLPC  H16R 8121   6.854   4.562   4.097  0.3200  2.5760 -1.3999
   85SLPC  H16S 8122   6.873   4.598   4.266  0.3451 -1.0684  0.7779
   85SLPC  C217 8123   7.012   4.441   4.199 -0.4728  0.5555 -0.6584
   85SLPC  H17R 8124   7.052   4.420   4.098  0.0378  0.7688 -0.5014
   85SLPC  H17S 8125   6.942   4.358   4.222  1.3909 -1.0516 -0.6380
   85SLPC  C218 8126   7.116   4.451   4.308  0.5446  0.1078  0.1640
   85SLPC  H18R 8127   7.178   4.359   4.303 -2.4506 -1.9799 -0.2017
   85SLPC  H18S 8128   7.080   4.457   4.413  0.2717 -3.5749  0.3604
   85SLPC  H18T 8129   7.178   4.539   4.282 -0.9593  0.6252 -1.8578
   85SLPC   C33 8130   6.820   5.224   3.434 -0.2718 -0.2774  0.8139
   85SLPC   H3X 8131   6.794   5.329   3.408  0.3584 -0.3176 -0.0025
   85SLPC   H3Y 8132   6.930   5.220   3.450 -0.0189 -0.1492 -0.7720
   85SLPC   C34 8133   6.746   5.185   3.560  0.0634  0.3873  0.2107
   85SLPC   H4X 8134   6.771   5.081   3.590 -1.5748  0.7035  2.8788
   85SLPC   H4Y 8135   6.636   5.183   3.545 -0.0462 -1.0445  1.1284
   85SLPC   C35 8136   6.782   5.279   3.670  0.2878 -0.6145  0.2767
   85SLPC   H5X 8137   6.733   5.379   3.663 -0.7951 -1.1358  0.3423
   85SLPC   H5Y 8138   6.891   5.294   3.680  0.0882  0.7885  0.4661
   85SLPC   C36 8139   6.735   5.231   3.809 -0.1413  0.7931 -0.1557
   85SLPC   H6X 8140   6.780   5.129   3.816 -0.2871  0.7278 -0.1593
   85SLPC   H6Y 8141   6.624   5.221   3.810 -0.1932  1.1844  2.0309
   85SLPC   C37 8142   6.785   5.308   3.924 -0.7741 -0.2192 -0.4391
   85SLPC   H7X 8143   6.731   5.405   3.939  2.0049  1.2481  0.3701
   85SLPC   H7Y 8144   6.891   5.338   3.909 -1.2311  1.7157  0.0605
   85SLPC   C38 8145   6.782   5.228   4.058  0.2430 -0.0662  0.8118
   85SLPC   H8X 8146   6.838   5.134   4.042  0.6548  0.5907 -1.9348
   85SLPC   H8Y 8147   6.677   5.207   4.086 -0.5585  0.7678 -1.4436
   85SLPC   C39 8148   6.851   5.297   4.175 -0.0397 -0.3139 -0.5519
   85SLPC   H9X 8149   6.839   5.408   4.170  1.6017  0.0165  1.8945
   85SLPC   H9Y 8150   6.959   5.272   4.179  0.6646  2.3886 -1.3878
   85SLPC  C310 8151   6.800   5.254   4.319  0.1903 -0.4631 -0.5505
   85SLPC  H10X 8152   6.814   5.145   4.339  0.5518 -0.5511 -1.2653
   85SLPC  H10Y 8153   6.691   5.275   4.315  0.0408 -1.1590 -0.2669
   85SLPC  C311 8154   6.863   5.328   4.437  0.4365 -1.1843 -0.0617
   85SLPC  H11X 8155   6.968   5.297   4.450  0.0948 -2.1417  0.4228
   85SLPC  H11Y 8156   6.790   5.287   4.510 -0.6602  1.2343  0.2712
   85SLPC  C312 8157   6.847   5.484   4.422  0.4182  0.2972 -0.3204
   85SLPC  H12X 8158   6.738   5.500   4.432  0.0972 -2.7918  1.9327
   85SLPC  H12Y 8159   6.907   5.516   4.334 -0.3590  1.1395 -0.5551
   85SLPC  C313 8160   6.903   5.554   4.548 -0.0946 -0.2609 -0.2094
   85SLPC  H13X 8161   7.015   5.552   4.547 -0.0977 -1.7435 -2.7702
   85SLPC  H13Y 8162   6.884   5.499   4.643 -0.5790 -2.4735 -1.5437
   85SLPC  C314 8163   6.865   5.701   4.565 -0.4986 -0.1809  0.0465
   85SLPC  H14X 8164   6.912   5.743   4.657 -1.2058  0.7926 -0.0334
   85SLPC  H14Y 8165   6.755   5.715   4.571 -0.3817 -0.0177  2.0977
   85SLPC  C315 8166   6.928   5.790   4.449 -0.0634 -0.1207 -0.1619
   85SLPC  H15X 8167   6.872   5.786   4.354 -1.5253  4.4699  0.3763
   85SLPC  H15Y 8168   7.030   5.749   4.434  1.3741  2.7597  1.2688
   85SLPC  C316 8169   6.938   5.936   4.487 -0.1337 -0.0043 -0.4919
   85SLPC  H16X 8170   6.967   5.932   4.594 -0.4271  1.6964 -0.3286
   85SLPC  H16Y 8171   6.836   5.976   4.469 -0.3673 -0.5695 -0.4169
   85SLPC  C317 8172   7.034   6.015   4.402  0.0692 -0.3164  0.5574
   85SLPC  H17X 8173   7.028   5.987   4.295  0.7004 -1.8491  0.9009
   85SLPC  H17Y 8174   7.139   5.994   4.434  0.6116  0.0379 -0.9298
   85SLPC  C318 8175   7.025   6.165   4.403  0.2105 -0.0995 -0.5453
   85SLPC  H18X 8176   6.925   6.199   4.368 -0.6869 -3.0081 -0.8662
   85SLPC  H18Y 8177   7.097   6.213   4.333 -0.4592  0.1429 -1.0782
   85SLPC  H18Z 8178   7.050   6.213   4.500 -0.3629  1.2192 -1.0320
   86SLPC     N 8179   7.206   3.401   2.265  0.1575 -0.5366  0.3476
   86SLPC   C13 8180   7.164   3.541   2.295 -0.0042  0.1614  0.1088
   86SLPC  H13A 8181   7.246   3.600   2.334  1.8406 -1.9280 -0.4978
   86SLPC  H13B 8182   7.132   3.594   2.206  0.3009  1.0319  0.5138
   86SLPC  H13C 8183   7.082   3.538   2.365 -0.0558 -0.2492  0.0345
   86SLPC   C14 8184   7.324   3.403   2.173  0.5532  0.5243 -0.1482
   86SLPC  H14A 8185   7.414   3.434   2.224 -0.2153  2.6688 -0.0660
   86SLPC  H14B 8186   7.335   3.303   2.134  0.5766  0.2259  0.6295
   86SLPC  H14C 8187   7.308   3.462   2.084  0.6913 -1.6658 -1.6532
   86SLPC   C15 8188   7.098   3.329   2.200 -0.4526 -0.1368 -0.0200
   86SLPC  H15A 8189   7.014   3.325   2.267  0.5453 -0.4671  1.2351
   86SLPC  H15B 8190   7.061   3.365   2.105 -2.5128  0.5902  1.0254
   86SLPC  H15C 8191   7.129   3.228   2.178  1.7582  0.2547  1.0625
   86SLPC   C12 8192   7.252   3.341   2.390 -0.2561 -0.2525 -0.1352
   86SLPC  H12A 8193   7.164   3.327   2.451  1.5457 -1.1228  2.3150
   86SLPC  H12B 8194   7.307   3.414   2.446 -2.4224  1.8631 -0.6694
   86SLPC   C11 8195   7.335   3.207   2.389  0.4884  0.3628  0.0603
   86SLPC  H11A 8196   7.367   3.190   2.494 -1.0381 -2.0043  0.1703
   86SLPC  H11B 8197   7.425   3.219   2.326  1.1689 -1.4142  0.6759
   86SLPC     P 8198   7.155   3.015   2.448 -0.0692  0.7226 -0.5412
   86SLPC   O13 8199   7.032   2.992   2.369 -0.8582  0.2348  0.1069
   86SLPC   O14 8200   7.206   2.895   2.510  0.3574 -0.4172  0.0757
   86SLPC   O12 8201   7.252   3.094   2.358  0.0248  1.0091  0.3574
   86SLPC   O11 8202   7.114   3.119   2.561 -0.1175  0.6554 -0.5213
   86SLPC    C1 8203   7.035   3.071   2.672  0.5646 -0.3827  0.0277
   86SLPC    HA 8204   7.015   2.962   2.673 -1.9240  0.0431  1.4897
   86SLPC    HB 8205   7.087   3.084   2.769 -0.5079  0.6233  0.4860
   86SLPC    C2 8206   6.895   3.144   2.670  0.3500 -0.4278 -0.0190
   86SLPC    HS 8207   6.854   3.134   2.567 -2.9204 -0.9555  1.2759
   86SLPC   O21 8208   6.913   3.274   2.727  0.6187 -0.1508  0.2616
   86SLPC   C21 8209   6.963   3.371   2.670  0.3306 -1.0289  1.2132
   86SLPC   O22 8210   7.005   3.378   2.555 -0.2164  0.1776  0.1598
   86SLPC   C22 8211   6.938   3.491   2.762 -0.8217  0.6657 -0.1591
   86SLPC   H2R 8212   6.927   3.463   2.869  1.2802 -2.2767 -0.6417
   86SLPC   H2S 8213   7.035   3.545   2.763 -0.7605  0.5477  0.9523
   86SLPC    C3 8214   6.795   3.065   2.764 -0.1373 -0.1429  0.1432
   86SLPC    HX 8215   6.766   2.972   2.711  0.9180 -0.0747 -0.5711
   86SLPC    HY 8216   6.703   3.126   2.777  0.0658 -0.0931  1.3332
   86SLPC   O31 8217   6.861   3.032   2.889 -0.4110  0.2084 -0.0173
   86SLPC   C31 8218   6.815   3.095   2.997 -0.4435  0.2320 -0.2172
   86SLPC   O32 8219   6.721   3.168   3.004 -0.0718  0.1263  0.0391
   86SLPC   C32 8220   6.914   3.064   3.112 -1.2180 -0.0355  0.0911
   86SLPC   H2X 8221   7.020   3.058   3.079 -1.6105  0.7382 -1.3592
   86SLPC   H2Y 8222   6.882   2.966   3.154 -0.9228  0.3787  1.2946
   86SLPC   C23 8223   6.830   3.584   2.704  0.2222 -0.0698 -0.4965
   86SLPC   H3R 8224   6.851   3.587   2.595 -0.0484 -2.0566 -0.6138
   86SLPC   H3S 8225   6.839   3.684   2.751 -0.0284 -0.8716  1.2749
   86SLPC   C24 8226   6.687   3.527   2.724 -0.6356  0.5491  0.1267
   86SLPC   H4R 8227   6.665   3.428   2.679  1.3343 -0.1032  0.5903
   86SLPC   H4S 8228   6.606   3.588   2.679 -0.0162  0.6526 -0.8637
   86SLPC   C25 8229   6.649   3.513   2.871 -0.3353  0.3525 -0.8009
   86SLPC   H5R 8230   6.661   3.614   2.914 -1.2492  0.7709 -1.5145
   86SLPC   H5S 8231   6.716   3.444   2.928 -0.4837 -0.7203 -1.9069
   86SLPC   C26 8232   6.495   3.479   2.892  0.0770  0.5357  0.7006
   86SLPC   H6R 8233   6.464   3.397   2.825 -1.7585  2.6426 -1.1158
   86SLPC   H6S 8234   6.444   3.573   2.861  0.7191  0.9770  0.9516
   86SLPC   C27 8235   6.475   3.441   3.041 -0.0793 -0.7838  0.3956
   86SLPC   H7R 8236   6.554   3.367   3.066  1.1030  0.7904  1.4257
   86SLPC   H7S 8237   6.376   3.401   3.069  0.0301 -1.0998  0.3259
   86SLPC   C28 8238   6.505   3.552   3.148  0.6822 -1.0855 -0.1548
   86SLPC   H8R 8239   6.601   3.599   3.116  0.8777 -1.2415  0.2082
   86SLPC   H8S 8240   6.529   3.488   3.236 -1.3028  0.0097  1.2292
   86SLPC   C29 8241   6.397   3.653   3.188 -0.1724  0.0401 -0.7031
   86SLPC   H9R 8242   6.380   3.735   3.116 -0.0415 -0.9133 -1.8150
   86SLPC  C210 8243   6.314   3.653   3.293 -0.4366 -0.0988 -0.1849
   86SLPC  H10R 8244   6.236   3.731   3.297  0.4045  0.8183 -1.2508
   86SLPC  C211 8245   6.301   3.549   3.406 -0.2046  0.0838  0.3424
   86SLPC  H11R 8246   6.395   3.499   3.436 -1.0770 -2.1400 -0.4652
   86SLPC  H11S 8247   6.240   3.464   3.368 -0.8331  0.1333  1.2110
   86SLPC  C212 8248   6.217   3.598   3.525 -0.2265 -0.2182 -0.3734
   86SLPC  H12R 8249   6.117   3.552   3.523  0.5207 -2.5787  5.3196
   86SLPC  C213 8250   6.244   3.687   3.626  0.1306  0.3237 -0.2018
   86SLPC  H13R 8251   6.171   3.699   3.707 -0.0520 -0.8493 -0.1878
   86SLPC  C214 8252   6.377   3.758   3.642 -0.2231  0.0930 -1.2606
   86SLPC  H14R 8253   6.365   3.857   3.592 -0.0060  1.6565  1.6505
   86SLPC  H14S 8254   6.458   3.711   3.583 -0.1053 -0.7335 -0.4462
   86SLPC  C215 8255   6.425   3.780   3.789 -0.2162 -0.6567 -0.2310
   86SLPC  H15R 8256   6.425   3.677   3.833  0.7549 -1.2452 -1.5877
   86SLPC  H15S 8257   6.346   3.846   3.831  0.6622  0.9070 -1.0280
   86SLPC  C216 8258   6.552   3.854   3.801 -0.1066  0.0345 -0.2529
   86SLPC  H16R 8259   6.527   3.955   3.762 -1.5616 -0.7841 -1.5061
   86SLPC  H16S 8260   6.632   3.813   3.736  1.0651  1.8965 -0.0199
   86SLPC  C217 8261   6.608   3.880   3.942 -0.5215  0.3092  0.4348
   86SLPC  H17R 8262   6.692   3.953   3.939  0.2282 -0.4751  1.8139
   86SLPC  H17S 8263   6.646   3.783   3.980 -1.5752 -0.3713 -0.2256
   86SLPC  C218 8264   6.509   3.921   4.050 -0.4370  0.1814  0.2800
   86SLPC  H18R 8265   6.424   3.851   4.034 -0.2079 -0.1345  0.4282
   86SLPC  H18S 8266   6.483   4.025   4.021  1.1605  0.1030 -1.5583
   86SLPC  H18T 8267   6.540   3.919   4.156  0.3628  1.6730  0.0812
   86SLPC   C33 8268   6.899   3.175   3.228  0.2181 -0.1888 -0.6420
   86SLPC   H3X 8269   6.794   3.177   3.263  0.6364  0.6530  0.5798
   86SLPC   H3Y 8270   6.920   3.277   3.190  0.8929 -0.4834 -1.0716
   86SLPC   C34 8271   6.985   3.143   3.351 -0.7302  0.6616  0.3103
   86SLPC   H4X 8272   7.091   3.146   3.317 -1.8189  1.6505 -3.1164
   86SLPC   H4Y 8273   6.982   3.035   3.377  0.8814 -0.0125 -2.1625
   86SLPC   C35 8274   6.981   3.213   3.486  0.1598 -0.1655  0.2155
   86SLPC   H5X 8275   7.074   3.182   3.537  0.4671  0.8148  0.2500
   86SLPC   H5Y 8276   6.890   3.186   3.544 -0.4073  0.0639 -0.5634
   86SLPC   C36 8277   6.965   3.363   3.470  0.0813  0.2680  1.0154
   86SLPC   H6X 8278   6.878   3.405   3.416  1.6013  1.6532 -0.4026
   86SLPC   H6Y 8279   7.046   3.400   3.404 -0.6357  0.6600  0.3611
   86SLPC   C37 8280   6.981   3.435   3.613  0.0006 -0.1104  0.4313
   86SLPC   H7X 8281   6.888   3.411   3.669 -0.4412 -1.2105 -0.7497
   86SLPC   H7Y 8282   6.975   3.545   3.599  1.5561  0.1150  1.3764
   86SLPC   C38 8283   7.093   3.388   3.698 -0.7302 -0.3674 -0.9455
   86SLPC   H8X 8284   7.193   3.377   3.651  0.4630  1.9311  0.9123
   86SLPC   H8Y 8285   7.069   3.281   3.715 -3.0465 -0.3319 -3.6717
   86SLPC   C39 8286   7.115   3.460   3.837  0.3468 -0.6056  0.2890
   86SLPC   H9X 8287   7.012   3.461   3.878 -0.5522  0.5431 -1.9037
   86SLPC   H9Y 8288   7.150   3.564   3.823 -1.0195 -0.5322 -2.9638
   86SLPC  C310 8289   7.196   3.379   3.936  0.0732  0.1909 -0.3004
   86SLPC  H10X 8290   7.182   3.271   3.910  0.4030  0.4452 -1.5607
   86SLPC  H10Y 8291   7.162   3.398   4.040  0.3774  2.6054 -0.6304
   86SLPC  C311 8292   7.352   3.398   3.934  0.6682 -0.6543 -0.6299
   86SLPC  H11X 8293   7.392   3.400   3.830  0.5698 -0.9793 -0.6757
   86SLPC  H11Y 8294   7.396   3.309   3.984  0.3399 -0.4056  0.1057
   86SLPC  C312 8295   7.409   3.526   4.004 -0.3147 -0.3253  0.8482
   86SLPC  H12X 8296   7.341   3.607   3.970 -0.9478 -0.4202  1.8670
   86SLPC  H12Y 8297   7.510   3.540   3.959  0.3852 -0.6365  2.3060
   86SLPC  C313 8298   7.402   3.526   4.152 -0.5479 -0.4414 -0.1526
   86SLPC  H13X 8299   7.475   3.450   4.189  0.6587  1.4880  1.5177
   86SLPC  H13Y 8300   7.306   3.488   4.193 -0.7643 -1.3511 -1.4795
   86SLPC  C314 8301   7.431   3.659   4.223 -0.0583  0.5839  0.0142
   86SLPC  H14X 8302   7.409   3.672   4.331 -0.4685  0.6737 -0.0809
   86SLPC  H14Y 8303   7.363   3.734   4.178 -0.3961  0.3639  0.1513
   86SLPC  C315 8304   7.578   3.684   4.211 -0.3596  0.3299  0.6994
   86SLPC  H15X 8305   7.588   3.714   4.105 -0.8114  2.5120  1.2457
   86SLPC  H15Y 8306   7.629   3.588   4.228  0.8635  1.0189  0.9756
   86SLPC  C316 8307   7.626   3.800   4.298 -0.1788  0.1974  0.5638
   86SLPC  H16X 8308   7.603   3.779   4.405  0.5523 -0.4897  0.5972
   86SLPC  H16Y 8309   7.563   3.886   4.267 -1.3648 -1.2145 -1.0370
   86SLPC  C317 8310   7.773   3.840   4.276 -0.1172  0.1012  0.0878
   86SLPC  H17X 8311   7.799   3.850   4.168 -1.1003  2.8908  0.0564
   86SLPC  H17Y 8312   7.841   3.754   4.296 -0.8022 -0.4070  0.2774
   86SLPC  C318 8313   7.814   3.970   4.348  0.1369 -0.9529  0.2580
   86SLPC  H18X 8314   7.754   4.054   4.308 -1.3507 -1.2781  1.7165
   86SLPC  H18Y 8315   7.922   3.992   4.337  0.2663 -0.6692  1.9481
   86SLPC  H18Z 8316   7.787   3.958   4.456 -0.3209  0.2379  0.2773
   87SLPC     N 8317   6.910   1.636   2.517  0.1962 -0.7889 -0.2109
   87SLPC   C13 8318   6.905   1.733   2.401 -0.4472 -0.4528 -0.3846
   87SLPC  H13A 8319   6.945   1.690   2.310 -1.0981  0.4188 -1.0929
   87SLPC  H13B 8320   6.803   1.761   2.381 -0.2339  1.3855  0.9702
   87SLPC  H13C 8321   6.973   1.816   2.415  0.1806 -1.0272 -0.0192
   87SLPC   C14 8322   6.868   1.702   2.647 -0.1498 -0.0465  0.1905
   87SLPC  H14A 8323   6.872   1.641   2.736 -1.3798 -0.8797 -0.3065
   87SLPC  H14B 8324   6.928   1.790   2.665 -2.0290  0.8068  2.5127
   87SLPC  H14C 8325   6.765   1.731   2.637 -0.1613 -0.0144  0.4118
   87SLPC   C15 8326   7.044   1.584   2.538  0.4141  0.1747  0.3634
   87SLPC  H15A 8327   7.084   1.535   2.451  0.5388 -0.2517  0.6609
   87SLPC  H15B 8328   7.108   1.665   2.572  0.6953 -0.3011  0.9785
   87SLPC  H15C 8329   7.048   1.514   2.620 -0.2066  0.1758  0.3994
   87SLPC   C12 8330   6.810   1.519   2.494  0.7503 -0.6065 -0.2820
   87SLPC  H12A 8331   6.823   1.434   2.559 -0.3046  0.1362  0.9249
   87SLPC  H12B 8332   6.815   1.490   2.390 -2.8267 -1.3810 -0.3195
   87SLPC   C11 8333   6.655   1.544   2.495 -1.1006  0.5673  0.9183
   87SLPC  H11A 8334   6.601   1.451   2.471  0.8713 -0.2063 -0.6045
   87SLPC  H11B 8335   6.631   1.612   2.411  0.0067 -1.5910 -1.1999
   87SLPC     P 8336   6.469   1.671   2.639  0.3676  0.4115 -0.0400
   87SLPC   O13 8337   6.498   1.808   2.682  0.1535  0.4083 -0.2712
   87SLPC   O14 8338   6.386   1.667   2.517  0.3343  0.0769  0.9393
   87SLPC   O12 8339   6.605   1.587   2.623  0.1055 -0.0590  0.0843
   87SLPC   O11 8340   6.398   1.584   2.749  0.1334  0.6561  0.1456
   87SLPC    C1 8341   6.441   1.457   2.799 -0.5574 -0.6662  0.3200
   87SLPC    HA 8342   6.440   1.377   2.722 -3.1560  0.9885 -1.4285
   87SLPC    HB 8343   6.546   1.464   2.836 -0.4728 -1.2161  0.1872
   87SLPC    C2 8344   6.354   1.402   2.919 -0.7000 -0.6095 -0.4237
   87SLPC    HS 8345   6.360   1.483   2.994  0.6042  0.0997 -1.2704
   87SLPC   O21 8346   6.410   1.281   2.970 -0.1759  0.4242  0.9454
   87SLPC   C21 8347   6.385   1.251   3.096  0.4739 -0.5029  0.2293
   87SLPC   O22 8348   6.312   1.312   3.169  0.2813 -0.1102 -0.7395
   87SLPC   C22 8349   6.438   1.112   3.133  1.3215 -0.0604  0.6357
   87SLPC   H2R 8350   6.350   1.043   3.132  0.4358  1.0635 -1.2248
   87SLPC   H2S 8351   6.513   1.088   3.055  1.9090  2.2497  0.4718
   87SLPC    C3 8352   6.203   1.382   2.893  0.4222 -0.1570 -0.5562
   87SLPC    HX 8353   6.180   1.470   2.829  2.6325 -1.0789 -2.7125
   87SLPC    HY 8354   6.150   1.379   2.990 -0.6660 -0.6438 -1.1574
   87SLPC   O31 8355   6.186   1.261   2.823 -0.2630 -0.0700 -0.2621
   87SLPC   C31 8356   6.079   1.257   2.745 -0.6048  0.9415  1.1062
   87SLPC   O32 8357   5.997   1.350   2.734 -0.3343 -0.1159 -0.0000
   87SLPC   C32 8358   6.070   1.134   2.647 -0.6396  0.4842  0.3254
   87SLPC   H2X 8359   6.098   1.174   2.547 -0.2320  0.6585  0.5109
   87SLPC   H2Y 8360   5.962   1.107   2.653 -0.0820 -1.9353 -0.0964
   87SLPC   C23 8361   6.508   1.118   3.264 -0.2121 -0.7145 -0.9697
   87SLPC   H3R 8362   6.453   1.174   3.343  2.0800  0.5395 -0.1928
   87SLPC   H3S 8363   6.603   1.174   3.250  0.4833 -1.5591  0.3831
   87SLPC   C24 8364   6.544   0.974   3.308  0.0089 -1.0395 -0.5883
   87SLPC   H4R 8365   6.601   0.924   3.226  0.1982  0.4526 -1.3832
   87SLPC   H4S 8366   6.449   0.916   3.309 -1.2179  0.9269  1.6737
   87SLPC   C25 8367   6.608   0.961   3.450 -1.0277 -0.3569 -0.4440
   87SLPC   H5R 8368   6.633   0.856   3.476  0.2693 -0.0219 -0.2879
   87SLPC   H5S 8369   6.525   0.985   3.520  1.3861  0.2633  2.3008
   87SLPC   C26 8370   6.724   1.062   3.480  0.3991 -0.0624  0.3119
   87SLPC   H6R 8371   6.697   1.168   3.460  1.4768  0.3506  0.9801
   87SLPC   H6S 8372   6.816   1.041   3.422  1.9433  0.7528  2.3993
   87SLPC   C27 8373   6.782   1.053   3.625  0.0408 -0.1385  0.4463
   87SLPC   H7R 8374   6.806   0.946   3.642  0.4203 -0.0022  0.7879
   87SLPC   H7S 8375   6.697   1.078   3.692 -0.1622 -0.4164  0.2926
   87SLPC   C28 8376   6.904   1.151   3.640 -0.6171 -0.0883 -0.3357
   87SLPC   H8R 8377   6.873   1.258   3.638 -0.9141 -0.1921 -2.9579
   87SLPC   H8S 8378   6.975   1.146   3.555  0.3724 -1.2851  0.5382
   87SLPC   C29 8379   6.973   1.122   3.769  0.5508 -0.0501 -0.0667
   87SLPC   H9R 8380   7.048   1.042   3.762 -0.3996 -0.8361 -1.6946
   87SLPC  C210 8381   6.971   1.197   3.877 -0.9070 -0.5901 -0.1424
   87SLPC  H10R 8382   7.010   1.156   3.971 -1.6605  0.3596  0.5871
   87SLPC  C211 8383   6.898   1.330   3.905  0.5039  1.1276 -0.2482
   87SLPC  H11R 8384   6.919   1.409   3.830 -0.0901  0.7017 -0.8773
   87SLPC  H11S 8385   6.937   1.375   3.998 -1.0202  0.6709  0.6418
   87SLPC  C212 8386   6.753   1.302   3.940 -1.0162  0.3060  0.7036
   87SLPC  H12R 8387   6.686   1.311   3.853  0.2245 -2.4740 -0.6194
   87SLPC  C213 8388   6.697   1.266   4.058  0.1774 -0.0474  0.1531
   87SLPC  H13R 8389   6.588   1.250   4.062  0.0397  0.8425  0.0873
   87SLPC  C214 8390   6.768   1.247   4.189  0.5563 -0.1522 -0.2652
   87SLPC  H14R 8391   6.714   1.295   4.274  1.0935  0.2558 -0.1479
   87SLPC  H14S 8392   6.864   1.300   4.211  0.7990 -0.1186 -1.3558
   87SLPC  C215 8393   6.779   1.099   4.221  0.4862 -0.1638 -0.4534
   87SLPC  H15R 8394   6.847   1.058   4.144  0.0097 -0.6082 -0.6330
   87SLPC  H15S 8395   6.678   1.054   4.215 -0.0416  0.9275 -0.0294
   87SLPC  C216 8396   6.855   1.084   4.353 -0.3824 -0.1066  0.6918
   87SLPC  H16R 8397   6.837   1.171   4.418 -1.9215  0.2823 -0.2441
   87SLPC  H16S 8398   6.964   1.074   4.331 -0.5911 -1.0078 -0.0113
   87SLPC  C217 8399   6.827   0.946   4.425  0.0498 -0.4368 -0.1509
   87SLPC  H17R 8400   6.910   0.933   4.497 -1.9272  1.2074  2.4961
   87SLPC  H17S 8401   6.836   0.870   4.344 -0.5028 -2.7306  1.8771
   87SLPC  C218 8402   6.684   0.933   4.482  0.1710 -0.3138  0.7780
   87SLPC  H18R 8403   6.649   0.851   4.547 -3.0482 -0.8924 -1.5738
   87SLPC  H18S 8404   6.603   0.939   4.406  1.0776 -0.7430 -0.2503
   87SLPC  H18T 8405   6.674   1.020   4.550  0.6781  0.6809 -0.4058
   87SLPC   C33 8406   6.174   1.016   2.667  0.0907  0.2807 -0.2860
   87SLPC   H3X 8407   6.159   0.949   2.580 -0.1578  1.4951 -1.1955
   87SLPC   H3Y 8408   6.149   0.957   2.758 -0.1855  0.2719 -0.3673
   87SLPC   C34 8409   6.325   1.062   2.675 -0.4423 -0.3145  0.0521
   87SLPC   H4X 8410   6.343   1.141   2.752  0.0074 -0.4107  0.0489
   87SLPC   H4Y 8411   6.350   1.113   2.579 -2.4660  1.1736  0.2824
   87SLPC   C35 8412   6.411   0.950   2.713  0.1680 -0.1089 -0.0845
   87SLPC   H5X 8413   6.419   0.866   2.641  1.4767  0.1805 -0.2904
   87SLPC   H5Y 8414   6.367   0.910   2.808  2.1028  3.5377  2.4587
   87SLPC   C36 8415   6.560   0.992   2.755  0.0738  0.0927 -0.0858
   87SLPC   H6X 8416   6.624   0.902   2.768 -0.4995 -0.7453 -2.9290
   87SLPC   H6Y 8417   6.555   1.056   2.847  1.4815  0.4797 -0.2567
   87SLPC   C37 8418   6.630   1.060   2.633 -0.3756  0.5432 -0.2021
   87SLPC   H7X 8419   6.561   1.135   2.589 -1.9693 -1.9150 -2.0508
   87SLPC   H7Y 8420   6.667   0.981   2.564  3.6214  1.9511  0.1706
   87SLPC   C38 8421   6.766   1.118   2.668 -0.0982  1.2857 -0.2059
   87SLPC   H8X 8422   6.813   1.141   2.571 -1.1852  2.1260 -0.5459
   87SLPC   H8Y 8423   6.820   1.045   2.732 -3.1413 -0.5105  0.4411
   87SLPC   C39 8424   6.756   1.252   2.751 -0.4777  0.1848 -0.0021
   87SLPC   H9X 8425   6.702   1.217   2.841 -1.6402 -0.3692 -0.9024
   87SLPC   H9Y 8426   6.689   1.323   2.698  0.7803  1.0686 -0.4418
   87SLPC  C310 8427   6.888   1.305   2.793  0.3864 -0.4260  0.0445
   87SLPC  H10X 8428   6.949   1.321   2.702  0.3488  0.7301  0.2175
   87SLPC  H10Y 8429   6.944   1.225   2.846  0.4568 -0.3343  0.1092
   87SLPC  C311 8430   6.872   1.437   2.862 -0.5262  0.6045 -0.5568
   87SLPC  H11X 8431   6.793   1.492   2.807 -0.2033  1.3801 -0.2579
   87SLPC  H11Y 8432   6.967   1.492   2.877  0.4696 -0.5365 -2.5064
   87SLPC  C312 8433   6.823   1.414   3.006 -0.1962  0.0039  0.1192
   87SLPC  H12X 8434   6.894   1.360   3.073 -0.7122  0.1859  0.8261
   87SLPC  H12Y 8435   6.732   1.350   3.010 -0.4111  0.3348  0.5766
   87SLPC  C313 8436   6.792   1.537   3.089 -0.5348 -0.4490  0.1053
   87SLPC  H13X 8437   6.865   1.619   3.071  0.0369 -1.1841 -0.9892
   87SLPC  H13Y 8438   6.779   1.520   3.198 -0.2265  3.0980  0.7728
   87SLPC  C314 8439   6.663   1.610   3.035 -0.1460  0.1177  0.4045
   87SLPC  H14X 8440   6.573   1.553   3.069 -0.3384  0.5069  0.5439
   87SLPC  H14Y 8441   6.676   1.606   2.925 -0.0079  1.2480  0.3743
   87SLPC  C315 8442   6.661   1.754   3.065 -0.0034  0.6042 -0.4842
   87SLPC  H15X 8443   6.752   1.796   3.019 -0.3956  3.4789  1.2339
   87SLPC  H15Y 8444   6.667   1.774   3.174  0.6987  0.6781 -0.5364
   87SLPC  C316 8445   6.536   1.828   3.019  0.0094 -0.2285  0.1775
   87SLPC  H16X 8446   6.513   1.792   2.917 -0.1409  0.7530 -0.1459
   87SLPC  H16Y 8447   6.581   1.930   3.018  2.8602 -1.4133  2.5704
   87SLPC  C317 8448   6.418   1.825   3.120 -0.1639  0.1358  0.4099
   87SLPC  H17X 8449   6.355   1.910   3.084  0.9939  0.8828  0.1471
   87SLPC  H17Y 8450   6.453   1.831   3.225  1.5026  0.9682 -0.1723
   87SLPC  C318 8451   6.324   1.708   3.113 -0.0689 -0.5152 -0.8802
   87SLPC  H18X 8452   6.361   1.622   3.173 -2.3650 -1.5680 -0.9551
   87SLPC  H18Y 8453   6.326   1.677   3.006 -0.2846 -2.4814 -0.3392
   87SLPC  H18Z 8454   6.222   1.725   3.153 -0.1545 -1.2052 -0.7996
   88SLPC     N 8455   0.157   7.128   2.136  0.5743  0.4182  0.6327
   88SLPC   C13 8456   0.184   6.978   2.148 -0.0275 -0.1042 -0.0368
   88SLPC  H13A 8457   0.094   6.919   2.157  0.8633 -1.5038 -0.1970
   88SLPC  H13B 8458   0.231   6.947   2.056  1.8189  0.0706  0.8196
   88SLPC  H13C 8459   0.246   6.962   2.235 -1.3875  2.1243  1.3812
   88SLPC   C14 8460   0.062   7.138   2.027  0.2253  0.6812 -0.1883
   88SLPC  H14A 8461   0.107   7.101   1.936  2.9532  1.6958  0.6921
   88SLPC  H14B 8462  -0.032   7.090   2.051  1.7160 -3.4961 -2.2311
   88SLPC  H14C 8463   0.047   7.240   1.996  0.8592  1.0725  0.7718
   88SLPC   C15 8464   0.281   7.199   2.090 -0.5112 -0.2020  0.0930
   88SLPC  H15A 8465   0.342   7.149   2.016  0.1703  0.1888  0.3806
   88SLPC  H15B 8466   0.258   7.295   2.046  0.5296  0.1161  0.2235
   88SLPC  H15C 8467   0.350   7.220   2.171  1.9131  2.3496 -2.5048
   88SLPC   C12 8468   0.095   7.186   2.261 -0.1876  0.1170  0.1380
   88SLPC  H12A 8469  -0.011   7.165   2.262 -0.3563  0.9371  1.2161
   88SLPC  H12B 8470   0.105   7.294   2.261 -0.0608  0.1188  1.9233
   88SLPC   C11 8471   0.166   7.153   2.399  0.0243 -0.1797 -0.1667
   88SLPC  H11A 8472   0.155   7.042   2.405 -1.1073 -0.1648 -1.8038
   88SLPC  H11B 8473   0.114   7.208   2.480 -1.6549 -0.6888 -0.8808
   88SLPC     P 8474   0.354   7.328   2.436  0.2703  0.1484  0.0353
   88SLPC   O13 8475   0.495   7.324   2.489  0.7161 -0.0937 -0.2865
   88SLPC   O14 8476   0.330   7.406   2.314  0.5407  0.3498 -0.4542
   88SLPC   O12 8477   0.309   7.178   2.406  0.5747  0.3075 -0.0394
   88SLPC   O11 8478   0.253   7.387   2.540  0.1095  0.3139  0.6154
   88SLPC    C1 8479   0.285   7.501   2.624  0.2374  0.0030 -0.4072
   88SLPC    HA 8480   0.360   7.574   2.588 -1.3667  1.3367 -1.1530
   88SLPC    HB 8481   0.199   7.570   2.642  1.0978  1.7689 -2.7901
   88SLPC    C2 8482   0.315   7.450   2.770 -0.4211  0.2342  0.7570
   88SLPC    HS 8483   0.336   7.540   2.832  4.1062 -0.2828  0.1082
   88SLPC   O21 8484   0.420   7.349   2.783  0.5321 -0.1014  0.4531
   88SLPC   C21 8485   0.536   7.407   2.766 -0.2558 -0.6767  0.3830
   88SLPC   O22 8486   0.556   7.523   2.731 -0.2847  0.0488  0.6660
   88SLPC   C22 8487   0.641   7.307   2.818  0.3061  0.4020 -0.0813
   88SLPC   H2R 8488   0.593   7.212   2.852  0.1723  0.9260  1.2442
   88SLPC   H2S 8489   0.705   7.287   2.730  2.4648  1.8788  1.1003
   88SLPC    C3 8490   0.186   7.382   2.822  0.2015 -0.6720 -0.1056
   88SLPC    HX 8491   0.155   7.314   2.740  0.6006 -1.4666  0.3973
   88SLPC    HY 8492   0.106   7.459   2.830 -0.5891 -1.3177 -1.5479
   88SLPC   O31 8493   0.204   7.301   2.942 -0.1434  0.1002 -0.0899
   88SLPC   C31 8494   0.262   7.356   3.045 -0.2299 -0.3399  0.0220
   88SLPC   O32 8495   0.289   7.474   3.060 -0.6789 -0.0044  0.4223
   88SLPC   C32 8496   0.311   7.255   3.145  0.2931 -0.0593 -0.8901
   88SLPC   H2X 8497   0.417   7.243   3.112  0.7016  0.7526  0.1174
   88SLPC   H2Y 8498   0.246   7.165   3.141 -3.1566  2.1312  2.6838
   88SLPC   C23 8499   0.723   7.371   2.929 -0.4148  0.6316 -0.4027
   88SLPC   H3R 8500   0.772   7.469   2.910 -1.7057  1.4666  0.5046
   88SLPC   H3S 8501   0.807   7.300   2.942 -1.2656 -0.5372 -1.2611
   88SLPC   C24 8502   0.662   7.370   3.074 -0.1108 -0.4701  0.5757
   88SLPC   H4R 8503   0.651   7.266   3.113 -1.6708 -0.9175 -0.9619
   88SLPC   H4S 8504   0.561   7.416   3.069  0.6175  0.9416 -2.3135
   88SLPC   C25 8505   0.750   7.437   3.179 -0.0330 -0.4665 -0.0649
   88SLPC   H5R 8506   0.691   7.448   3.272 -0.0741  1.5358 -0.2910
   88SLPC   H5S 8507   0.767   7.541   3.144  0.4235  0.4480  2.7600
   88SLPC   C26 8508   0.887   7.369   3.199  0.0067  0.4822 -0.1544
   88SLPC   H6R 8509   0.941   7.367   3.101 -2.2656  4.2364 -1.5617
   88SLPC   H6S 8510   0.862   7.264   3.223  2.1510 -0.2245 -0.8141
   88SLPC   C27 8511   0.973   7.433   3.306  1.0398 -0.6505 -0.1020
   88SLPC   H7R 8512   1.009   7.535   3.279  2.5341 -0.5622  2.0870
   88SLPC   H7S 8513   1.067   7.375   3.320  1.6920  0.4798  0.3139
   88SLPC   C28 8514   0.905   7.449   3.438 -0.2880 -0.0603 -0.3797
   88SLPC   H8R 8515   0.876   7.351   3.481  0.8517 -0.3886 -0.3410
   88SLPC   H8S 8516   0.804   7.493   3.424  0.3754  0.7736 -2.6963
   88SLPC   C29 8517   0.984   7.529   3.537 -0.2943 -0.2826  0.4423
   88SLPC   H9R 8518   1.060   7.602   3.505  0.3745 -0.9254  0.5267
   88SLPC  C210 8519   0.971   7.512   3.675  0.0365 -0.9262 -0.3278
   88SLPC  H10R 8520   1.041   7.567   3.740  1.5493 -2.2742 -0.8001
   88SLPC  C211 8521   0.879   7.419   3.752 -0.4060 -0.3116  0.4297
   88SLPC  H11R 8522   0.791   7.391   3.690 -0.4224 -1.1171  0.8103
   88SLPC  H11S 8523   0.831   7.475   3.834  2.0796 -0.3874  2.0006
   88SLPC  C212 8524   0.965   7.303   3.807 -0.5626 -0.8575  0.1157
   88SLPC  H12R 8525   1.063   7.294   3.758 -0.1946 -2.8218  1.1525
   88SLPC  C213 8526   0.930   7.199   3.886  0.1799 -0.1728 -0.0519
   88SLPC  H13R 8527   1.000   7.114   3.890 -1.9336 -1.9616 -0.2625
   88SLPC  C214 8528   0.788   7.172   3.942 -0.0450 -0.1077  0.4677
   88SLPC  H14R 8529   0.751   7.067   3.950 -2.5297  0.7315  0.4177
   88SLPC  H14S 8530   0.710   7.208   3.872 -0.4071  3.0316  2.3891
   88SLPC  C215 8531   0.756   7.260   4.063  0.0198 -0.4319 -0.5205
   88SLPC  H15R 8532   0.767   7.368   4.041 -0.3572 -0.4041 -0.5719
   88SLPC  H15S 8533   0.832   7.241   4.142  0.3374 -2.4096 -1.2543
   88SLPC  C216 8534   0.624   7.231   4.124 -0.2796  0.1011 -0.2422
   88SLPC  H16R 8535   0.625   7.123   4.149  0.7781  0.1813  0.1047
   88SLPC  H16S 8536   0.537   7.250   4.057  0.4925  1.0690 -0.9980
   88SLPC  C217 8537   0.601   7.309   4.256 -0.6061 -0.0489  0.2092
   88SLPC  H17R 8538   0.635   7.415   4.244 -0.8736  0.2314  1.7908
   88SLPC  H17S 8539   0.674   7.269   4.330  0.6425 -1.1874 -1.5776
   88SLPC  C218 8540   0.458   7.307   4.308 -0.4899 -0.0454  0.5302
   88SLPC  H18R 8541   0.428   7.206   4.344 -1.0874  0.0082  0.1966
   88SLPC  H18S 8542   0.394   7.332   4.221 -0.2713 -1.6449 -0.0850
   88SLPC  H18T 8543   0.436   7.384   4.386 -0.4813  0.2979  0.1939
   88SLPC   C33 8544   0.296   7.307   3.285 -0.3712  0.0521  0.2335
   88SLPC   H3X 8545   0.296   7.221   3.354  2.8334  0.2198  0.5543
   88SLPC   H3Y 8546   0.198   7.359   3.282 -1.1156 -1.4086 -2.7879
   88SLPC   C34 8547   0.403   7.407   3.331 -0.1790 -0.1814  0.7231
   88SLPC   H4X 8548   0.415   7.490   3.258  1.0673  0.8976  2.1091
   88SLPC   H4Y 8549   0.501   7.355   3.332 -0.7012 -1.1573  2.0454
   88SLPC   C35 8550   0.368   7.456   3.471  0.0204  0.1699  0.2511
   88SLPC   H5X 8551   0.340   7.367   3.532  0.3020 -0.1803 -0.1357
   88SLPC   H5Y 8552   0.282   7.524   3.456 -0.0998 -0.1356 -0.4427
   88SLPC   C36 8553   0.484   7.522   3.550  0.0633  0.3524  0.7546
   88SLPC   H6X 8554   0.498   7.628   3.519  0.5855 -0.1105 -0.6553
   88SLPC   H6Y 8555   0.583   7.474   3.536  0.1164  0.9141 -0.8994
   88SLPC   C37 8556   0.458   7.536   3.702 -0.0342  0.0125 -0.6094
   88SLPC   H7X 8557   0.551   7.581   3.743 -0.7199  2.0128 -1.1782
   88SLPC   H7Y 8558   0.437   7.439   3.751  0.7613  0.4527  0.6299
   88SLPC   C38 8559   0.345   7.634   3.719 -0.0404 -0.9969  0.1151
   88SLPC   H8X 8560   0.258   7.580   3.675 -0.0721  0.3167 -1.4451
   88SLPC   H8Y 8561   0.360   7.729   3.665  2.2324 -2.1002 -1.2443
   88SLPC   C39 8562   0.320   7.661   3.865 -0.2339 -0.1783  0.6083
   88SLPC   H9X 8563   0.399   7.734   3.895  1.3417 -1.9325  0.7848
   88SLPC   H9Y 8564   0.341   7.570   3.925 -1.6407 -1.2776 -0.5322
   88SLPC  C310 8565   0.180   7.706   3.904 -0.1380  0.4595 -0.2436
   88SLPC  H10X 8566   0.102   7.637   3.866 -0.4635  0.1690  0.9294
   88SLPC  H10Y 8567   0.145   7.799   3.853 -2.7845  0.4740  1.4930
   88SLPC  C311 8568   0.176   7.728   4.059 -0.5155 -0.3204 -0.1305
   88SLPC  H11X 8569   0.230   7.817   4.098  0.0131 -0.3679 -0.7587
   88SLPC  H11Y 8570   0.213   7.635   4.107  0.4284  1.0960  1.9702
   88SLPC  C312 8571   0.029   7.761   4.106  0.6624 -0.2812  0.5401
   88SLPC  H12X 8572   0.015   7.759   4.216  0.4514  0.9718  0.5467
   88SLPC  H12Y 8573  -0.017   7.662   4.084  0.8083 -0.4810  1.1378
   88SLPC  C313 8574  -0.046   7.890   4.055 -0.0857  0.8499  0.4708
   88SLPC  H13X 8575  -0.154   7.890   4.083 -0.7841 -0.2282 -2.1229
   88SLPC  H13Y 8576  -0.035   7.898   3.945 -0.1900  2.0709  0.5465
   88SLPC  C314 8577   0.019   8.006   4.136  0.6042 -0.5665  0.2423
   88SLPC  H14X 8578   0.124   8.014   4.103  0.6455  1.8864  0.8935
   88SLPC  H14Y 8579   0.029   7.978   4.243  0.6726 -3.5088 -0.4888
   88SLPC  C315 8580  -0.065   8.135   4.121  0.1198 -0.1449 -0.0166
   88SLPC  H15X 8581  -0.169   8.125   4.160 -0.1887  1.8186 -0.2852
   88SLPC  H15Y 8582  -0.063   8.166   4.015 -3.9031  0.1428 -0.0932
   88SLPC  C316 8583  -0.009   8.264   4.192 -0.1818  0.2920 -0.1169
   88SLPC  H16X 8584   0.094   8.289   4.159 -1.4768  5.3703 -0.6395
   88SLPC  H16Y 8585   0.006   8.258   4.302  0.9957  2.2976 -0.1541
   88SLPC  C317 8586  -0.094   8.382   4.150 -0.6695  0.3426 -1.0307
   88SLPC  H17X 8587  -0.204   8.363   4.157 -0.8881  1.1219 -2.2561
   88SLPC  H17Y 8588  -0.086   8.390   4.040 -1.9619 -1.5570 -1.2876
   88SLPC  C318 8589  -0.061   8.511   4.223 -0.5275 -0.0605 -0.0386
   88SLPC  H18X 8590   0.040   8.544   4.192  0.1624  0.1959  2.3714
   88SLPC  H18Y 8591  -0.052   8.481   4.330 -0.7783  2.7139  0.7873
   88SLPC  H18Z 8592  -0.141   8.587   4.210 -2.1439 -1.5506  0.8008
   89SAPE     N 8593   4.416   2.661   6.270 -0.1921  0.0136 -0.0120
   89SAPE   HN1 8594   4.442   2.737   6.205  2.3917 -1.0798 -0.3052
   89SAPE   HN2 8595   4.441   2.686   6.368  0.5722  0.3311 -0.2799
   89SAPE   HN3 8596   4.478   2.585   6.238 -1.9466 -1.4418 -0.0255
   89SAPE   C12 8597   4.272   2.615   6.256 -0.2065  0.0252  0.0453
   89SAPE  H12A 8598   4.270   2.521   6.316  0.1002 -0.3605 -0.5521
   89SAPE  H12B 8599   4.258   2.590   6.149 -1.4408  3.2211 -0.5985
   89SAPE   C11 8600   4.177   2.728   6.305 -0.1706 -0.3307 -0.3359
   89SAPE  H11A 8601   4.201   2.766   6.407 -0.7988 -2.5110  0.6731
   89SAPE  H11B 8602   4.073   2.690   6.316 -0.2355  0.4726  2.3540
   89SAPE     P 8603   4.074   2.949   6.228  0.1849 -0.0097  0.0796
   89SAPE   O13 8604   4.020   2.938   6.366  0.2272 -0.0003  0.6102
   89SAPE   O14 8605   4.135   3.076   6.191  0.7523  0.2913 -0.8062
   89SAPE   O12 8606   4.180   2.830   6.210 -0.2027  0.4550 -0.3555
   89SAPE   O11 8607   3.964   2.909   6.127  0.3383  0.2686  0.8350
   89SAPE    C1 8608   3.980   2.807   6.027  1.2243  0.7469  0.7144
   89SAPE    HA 8609   4.053   2.724   6.043 -0.7537 -0.9710  0.9689
   89SAPE    HB 8610   3.893   2.739   6.016  2.9070 -1.1669 -1.4789
   89SAPE    C2 8611   3.984   2.872   5.878 -0.5494  0.7580 -0.3882
   89SAPE    HS 8612   4.085   2.919   5.871  0.2630 -0.7264  1.0563
   89SAPE   O21 8613   3.881   2.964   5.851 -0.1947  0.3919  0.0945
   89SAPE   C21 8614   3.768   2.973   5.913 -0.0914 -0.1046  0.7987
   89SAPE   O22 8615   3.701   2.887   5.960 -0.4942 -0.0729  0.8246
   89SAPE   C22 8616   3.721   3.125   5.904  0.7172  0.5598 -0.0588
   89SAPE   H2R 8617   3.773   3.182   5.984  2.6463  0.1644 -0.9957
   89SAPE   H2S 8618   3.751   3.166   5.806  1.6371  0.8103  0.3223
   89SAPE    C3 8619   3.981   2.757   5.780  0.1524 -0.1173  0.4539
   89SAPE    HX 8620   4.057   2.678   5.802  0.1070 -0.2460  0.1460
   89SAPE    HY 8621   4.000   2.803   5.681  2.1443 -0.4570  0.6441
   89SAPE   O31 8622   3.855   2.680   5.786 -0.0795  0.1043  0.3664
   89SAPE   C31 8623   3.844   2.605   5.671 -0.5547 -0.2996 -0.6385
   89SAPE   O32 8624   3.935   2.606   5.584  0.0227 -0.0282  0.8634
   89SAPE   C32 8625   3.707   2.540   5.658  0.3723 -0.0057 -0.1852
   89SAPE   H2X 8626   3.640   2.595   5.727 -1.3159 -0.7532 -1.1738
   89SAPE   H2Y 8627   3.721   2.438   5.700  1.0004  0.1931  0.0936
   89SAPE   C23 8628   3.569   3.149   5.903 -0.1498 -0.0950 -0.1396
   89SAPE   H3R 8629   3.553   3.254   5.935  0.7801  0.0640 -0.1931
   89SAPE   H3S 8630   3.517   3.093   5.985 -1.7872  2.5830  0.7157
   89SAPE   C24 8631   3.521   3.117   5.756 -0.0291  0.0421  0.4597
   89SAPE   H4R 8632   3.591   3.165   5.684  0.8101  0.8094  1.7642
   89SAPE   H4S 8633   3.419   3.155   5.734 -0.0348  0.1487  0.6693
   89SAPE   C25 8634   3.506   2.965   5.734 -0.0997 -0.2698 -0.1637
   89SAPE   H5R 8635   3.460   2.907   5.815 -0.8037 -0.8937 -1.0201
   89SAPE   C26 8636   3.539   2.897   5.627 -0.1676  0.3159 -0.1472
   89SAPE   H6R 8637   3.527   2.787   5.627  0.5708  0.2319 -0.6599
   89SAPE   C27 8638   3.602   2.950   5.504 -0.0007 -0.8048  0.1651
   89SAPE   H7R 8639   3.570   3.055   5.490 -0.4211 -0.7278  1.6354
   89SAPE   H7S 8640   3.572   2.886   5.418 -1.8021 -2.2196  1.7967
   89SAPE   C28 8641   3.757   2.962   5.519 -0.3084  0.3431  0.1278
   89SAPE   H8R 8642   3.794   3.006   5.613  0.9526  1.1185 -0.7116
   89SAPE   C29 8643   3.846   2.947   5.420 -0.1677  0.1166  0.2365
   89SAPE   H9R 8644   3.949   2.984   5.433  0.7393 -2.2396  0.0239
   89SAPE  C210 8645   3.821   2.919   5.271 -0.4572  0.1647  0.5244
   89SAPE  H10R 8646   3.868   3.001   5.212 -1.6698  0.4688 -0.0354
   89SAPE  H10S 8647   3.714   2.933   5.245 -0.8974 -0.0745  2.2012
   89SAPE  C211 8648   3.875   2.791   5.226  0.2824  0.4214  0.3443
   89SAPE  H11R 8649   3.889   2.717   5.307  0.6863  1.2882  1.0704
   89SAPE  C212 8650   3.902   2.752   5.095 -0.1547 -0.1993 -0.9223
   89SAPE  H12R 8651   3.956   2.658   5.077 -0.4946 -0.8475  1.2352
   89SAPE  C213 8652   3.882   2.836   4.968  0.3412  0.4312  0.1393
   89SAPE  H13R 8653   3.877   2.945   4.989 -4.3830  0.9362 -2.7896
   89SAPE  H13S 8654   3.777   2.819   4.937 -0.7806  0.7437  3.5985
   89SAPE  C214 8655   3.980   2.824   4.852 -0.1826  0.5118  0.4918
   89SAPE  H14R 8656   4.032   2.727   4.843 -0.9259  0.1446  0.0569
   89SAPE  C215 8657   4.005   2.913   4.755 -0.5503 -0.2243 -0.1849
   89SAPE  H15R 8658   4.097   2.896   4.697  0.5484  0.4929  1.3201
   89SAPE  C216 8659   3.949   3.051   4.736 -0.2713  0.2804 -0.0551
   89SAPE  H16R 8660   4.041   3.112   4.726  1.1041 -2.1564 -3.6291
   89SAPE  H16S 8661   3.881   3.080   4.819  0.7431 -1.1030  1.2933
   89SAPE  C217 8662   3.874   3.058   4.601  0.1952 -0.1245 -0.2466
   89SAPE  H17R 8663   3.781   2.999   4.594  0.0595  0.2597 -1.6441
   89SAPE  H17S 8664   3.945   3.029   4.520  0.0810  1.5567 -0.9582
   89SAPE  C218 8665   3.834   3.198   4.569 -0.2130 -0.3533  0.0109
   89SAPE  H18R 8666   3.752   3.227   4.638  1.4326  0.1963  1.7625
   89SAPE  H18S 8667   3.787   3.201   4.469 -1.4043 -0.0952  0.5682
   89SAPE  C219 8668   3.941   3.309   4.576 -0.0384 -0.3769 -0.3633
   89SAPE  H19R 8669   4.007   3.301   4.665  1.2989  1.2854 -1.1836
   89SAPE  H19S 8670   3.883   3.402   4.594 -1.0752 -1.0974  0.0721
   89SAPE  C220 8671   4.034   3.319   4.448  0.4871  0.2747  0.1390
   89SAPE  H20R 8672   3.975   3.327   4.355  0.8511 -0.7427 -0.1823
   89SAPE  H20S 8673   4.111   3.239   4.450 -0.5492 -0.7406 -0.0247
   89SAPE  H20T 8674   4.083   3.417   4.467  0.4532  0.1353  0.9841
   89SAPE   C33 8675   3.661   2.547   5.514  1.0807  1.0526  0.3121
   89SAPE   H3X 8676   3.684   2.642   5.461 -1.7951  0.9676 -1.1668
   89SAPE   H3Y 8677   3.551   2.545   5.500  0.7290  1.8862  2.7950
   89SAPE   C34 8678   3.728   2.435   5.423 -1.0675 -0.5471 -0.2080
   89SAPE   H4X 8679   3.715   2.338   5.477  0.8194 -0.2124  0.8745
   89SAPE   H4Y 8680   3.839   2.446   5.424 -1.0285 -0.2090 -2.8890
   89SAPE   C35 8681   3.667   2.436   5.282 -0.3780  0.5734 -0.2964
   89SAPE   H5X 8682   3.677   2.536   5.233 -0.3337  0.7235  0.0143
   89SAPE   H5Y 8683   3.561   2.413   5.304  0.1077  0.5453  2.1724
   89SAPE   C36 8684   3.735   2.333   5.193 -0.1422 -0.2021  0.2806
   89SAPE   H6X 8685   3.713   2.232   5.233  2.7086 -0.6114  0.9848
   89SAPE   H6Y 8686   3.844   2.354   5.187 -0.0923 -0.7582 -0.9621
   89SAPE   C37 8687   3.675   2.344   5.049  0.6816  0.6461  0.6053
   89SAPE   H7X 8688   3.569   2.311   5.051  0.6426  0.6323 -1.1011
   89SAPE   H7Y 8689   3.725   2.258   5.000  0.6746  0.0285  1.6584
   89SAPE   C38 8690   3.703   2.472   4.970  0.2315  0.0893  0.6081
   89SAPE   H8X 8691   3.809   2.503   4.977  0.1180  0.8973 -0.9064
   89SAPE   H8Y 8692   3.630   2.549   5.003 -1.1775 -1.5622  1.4405
   89SAPE   C39 8693   3.677   2.457   4.818  1.4757  0.2439 -0.5265
   89SAPE   H9X 8694   3.574   2.417   4.810  0.6672  2.4371 -1.7549
   89SAPE   H9Y 8695   3.746   2.384   4.771 -0.2178  0.1753 -2.9580
   89SAPE  C310 8696   3.711   2.584   4.740  0.1808 -0.0847 -0.9968
   89SAPE  H10X 8697   3.811   2.612   4.779 -0.4192  1.3947 -0.4889
   89SAPE  H10Y 8698   3.638   2.660   4.776  0.6385 -1.4896  3.2035
   89SAPE  C311 8699   3.718   2.579   4.588 -0.5812  0.1365  0.2770
   89SAPE  H11X 8700   3.613   2.572   4.552 -1.0978  0.8800  1.5974
   89SAPE  H11Y 8701   3.771   2.483   4.569  0.9149  1.3030 -1.6330
   89SAPE  C312 8702   3.789   2.698   4.521  0.6208 -1.2392  0.2068
   89SAPE  H12X 8703   3.896   2.699   4.551  0.5727 -0.6085  0.3802
   89SAPE  H12Y 8704   3.727   2.785   4.552  0.8626 -2.0059  2.9520
   89SAPE  C313 8705   3.797   2.685   4.366  0.0453  0.1024 -0.0148
   89SAPE  H13X 8706   3.692   2.671   4.331 -0.3482 -1.1154  1.5780
   89SAPE  H13Y 8707   3.863   2.598   4.348  0.7912  0.8646 -0.9972
   89SAPE  C314 8708   3.866   2.809   4.305  0.1237  0.4203 -0.4588
   89SAPE  H14X 8709   3.977   2.811   4.311  0.2101  1.6398 -1.9457
   89SAPE  H14Y 8710   3.826   2.904   4.348 -1.2844  0.2236 -1.2823
   89SAPE  C315 8711   3.838   2.810   4.157 -0.2438 -0.1112  0.1127
   89SAPE  H15X 8712   3.886   2.895   4.104  0.7479 -0.2074  0.8334
   89SAPE  H15Y 8713   3.727   2.808   4.149 -0.4035 -0.8000  2.2112
   89SAPE  C316 8714   3.905   2.689   4.093  0.5739  0.0319  0.1774
   89SAPE  H16X 8715   3.887   2.677   3.984 -1.1995 -1.1265  0.5645
   89SAPE  H16Y 8716   3.858   2.600   4.142  0.2196  1.3576  2.2949
   89SAPE  C317 8717   4.058   2.686   4.107  0.3634  0.4041 -0.5330
   89SAPE  H17X 8718   4.098   2.686   4.211 -1.9782 -3.0489  0.4489
   89SAPE  H17Y 8719   4.092   2.775   4.050 -0.3466 -1.1210 -3.4920
   89SAPE  C318 8720   4.112   2.562   4.033 -0.5279 -0.1179  0.5116
   89SAPE  H18X 8721   4.082   2.466   4.080  0.5580 -0.2309  0.9893
   89SAPE  H18Y 8722   4.221   2.571   4.011 -0.2943  3.0840  2.5716
   89SAPE  H18Z 8723   4.070   2.558   3.930  0.7204  2.7833 -0.1498
   90SAPE     N 8724   5.067   3.035   6.233 -0.2230 -0.6499 -0.4789
   90SAPE   HN1 8725   5.097   3.092   6.151  0.9281 -0.8005 -0.1781
   90SAPE   HN2 8726   5.102   2.938   6.219 -1.1679 -1.5375  2.8248
   90SAPE   HN3 8727   4.963   3.040   6.232 -0.1712  0.6314 -0.1596
   90SAPE   C12 8728   5.122   3.099   6.357  0.4352  0.4780 -0.1164
   90SAPE  H12A 8729   5.230   3.077   6.348  0.7831  1.1463  2.1295
   90SAPE  H12B 8730   5.082   3.053   6.451  0.2158  1.8061  0.4560
   90SAPE   C11 8731   5.087   3.251   6.355  0.3816 -0.2766  0.0166
   90SAPE  H11A 8732   5.148   3.297   6.436 -0.2982  0.3371  0.1820
   90SAPE  H11B 8733   4.979   3.262   6.377  0.0320 -0.6277 -1.4449
   90SAPE     P 8734   5.126   3.456   6.200 -0.1310 -0.1597 -0.4352
   90SAPE   O13 8735   5.002   3.523   6.186  0.7203 -0.5556 -0.3958
   90SAPE   O14 8736   5.207   3.512   6.311 -0.2399  0.6811 -0.0729
   90SAPE   O12 8737   5.115   3.295   6.220  0.2683  0.2867 -0.2991
   90SAPE   O11 8738   5.195   3.479   6.069 -0.2197 -0.0964  0.2413
   90SAPE    C1 8739   5.292   3.383   6.027  0.0488  1.1732 -0.1621
   90SAPE    HA 8740   5.365   3.367   6.109  0.1878 -0.6860 -0.6070
   90SAPE    HB 8741   5.243   3.284   6.010  3.4696 -0.5930 -0.3179
   90SAPE    C2 8742   5.363   3.417   5.893 -0.5665  0.5001  0.6472
   90SAPE    HS 8743   5.435   3.501   5.906  0.1231  0.2738 -1.4593
   90SAPE   O21 8744   5.272   3.452   5.790  0.5306 -0.6583  0.1473
   90SAPE   C21 8745   5.238   3.589   5.790 -0.6664  0.3626  0.2252
   90SAPE   O22 8746   5.280   3.677   5.859 -0.3666 -0.2372 -0.0672
   90SAPE   C22 8747   5.142   3.612   5.668  0.2276  0.2558  0.3806
   90SAPE   H2R 8748   5.194   3.570   5.580  0.3709 -1.2445  1.1495
   90SAPE   H2S 8749   5.049   3.552   5.675 -1.4957  2.5226 -2.4184
   90SAPE    C3 8750   5.441   3.294   5.840 -0.4424  1.0005 -0.0565
   90SAPE    HX 8751   5.474   3.246   5.935 -3.8047 -0.3774  0.5119
   90SAPE    HY 8752   5.524   3.332   5.777  0.3034 -0.1600  0.2158
   90SAPE   O31 8753   5.346   3.200   5.783 -0.3232 -0.6426 -0.1022
   90SAPE   C31 8754   5.384   3.161   5.665  0.6268  0.3604 -0.3117
   90SAPE   O32 8755   5.490   3.185   5.611  0.1273  0.0388 -0.1467
   90SAPE   C32 8756   5.280   3.068   5.593  0.1956  0.3498  0.6280
   90SAPE   H2X 8757   5.239   3.122   5.506  0.0313 -0.2252  0.3496
   90SAPE   H2Y 8758   5.198   3.055   5.667 -1.5478 -0.0710 -1.3454
   90SAPE   C23 8759   5.090   3.757   5.647  0.1463  0.2509  0.9077
   90SAPE   H3R 8760   5.182   3.820   5.650  0.7069 -0.5964  1.5627
   90SAPE   H3S 8761   5.037   3.795   5.737  0.3641 -0.0807  1.1730
   90SAPE   C24 8762   5.005   3.763   5.512 -0.3647  0.2200  0.0546
   90SAPE   H4R 8763   4.946   3.856   5.522 -0.4163  0.0579  1.4091
   90SAPE   H4S 8764   4.934   3.677   5.512  0.4916 -0.5090  0.6672
   90SAPE   C25 8765   5.089   3.768   5.391  0.2180 -0.2217  0.4443
   90SAPE   H5R 8766   5.168   3.843   5.392  0.2177 -0.1712 -1.0854
   90SAPE   C26 8767   5.078   3.678   5.290 -0.1898 -0.1068  0.1016
   90SAPE   H6R 8768   5.151   3.682   5.208  0.4688  0.1736  0.6908
   90SAPE   C27 8769   4.977   3.560   5.278 -0.0480  0.2920 -0.3495
   90SAPE   H7R 8770   4.955   3.560   5.169 -0.7493  0.4980 -0.2103
   90SAPE   H7S 8771   4.881   3.589   5.325 -1.2887 -0.1821 -2.5174
   90SAPE   C28 8772   5.015   3.419   5.330 -0.0671 -1.0824  0.5483
   90SAPE   H8R 8773   4.962   3.393   5.423  0.1180  0.6872  1.1715
   90SAPE   C29 8774   5.097   3.323   5.281  0.8110  0.2427 -0.2976
   90SAPE   H9R 8775   5.110   3.238   5.350  1.8876  1.7893  1.4652
   90SAPE  C210 8776   5.181   3.327   5.155 -0.2433 -0.7838  0.4275
   90SAPE  H10R 8777   5.173   3.428   5.111  0.8293  0.3382  2.6831
   90SAPE  H10S 8778   5.137   3.263   5.075  0.3299  0.2103 -0.6972
   90SAPE  C211 8779   5.327   3.292   5.182  0.4778  0.0379  0.1839
   90SAPE  H11R 8780   5.373   3.347   5.265  0.8129 -3.1513  2.2154
   90SAPE  C212 8781   5.394   3.189   5.120  0.4253 -0.9126  0.1674
   90SAPE  H12R 8782   5.496   3.165   5.152  0.8010  0.1414 -0.2143
   90SAPE  C213 8783   5.335   3.096   5.014  0.7733 -0.0117  0.5126
   90SAPE  H13R 8784   5.404   3.083   4.927  2.2246  0.1943  1.6125
   90SAPE  H13S 8785   5.253   3.137   4.952  1.0800 -2.3529 -1.5434
   90SAPE  C214 8786   5.275   2.965   5.070 -0.7415 -0.2333 -0.8122
   90SAPE  H14R 8787   5.223   2.970   5.167 -0.1941  0.7124 -0.5651
   90SAPE  C215 8788   5.272   2.853   4.998 -0.6119  0.0569  0.3954
   90SAPE  H15R 8789   5.242   2.762   5.051 -1.9454 -0.1207 -0.6442
   90SAPE  C216 8790   5.319   2.810   4.858  0.5602  0.2858  1.2851
   90SAPE  H16R 8791   5.391   2.885   4.819 -0.5470  1.2334  1.0035
   90SAPE  H16S 8792   5.234   2.805   4.787  1.2540 -0.5918  0.5165
   90SAPE  C217 8793   5.395   2.681   4.871 -0.1741 -0.8474 -0.6532
   90SAPE  H17R 8794   5.317   2.601   4.873 -0.2995 -0.6870  1.3137
   90SAPE  H17S 8795   5.455   2.678   4.964 -1.2740  0.3558  0.1144
   90SAPE  C218 8796   5.492   2.654   4.753  0.2305  0.8061 -0.0215
   90SAPE  H18R 8797   5.573   2.730   4.762  0.2223  0.4990  2.8526
   90SAPE  H18S 8798   5.447   2.656   4.651  0.3774  2.0820 -0.0718
   90SAPE  C219 8799   5.564   2.518   4.768 -0.3225  0.6740  0.5907
   90SAPE  H19R 8800   5.501   2.428   4.786 -1.2371  0.5876 -2.7104
   90SAPE  H19S 8801   5.623   2.528   4.862  1.6186 -2.8890 -0.1576
   90SAPE  C220 8802   5.658   2.488   4.649 -0.6321 -0.5672 -0.2586
   90SAPE  H20R 8803   5.713   2.392   4.657 -2.2690 -2.0715 -5.2715
   90SAPE  H20S 8804   5.733   2.568   4.632 -2.2857  2.7870  6.2809
   90SAPE  H20T 8805   5.600   2.473   4.555  1.5628  1.7159 -2.0421
   90SAPE   C33 8806   5.346   2.932   5.568 -0.6077 -0.3887 -0.0233
   90SAPE   H3X 8807   5.329   2.857   5.648 -1.4721 -2.2918 -1.9532
   90SAPE   H3Y 8808   5.455   2.951   5.561 -0.9288  2.2841  1.2993
   90SAPE   C34 8809   5.290   2.874   5.439 -0.3249  0.3403  0.2273
   90SAPE   H4X 8810   5.343   2.791   5.386 -0.2140  0.0430  0.7973
   90SAPE   H4Y 8811   5.316   2.952   5.364  1.7055 -0.7336 -0.2306
   90SAPE   C35 8812   5.146   2.841   5.449  0.2703  0.5149  0.7420
   90SAPE   H5X 8813   5.110   2.830   5.345  1.2210  1.0142  0.3585
   90SAPE   H5Y 8814   5.090   2.919   5.505  1.5494  3.5307 -2.0865
   90SAPE   C36 8815   5.130   2.704   5.513 -0.6157 -0.9848 -0.4793
   90SAPE   H6X 8816   5.175   2.714   5.614  0.3581  2.4892 -1.1904
   90SAPE   H6Y 8817   5.182   2.629   5.449 -1.6602 -1.8229 -0.3546
   90SAPE   C37 8818   4.980   2.659   5.535  0.8550  0.0255 -0.2603
   90SAPE   H7X 8819   4.928   2.755   5.557 -1.1711 -0.8144 -1.2689
   90SAPE   H7Y 8820   4.974   2.597   5.627  0.1596 -0.8451 -0.8813
   90SAPE   C38 8821   4.914   2.572   5.433 -0.2995 -0.3206 -1.0855
   90SAPE   H8X 8822   4.811   2.540   5.459 -0.2836 -0.5218 -1.2644
   90SAPE   H8Y 8823   4.979   2.482   5.426  0.3672  0.1136 -0.5345
   90SAPE   C39 8824   4.889   2.623   5.290  0.4185 -0.0594  1.2337
   90SAPE   H9X 8825   4.833   2.555   5.222 -2.9132  0.0883  3.6857
   90SAPE   H9Y 8826   4.993   2.625   5.252  2.1739 -0.8250  5.6794
   90SAPE  C310 8827   4.826   2.761   5.287 -0.9510  0.2079  0.0188
   90SAPE  H10X 8828   4.893   2.843   5.323 -2.1103  1.7024 -1.1533
   90SAPE  H10Y 8829   4.739   2.769   5.356 -1.8375  0.0546 -1.0745
   90SAPE  C311 8830   4.784   2.799   5.144 -0.4092 -0.3509  0.1114
   90SAPE  H11X 8831   4.722   2.714   5.110  0.9014 -1.6855  1.0180
   90SAPE  H11Y 8832   4.864   2.791   5.068 -0.6209  2.2910 -0.4368
   90SAPE  C312 8833   4.696   2.924   5.117 -0.2899 -0.2127  0.2936
   90SAPE  H12X 8834   4.736   3.009   5.177 -0.4212 -0.0387  0.1363
   90SAPE  H12Y 8835   4.591   2.897   5.141 -0.5974  1.3896  0.8246
   90SAPE  C313 8836   4.696   2.967   4.974 -0.0671  0.0366  0.0310
   90SAPE  H13X 8837   4.608   3.035   4.963 -0.9443 -1.2803 -1.3091
   90SAPE  H13Y 8838   4.683   2.881   4.905 -0.6363  0.3590 -0.2666
   90SAPE  C314 8839   4.831   3.044   4.946  0.4258  0.2103 -0.1037
   90SAPE  H14X 8840   4.919   2.976   4.956 -0.0612 -0.3680  0.2240
   90SAPE  H14Y 8841   4.861   3.115   5.026  0.8897  0.2576 -0.3159
   90SAPE  C315 8842   4.835   3.118   4.808 -0.5896  0.5332 -0.3473
   90SAPE  H15X 8843   4.914   3.195   4.822 -1.4712  1.1280  1.5279
   90SAPE  H15Y 8844   4.743   3.173   4.779  0.0850  1.6683 -0.4067
   90SAPE  C316 8845   4.879   3.032   4.682  0.7356  0.0422  0.0545
   90SAPE  H16X 8846   4.808   2.949   4.664  1.2569 -0.0292 -1.6610
   90SAPE  H16Y 8847   4.971   2.985   4.723  0.7400 -0.3083 -0.3591
   90SAPE  C317 8848   4.898   3.119   4.561  0.2335  0.3981  0.2165
   90SAPE  H17X 8849   4.913   3.055   4.472  0.0773 -1.0276  1.2037
   90SAPE  H17Y 8850   4.987   3.186   4.568  0.3010  0.3531 -0.1768
   90SAPE  C318 8851   4.777   3.207   4.518 -0.1341 -0.2655 -0.9743
   90SAPE  H18X 8852   4.797   3.258   4.421  2.4451  2.4584  0.9295
   90SAPE  H18Y 8853   4.741   3.283   4.591  2.5001 -0.6242  0.7367
   90SAPE  H18Z 8854   4.691   3.138   4.505 -0.4949 -0.4719  2.1932
   91SAPE     N 8855   1.605   3.714   6.221  0.3441  0.3138  0.5528
   91SAPE   HN1 8856   1.639   3.779   6.295 -0.6717  3.2318 -1.4178
   91SAPE   HN2 8857   1.502   3.708   6.233  0.2136  0.3537 -0.4402
   91SAPE   HN3 8858   1.648   3.620   6.226 -0.6731 -0.1262  1.1103
   91SAPE   C12 8859   1.642   3.753   6.075  0.1785  0.1003  0.1341
   91SAPE  H12A 8860   1.658   3.863   6.071  1.1433  0.0945  3.0193
   91SAPE  H12B 8861   1.554   3.730   6.011  0.1385 -3.9230  1.4993
   91SAPE   C11 8862   1.780   3.702   6.029 -0.4135  0.0115 -0.8184
   91SAPE  H11A 8863   1.807   3.751   5.933  0.0835  0.9960 -0.1882
   91SAPE  H11B 8864   1.772   3.591   6.024 -0.0897 -0.0673  0.1666
   91SAPE     P 8865   1.969   3.857   6.150  0.3444  0.2116  0.1444
   91SAPE   O13 8866   1.895   3.947   6.243  0.2278 -0.6530  0.2468
   91SAPE   O14 8867   2.105   3.808   6.180  0.4334  0.3584  0.0242
   91SAPE   O12 8868   1.884   3.730   6.126  1.1056 -0.4949  0.3931
   91SAPE   O11 8869   1.974   3.923   6.001 -0.5179 -0.6447 -0.2670
   91SAPE    C1 8870   2.084   4.009   5.967  0.7001  0.0258  0.0236
   91SAPE    HA 8871   2.050   4.113   5.984 -0.3918 -0.4915  1.1055
   91SAPE    HB 8872   2.174   3.994   6.029  0.0187 -0.1874  0.9795
   91SAPE    C2 8873   2.127   3.976   5.818 -0.3701  0.0771 -0.4554
   91SAPE    HS 8874   2.234   4.006   5.811 -0.5514  1.4112  1.8234
   91SAPE   O21 8875   2.046   4.061   5.732  0.2875 -0.3623  0.2258
   91SAPE   C21 8876   2.077   4.064   5.608 -0.4205 -0.0133 -0.0596
   91SAPE   O22 8877   2.180   4.009   5.559 -0.5383  0.4892  0.2800
   91SAPE   C22 8878   1.967   4.122   5.520 -0.6634  0.2222  0.2738
   91SAPE   H2R 8879   1.867   4.089   5.555 -2.1286 -0.9179 -4.6248
   91SAPE   H2S 8880   1.961   4.233   5.520  1.0942  0.3335  0.8160
   91SAPE    C3 8881   2.121   3.825   5.776 -0.3660  0.9013 -0.2239
   91SAPE    HX 8882   2.161   3.766   5.861  1.0333  4.0901  1.4317
   91SAPE    HY 8883   2.176   3.807   5.681 -1.5242  2.6495 -1.2674
   91SAPE   O31 8884   1.985   3.784   5.754  0.3210  0.1406  0.4084
   91SAPE   C31 8885   1.974   3.660   5.696 -0.1570 -0.9107 -0.1226
   91SAPE   O32 8886   2.070   3.588   5.686 -0.2928  0.0594 -0.5412
   91SAPE   C32 8887   1.830   3.626   5.653 -0.3916  0.1231 -0.3406
   91SAPE   H2X 8888   1.764   3.660   5.735 -0.0989 -3.3811  1.4706
   91SAPE   H2Y 8889   1.823   3.515   5.654  0.0201  0.0974  0.2079
   91SAPE   C23 8890   1.985   4.081   5.374  0.0183  0.5177  0.1355
   91SAPE   H3R 8891   1.881   4.093   5.336  0.0707  2.4976  0.5745
   91SAPE   H3S 8892   2.014   3.974   5.377  1.0774  0.8058  0.1881
   91SAPE   C24 8893   2.088   4.159   5.301  0.6103  0.0121  0.7603
   91SAPE   H4R 8894   2.184   4.158   5.357 -0.1734  1.4009  2.1899
   91SAPE   H4S 8895   2.059   4.266   5.307  0.0937 -0.0950  0.1469
   91SAPE   C25 8896   2.086   4.094   5.162  0.3492 -0.1950  0.2492
   91SAPE   H5R 8897   2.001   4.117   5.096 -0.8731 -2.2704  1.0366
   91SAPE   C26 8898   2.150   3.984   5.121 -0.2106 -1.0382 -0.6463
   91SAPE   H6R 8899   2.124   3.953   5.018 -2.1121 -0.0391 -0.4895
   91SAPE   C27 8900   2.242   3.897   5.194 -0.0615  0.1100  0.3783
   91SAPE   H7R 8901   2.298   3.933   5.283 -0.2728 -0.9346  0.9467
   91SAPE   H7S 8902   2.319   3.874   5.117  0.6647 -1.3343  1.5074
   91SAPE   C28 8903   2.167   3.773   5.245  0.1905  0.1770  0.2561
   91SAPE   H8R 8904   2.191   3.766   5.352 -3.1846  1.2134  1.1516
   91SAPE   C29 8905   2.099   3.674   5.189  0.3378  0.5183  0.0158
   91SAPE   H9R 8906   2.043   3.604   5.253 -1.2770 -0.9701 -2.9634
   91SAPE  C210 8907   2.074   3.660   5.043 -0.8703 -0.0220 -0.4817
   91SAPE  H10R 8908   2.141   3.576   5.017 -0.3960  0.6789 -1.5844
   91SAPE  H10S 8909   2.097   3.750   4.982  2.1206 -0.7052 -0.4026
   91SAPE  C211 8910   1.940   3.616   5.009 -0.0410 -0.1967  0.5827
   91SAPE  H11R 8911   1.894   3.552   5.086  1.0676  0.2568  1.6528
   91SAPE  C212 8912   1.875   3.645   4.886  0.0843 -0.3118  0.3134
   91SAPE  H12R 8913   1.782   3.589   4.869  1.3727 -2.8471  1.2678
   91SAPE  C213 8914   1.938   3.725   4.771  0.5429 -0.1026 -0.0184
   91SAPE  H13R 8915   2.032   3.684   4.727 -0.3981 -0.2693 -1.9147
   91SAPE  H13S 8916   1.960   3.821   4.822  0.8218  0.7568 -1.7122
   91SAPE  C214 8917   1.837   3.751   4.663 -0.5789 -0.3463 -0.1896
   91SAPE  H14R 8918   1.746   3.801   4.698 -0.4950 -0.1787 -0.2107
   91SAPE  C215 8919   1.852   3.700   4.537  0.1041 -0.2967 -0.4691
   91SAPE  H15R 8920   1.787   3.740   4.458 -0.0472 -0.5331 -0.4634
   91SAPE  C216 8921   1.958   3.612   4.484  0.1792 -0.4032  0.3603
   91SAPE  H16R 8922   2.026   3.573   4.563  0.9782  1.4403  0.6035
   91SAPE  H16S 8923   2.017   3.679   4.418 -1.5784  0.0194 -0.8046
   91SAPE  C217 8924   1.891   3.512   4.403  0.0228 -0.3567  0.1334
   91SAPE  H17R 8925   1.838   3.563   4.318 -0.6028  0.4083  0.9697
   91SAPE  H17S 8926   1.818   3.453   4.463 -2.4426  3.7046  1.3838
   91SAPE  C218 8927   1.995   3.408   4.346 -0.1241 -0.2000  0.0834
   91SAPE  H18R 8928   2.053   3.360   4.428  0.0028 -0.3745 -0.1079
   91SAPE  H18S 8929   2.069   3.450   4.276  0.6679 -0.8714  0.5085
   91SAPE  C219 8930   1.922   3.289   4.285  0.0580  0.9784  0.1252
   91SAPE  H19R 8931   1.883   3.317   4.184  1.6375 -0.6571 -0.9661
   91SAPE  H19S 8932   1.844   3.256   4.357 -0.9947 -2.0755 -2.2958
   91SAPE  C220 8933   2.024   3.180   4.260  0.0071 -0.6450  0.2332
   91SAPE  H20R 8934   2.036   3.129   4.357 -0.3129  3.3739  2.4818
   91SAPE  H20S 8935   2.112   3.229   4.213 -1.7562 -0.0701 -2.6840
   91SAPE  H20T 8936   1.987   3.108   4.184 -0.7582  1.3550 -1.3615
   91SAPE   C33 8937   1.803   3.668   5.510  0.5707 -0.2947 -0.5364
   91SAPE   H3X 8938   1.795   3.579   5.444 -0.4237 -1.2350  0.8264
   91SAPE   H3Y 8939   1.883   3.733   5.468 -1.6650  1.8916 -1.5314
   91SAPE   C34 8940   1.668   3.740   5.515  0.4707  0.4448 -0.0168
   91SAPE   H4X 8941   1.664   3.846   5.550  1.1462 -0.0916  1.7592
   91SAPE   H4Y 8942   1.608   3.688   5.593  1.3343 -1.4385 -0.5709
   91SAPE   C35 8943   1.602   3.759   5.386  0.5526  0.1546  0.2974
   91SAPE   H5X 8944   1.507   3.813   5.406  0.5979 -0.0260  1.0025
   91SAPE   H5Y 8945   1.579   3.662   5.337 -1.6320  1.5011 -1.4837
   91SAPE   C36 8946   1.685   3.843   5.283  0.4245 -0.0423  0.5015
   91SAPE   H6X 8947   1.786   3.799   5.284  0.0896 -0.9323 -1.9104
   91SAPE   H6Y 8948   1.692   3.949   5.318 -0.0577 -0.1289  0.8713
   91SAPE   C37 8949   1.638   3.829   5.141  0.0003 -0.0726 -0.1522
   91SAPE   H7X 8950   1.530   3.840   5.121 -0.3534 -2.1913  0.4818
   91SAPE   H7Y 8951   1.653   3.724   5.110  2.5717  0.7009 -1.7040
   91SAPE   C38 8952   1.711   3.921   5.045 -0.5468  0.3678  0.6617
   91SAPE   H8X 8953   1.803   3.872   5.007  1.6712  2.7114  2.8577
   91SAPE   H8Y 8954   1.753   4.013   5.091  1.0177 -0.2055  0.4058
   91SAPE   C39 8955   1.631   3.975   4.926  0.5298 -0.4914  0.4571
   91SAPE   H9X 8956   1.526   3.995   4.957  0.3731 -1.2862  0.4590
   91SAPE   H9Y 8957   1.622   3.891   4.854  0.2938 -0.4438  0.4315
   91SAPE  C310 8958   1.702   4.093   4.857 -0.0168  0.4464 -0.1236
   91SAPE  H10X 8959   1.791   4.060   4.799  1.0276  2.7242  0.1140
   91SAPE  H10Y 8960   1.728   4.172   4.931 -0.4518 -1.5984  2.2590
   91SAPE  C311 8961   1.609   4.160   4.764 -0.1958 -0.1836 -0.4141
   91SAPE  H11X 8962   1.507   4.148   4.805 -0.9065 -0.8831 -2.3071
   91SAPE  H11Y 8963   1.599   4.095   4.674 -2.2100 -1.0748  0.4307
   91SAPE  C312 8964   1.643   4.305   4.723 -0.1041  0.0590 -0.1634
   91SAPE  H12X 8965   1.736   4.303   4.664  0.4200  4.3316  0.3577
   91SAPE  H12Y 8966   1.670   4.358   4.817 -0.2888 -0.3395  0.1190
   91SAPE  C313 8967   1.529   4.359   4.640 -0.3788 -0.0271  0.4288
   91SAPE  H13X 8968   1.430   4.353   4.690 -1.3245  0.0623 -1.3795
   91SAPE  H13Y 8969   1.513   4.298   4.549 -0.6096 -1.0290  1.1331
   91SAPE  C314 8970   1.564   4.499   4.585 -0.9672  0.5300 -0.0719
   91SAPE  H14X 8971   1.635   4.477   4.502 -1.5590  2.1425 -1.0337
   91SAPE  H14Y 8972   1.624   4.555   4.660  1.2638 -1.7432 -0.0701
   91SAPE  C315 8973   1.439   4.563   4.532 -0.4066 -0.2250 -0.0567
   91SAPE  H15X 8974   1.366   4.565   4.616  1.0812  1.5183  1.2525
   91SAPE  H15Y 8975   1.401   4.504   4.447  1.4940 -0.6287 -0.6569
   91SAPE  C316 8976   1.451   4.707   4.483 -0.3459  0.1436 -0.5983
   91SAPE  H16X 8977   1.529   4.706   4.404 -2.1432 -1.7773 -2.3993
   91SAPE  H16Y 8978   1.480   4.780   4.562  0.3891  0.2442 -0.9558
   91SAPE  C317 8979   1.323   4.753   4.423  0.4085  0.1301  0.7791
   91SAPE  H17X 8980   1.239   4.751   4.495 -0.6065 -2.4985 -0.4104
   91SAPE  H17Y 8981   1.282   4.688   4.343  2.6085  1.0905 -1.1844
   91SAPE  C318 8982   1.346   4.889   4.353 -0.4064 -0.4536  0.1768
   91SAPE  H18X 8983   1.262   4.912   4.283  0.7824  1.3807 -0.7013
   91SAPE  H18Y 8984   1.432   4.870   4.285 -0.1785  1.3516 -0.0607
   91SAPE  H18Z 8985   1.361   4.968   4.430 -1.4124 -2.1188  2.1383
   92SAPE     N 8986   2.952   5.980   6.216 -0.2178  0.3014  1.0667
   92SAPE   HN1 8987   3.017   5.903   6.241  1.0870  0.8668 -0.4949
   92SAPE   HN2 8988   2.995   6.034   6.138 -0.8777 -2.8683 -1.5796
   92SAPE   HN3 8989   2.943   6.046   6.296 -2.3029  0.1410  1.0129
   92SAPE   C12 8990   2.813   5.921   6.195  0.8896 -0.4352  0.2905
   92SAPE  H12A 8991   2.793   5.916   6.086 -0.5445  0.4945  0.4969
   92SAPE  H12B 8992   2.753   5.997   6.249 -2.1148 -2.3157 -0.2570
   92SAPE   C11 8993   2.789   5.786   6.268  0.3212  0.3420 -0.7513
   92SAPE  H11A 8994   2.684   5.751   6.275  0.4019  0.2011 -0.2200
   92SAPE  H11B 8995   2.820   5.796   6.374 -0.7227  2.3088 -0.6155
   92SAPE     P 8996   2.907   5.548   6.281  0.2069 -0.5696 -0.3152
   92SAPE   O13 8997   3.034   5.575   6.352 -0.1017 -0.0525  0.5780
   92SAPE   O14 8998   2.785   5.501   6.355 -0.0807  0.8906  0.0141
   92SAPE   O12 8999   2.870   5.690   6.213 -0.5306  0.4997  0.3922
   92SAPE   O11 9000   2.928   5.446   6.157 -0.3478 -0.1187 -0.3227
   92SAPE    C1 9001   2.898   5.309   6.188  0.3077  0.2788 -0.6107
   92SAPE    HA 9002   2.903   5.275   6.294  1.6466 -0.6038 -0.9480
   92SAPE    HB 9003   2.790   5.298   6.165  0.4508 -0.0326 -1.1407
   92SAPE    C2 9004   2.973   5.223   6.089 -0.0872 -0.1344 -0.0903
   92SAPE    HS 9005   2.933   5.120   6.104 -0.7727  0.2456  0.7993
   92SAPE   O21 9006   3.116   5.227   6.124 -0.1527 -1.0607  0.1713
   92SAPE   C21 9007   3.186   5.139   6.061 -0.3713 -0.6529 -0.2524
   92SAPE   O22 9008   3.152   5.041   5.994  0.5932 -0.0463 -0.8808
   92SAPE   C22 9009   3.337   5.157   6.095 -0.2294  0.3640 -0.1732
   92SAPE   H2R 9010   3.346   5.154   6.206  0.8392 -0.4057 -0.2679
   92SAPE   H2S 9011   3.386   5.067   6.051  0.9801  2.0815 -2.4613
   92SAPE    C3 9012   2.950   5.257   5.936  0.5325 -1.0574  0.0704
   92SAPE    HX 9013   2.841   5.250   5.914  0.8481  0.1272 -2.0597
   92SAPE    HY 9014   3.004   5.190   5.867 -1.2204 -1.0843 -1.3213
   92SAPE   O31 9015   3.004   5.396   5.909  0.0366  0.5512  0.2446
   92SAPE   C31 9016   2.915   5.488   5.878  0.4004  0.6511  0.3393
   92SAPE   O32 9017   2.795   5.470   5.864 -0.5301 -0.1861  0.1956
   92SAPE   C32 9018   2.982   5.622   5.862 -0.7345 -0.5812  0.3968
   92SAPE   H2X 9019   3.087   5.596   5.838 -0.4722 -1.0349  1.9881
   92SAPE   H2Y 9020   2.973   5.675   5.959 -1.5671 -3.3885  1.9017
   92SAPE   C23 9021   3.410   5.279   6.027  0.1630 -0.0376  0.2510
   92SAPE   H3R 9022   3.499   5.310   6.086  0.9980 -0.4943 -0.7693
   92SAPE   H3S 9023   3.347   5.369   6.012 -2.1783 -1.6580 -0.0246
   92SAPE   C24 9024   3.462   5.232   5.894  0.4352  0.4370 -0.7094
   92SAPE   H4R 9025   3.514   5.134   5.903  1.6820  1.1497  0.0932
   92SAPE   H4S 9026   3.547   5.294   5.856  0.5746  0.8817  0.3177
   92SAPE   C25 9027   3.357   5.204   5.793  0.6907  0.6188 -0.3745
   92SAPE   H5R 9028   3.298   5.113   5.807 -0.0482  1.1933  0.2818
   92SAPE   C26 9029   3.332   5.282   5.682 -0.1453  0.5686 -0.1980
   92SAPE   H6R 9030   3.263   5.239   5.608 -0.0359 -0.2862  0.1854
   92SAPE   C27 9031   3.402   5.407   5.629 -0.0173 -0.1494 -0.2180
   92SAPE   H7R 9032   3.464   5.377   5.542 -0.1029  1.4536 -0.8436
   92SAPE   H7S 9033   3.469   5.454   5.703  0.8127  0.6493 -1.4533
   92SAPE   C28 9034   3.297   5.503   5.572  0.0759 -0.1009 -0.1296
   92SAPE   H8R 9035   3.238   5.553   5.650  0.0312 -0.9373  0.3904
   92SAPE   C29 9036   3.270   5.518   5.447  0.1789  0.5610  0.4242
   92SAPE   H9R 9037   3.176   5.568   5.421 -1.6486 -2.4380  1.0515
   92SAPE  C210 9038   3.334   5.443   5.333 -0.0832 -0.6062 -0.1175
   92SAPE  H10R 9039   3.363   5.341   5.366 -0.4751 -0.6593  0.0561
   92SAPE  H10S 9040   3.424   5.508   5.324  0.0835 -0.7459  0.5144
   92SAPE  C211 9041   3.248   5.447   5.201 -0.5032 -0.1430 -0.0722
   92SAPE  H11R 9042   3.179   5.532   5.208  0.8311  0.9541  0.0513
   92SAPE  C212 9043   3.241   5.356   5.106 -0.9065 -0.5203 -0.8471
   92SAPE  H12R 9044   3.178   5.371   5.018  0.7316  0.5501 -1.8422
   92SAPE  C213 9045   3.316   5.228   5.100  0.1109  0.0102 -0.1993
   92SAPE  H13R 9046   3.366   5.200   5.195 -0.3295 -0.1866 -0.0227
   92SAPE  H13S 9047   3.404   5.238   5.033  1.5437 -0.3108  1.5937
   92SAPE  C214 9048   3.246   5.105   5.052  0.3208 -0.5064 -0.4601
   92SAPE  H14R 9049   3.243   5.109   4.942 -0.8876  0.8576 -0.3850
   92SAPE  C215 9050   3.195   5.002   5.112 -0.0976 -0.0808 -0.0835
   92SAPE  H15R 9051   3.138   4.932   5.050 -1.5069  0.7084  0.2826
   92SAPE  C216 9052   3.200   4.984   5.264 -0.4469 -0.6478 -0.0027
   92SAPE  H16R 9053   3.304   4.988   5.301  0.1211  0.6846 -1.6564
   92SAPE  H16S 9054   3.166   4.880   5.280 -1.8701 -0.1390  0.3935
   92SAPE  C217 9055   3.115   5.085   5.354  0.7976 -0.4592  0.8339
   92SAPE  H17R 9056   3.017   5.093   5.303  0.0442  1.0328  2.4581
   92SAPE  H17S 9057   3.162   5.185   5.346  1.3651 -0.7814  0.0473
   92SAPE  C218 9058   3.092   5.041   5.496 -0.1886  0.1849 -0.6433
   92SAPE  H18R 9059   3.180   5.067   5.559  1.0291 -0.2801 -2.1086
   92SAPE  H18S 9060   3.080   4.931   5.496 -0.1586  0.1708 -1.7589
   92SAPE  C219 9061   2.966   5.102   5.552  0.4265 -0.9414 -0.4057
   92SAPE  H19R 9062   2.952   5.065   5.656  0.4318  3.4530  1.2643
   92SAPE  H19S 9063   2.885   5.064   5.485  0.2503 -1.4688  0.0965
   92SAPE  C220 9064   2.968   5.254   5.565  0.3292 -0.7616 -0.1794
   92SAPE  H20R 9065   2.879   5.286   5.623 -0.1678 -0.3143 -1.1798
   92SAPE  H20S 9066   2.961   5.292   5.461 -0.4676 -3.2374 -1.0414
   92SAPE  H20T 9067   3.064   5.295   5.604 -0.2132  0.6443 -0.2781
   92SAPE   C33 9068   2.917   5.715   5.760 -0.0574  0.4365  0.7229
   92SAPE   H3X 9069   2.969   5.812   5.745 -0.1708  0.6022  1.4147
   92SAPE   H3Y 9070   2.815   5.747   5.788 -1.1275 -1.7656 -0.5177
   92SAPE   C34 9071   2.904   5.644   5.627  0.4475 -0.1352  0.5956
   92SAPE   H4X 9072   2.816   5.577   5.616  0.6398 -0.4562  0.9807
   92SAPE   H4Y 9073   2.990   5.573   5.623 -0.6840 -1.5178  0.1933
   92SAPE   C35 9074   2.902   5.742   5.505  0.8215  0.1516  0.5580
   92SAPE   H5X 9075   3.001   5.793   5.516  1.5784 -0.8123 -1.4931
   92SAPE   H5Y 9076   2.823   5.817   5.525  0.6038 -0.5787  2.5821
   92SAPE   C36 9077   2.890   5.666   5.372 -0.0013 -0.7187 -0.7151
   92SAPE   H6X 9078   2.793   5.613   5.383  0.5540 -1.1968  2.1310
   92SAPE   H6Y 9079   2.972   5.591   5.366  1.1161  0.4185  0.1291
   92SAPE   C37 9080   2.886   5.750   5.251  0.3170  0.8199 -0.0780
   92SAPE   H7X 9081   2.985   5.799   5.237 -0.5731  2.5361 -0.4779
   92SAPE   H7Y 9082   2.820   5.839   5.255 -0.1093  0.5173 -0.4120
   92SAPE   C38 9083   2.849   5.661   5.127 -0.4019 -0.8692 -0.6443
   92SAPE   H8X 9084   2.739   5.645   5.126 -0.3007 -1.5308 -2.0693
   92SAPE   H8Y 9085   2.886   5.557   5.144 -1.6514 -1.1228  0.6213
   92SAPE   C39 9086   2.897   5.703   4.983  0.0490 -0.5247 -0.2882
   92SAPE   H9X 9087   2.867   5.809   4.971  1.4189 -0.1967 -0.9028
   92SAPE   H9Y 9088   2.840   5.649   4.905 -0.7523 -0.2520  0.1020
   92SAPE  C310 9089   3.047   5.670   4.967 -0.1671  0.3372  0.6130
   92SAPE  H10X 9090   3.056   5.563   4.994 -3.5649 -0.3042 -0.6341
   92SAPE  H10Y 9091   3.110   5.726   5.040 -0.5793  2.3934 -0.5624
   92SAPE  C311 9092   3.114   5.704   4.833 -0.2197  0.1940 -0.1757
   92SAPE  H11X 9093   3.112   5.815   4.824  0.8650  0.2765  0.5419
   92SAPE  H11Y 9094   3.059   5.651   4.753 -1.3283 -2.9008  2.5154
   92SAPE  C312 9095   3.247   5.661   4.818 -0.4175  0.4285  0.7806
   92SAPE  H12X 9096   3.236   5.552   4.838  0.3939  0.0203 -0.8838
   92SAPE  H12Y 9097   3.316   5.700   4.896 -1.1557  1.7571  0.7759
   92SAPE  C313 9098   3.297   5.679   4.677  0.4697  0.4753 -0.1978
   92SAPE  H13X 9099   3.329   5.785   4.665 -0.6786  0.4586 -4.3544
   92SAPE  H13Y 9100   3.217   5.661   4.602 -0.7957 -1.5978  1.5961
   92SAPE  C314 9101   3.428   5.595   4.637 -0.5130 -0.1766 -0.5772
   92SAPE  H14X 9102   3.451   5.601   4.528  1.7649  2.2901 -0.0303
   92SAPE  H14Y 9103   3.399   5.489   4.647  1.6844 -0.7694 -0.3463
   92SAPE  C315 9104   3.554   5.634   4.720 -0.0403 -0.4803 -0.2889
   92SAPE  H15X 9105   3.539   5.611   4.828  0.9073  2.7821  0.6008
   92SAPE  H15Y 9106   3.558   5.745   4.713 -0.3144 -0.4982 -0.7091
   92SAPE  C316 9107   3.681   5.557   4.678  0.6081 -0.5652  0.1972
   92SAPE  H16X 9108   3.698   5.570   4.569 -0.9082 -3.0610 -0.3756
   92SAPE  H16Y 9109   3.652   5.450   4.693  0.7859 -0.5275  0.8235
   92SAPE  C317 9110   3.811   5.586   4.756  0.5987  0.3525 -0.2165
   92SAPE  H17X 9111   3.879   5.499   4.768 -0.5990 -0.7110 -1.0738
   92SAPE  H17Y 9112   3.769   5.626   4.850  1.8658  1.5153 -0.1209
   92SAPE  C318 9113   3.889   5.698   4.690 -0.2924 -0.2876  0.0069
   92SAPE  H18X 9114   3.920   5.655   4.593  0.2082 -0.8042  0.3901
   92SAPE  H18Y 9115   3.977   5.731   4.750 -0.1560  3.0082 -1.8802
   92SAPE  H18Z 9116   3.839   5.794   4.667  0.8524  0.3520  0.1055
   93SAPE     N 9117   5.851   3.754   6.241 -0.6777  0.2921 -0.2361
   93SAPE   HN1 9118   5.894   3.722   6.151 -1.3898  0.1715 -0.5410
   93SAPE   HN2 9119   5.781   3.826   6.214 -1.3856  0.1218  1.1387
   93SAPE   HN3 9120   5.920   3.811   6.293 -0.3750 -1.5604  1.4551
   93SAPE   C12 9121   5.803   3.638   6.320  0.2513 -0.4180  0.0254
   93SAPE  H12A 9122   5.764   3.568   6.244  3.3702 -0.5901 -1.5018
   93SAPE  H12B 9123   5.724   3.671   6.391  0.1575 -0.8562  0.1226
   93SAPE   C11 9124   5.912   3.569   6.400 -0.3133  0.1934 -0.1367
   93SAPE  H11A 9125   5.859   3.491   6.459 -1.1016  0.4711 -0.4718
   93SAPE  H11B 9126   5.950   3.641   6.475  0.3443 -0.9510  0.6496
   93SAPE     P 9127   5.991   3.381   6.249 -0.1668 -0.0485 -0.3199
   93SAPE   O13 9128   6.063   3.281   6.330 -0.1078 -0.2063  0.2832
   93SAPE   O14 9129   5.850   3.348   6.212 -0.0792 -0.0119 -0.2908
   93SAPE   O12 9130   6.012   3.528   6.308  0.5213 -0.0447  0.0549
   93SAPE   O11 9131   6.075   3.394   6.112 -0.6336 -0.3078 -0.1923
   93SAPE    C1 9132   6.207   3.465   6.107  0.2349 -0.3776  0.4771
   93SAPE    HA 9133   6.254   3.456   6.207 -0.9911 -0.2700  1.0820
   93SAPE    HB 9134   6.274   3.416   6.033  1.6499  0.2932  1.2962
   93SAPE    C2 9135   6.196   3.615   6.052 -0.3194  0.4756 -0.6962
   93SAPE    HS 9136   6.147   3.682   6.126  0.2012  2.2473 -1.9093
   93SAPE   O21 9137   6.137   3.608   5.920 -0.0840  0.0440 -0.0210
   93SAPE   C21 9138   6.009   3.631   5.906  0.0022 -0.2632  0.4490
   93SAPE   O22 9139   5.929   3.654   5.998 -0.8622 -0.1095  0.0525
   93SAPE   C22 9140   5.981   3.614   5.761 -0.1101 -0.2346  0.4359
   93SAPE   H2R 9141   5.882   3.657   5.738  0.8880  3.0252  2.0301
   93SAPE   H2S 9142   6.063   3.655   5.698  0.7604 -1.1803  0.9378
   93SAPE    C3 9143   6.337   3.674   6.032  0.4336 -0.4905  0.0358
   93SAPE    HX 9144   6.378   3.670   6.135  0.4518  0.9359  0.0991
   93SAPE    HY 9145   6.327   3.782   6.006 -3.5477 -0.2550  2.1020
   93SAPE   O31 9146   6.420   3.586   5.943 -0.6389 -0.4108  0.3707
   93SAPE   C31 9147   6.409   3.613   5.817  0.1373 -0.6827  0.6184
   93SAPE   O32 9148   6.364   3.716   5.774  0.2085  0.0963 -0.4346
   93SAPE   C32 9149   6.448   3.491   5.736 -0.3541 -0.8584  0.1354
   93SAPE   H2X 9150   6.411   3.406   5.797  2.4315 -0.7110  2.1483
   93SAPE   H2Y 9151   6.559   3.480   5.731 -0.3572 -1.0394  0.4155
   93SAPE   C23 9152   5.991   3.463   5.729  0.6262 -0.1014 -0.9241
   93SAPE   H3R 9153   5.903   3.413   5.774  0.2984  0.5002 -0.8879
   93SAPE   H3S 9154   6.085   3.423   5.773  0.5417  0.8393  0.1520
   93SAPE   C24 9155   5.983   3.442   5.580 -1.1046 -0.2960 -0.2833
   93SAPE   H4R 9156   6.041   3.520   5.527 -1.4971  0.9652  1.0862
   93SAPE   H4S 9157   5.876   3.460   5.552 -0.8414  1.5990 -0.1638
   93SAPE   C25 9158   6.032   3.304   5.549 -0.1983 -0.5622 -0.7963
   93SAPE   H5R 9159   6.134   3.284   5.586 -0.2200  2.5793  1.0901
   93SAPE   C26 9160   5.954   3.208   5.486 -0.9190  0.3838 -0.1880
   93SAPE   H6R 9161   6.000   3.110   5.464 -1.5307  0.0435  0.0264
   93SAPE   C27 9162   5.811   3.222   5.437  0.4833  0.7145  0.3690
   93SAPE   H7R 9163   5.825   3.291   5.352  0.5144  0.5068  0.2043
   93SAPE   H7S 9164   5.754   3.279   5.513 -0.7110 -0.2987  0.2537
   93SAPE   C28 9165   5.735   3.099   5.388  0.2143  0.7569  0.1373
   93SAPE   H8R 9166   5.657   3.046   5.444  1.4180 -0.5394  0.6180
   93SAPE   C29 9167   5.757   3.040   5.266  0.3686 -0.1761 -0.2605
   93SAPE   H9R 9168   5.688   2.960   5.233 -0.4717  0.4513 -0.0556
   93SAPE  C210 9169   5.853   3.092   5.166 -0.1259 -0.1386  0.0051
   93SAPE  H10R 9170   5.951   3.039   5.176  0.3929  0.7915 -0.1153
   93SAPE  H10S 9171   5.881   3.199   5.179  0.2558 -0.1990 -0.2777
   93SAPE  C211 9172   5.800   3.078   5.017  0.1767 -0.2870 -0.0474
   93SAPE  H11R 9173   5.745   3.159   4.969 -0.4627 -1.8129 -1.9555
   93SAPE  C212 9174   5.839   2.978   4.936 -1.1338 -0.1638 -0.3478
   93SAPE  H12R 9175   5.799   2.979   4.834 -0.0177 -0.6154 -0.7869
   93SAPE  C213 9176   5.940   2.871   4.972 -0.2460 -0.0314  0.1337
   93SAPE  H13R 9177   5.921   2.792   4.897 -1.0536 -0.9859  1.3246
   93SAPE  H13S 9178   5.922   2.830   5.074  1.3930  0.4235  0.6129
   93SAPE  C214 9179   6.085   2.928   4.957  1.0817  0.5511  0.2860
   93SAPE  H14R 9180   6.092   2.997   4.871 -2.6549  0.9754  0.2207
   93SAPE  C215 9181   6.183   2.865   5.018 -0.4424  0.6418  0.0354
   93SAPE  H15R 9182   6.287   2.895   4.999 -0.7261 -0.0876 -2.9283
   93SAPE  C216 9183   6.180   2.746   5.118 -0.1646  0.1310  0.1695
   93SAPE  H16R 9184   6.119   2.777   5.205 -0.5058  1.5241 -0.5551
   93SAPE  H16S 9185   6.279   2.723   5.163 -1.8613 -0.1639  3.9182
   93SAPE  C217 9186   6.149   2.607   5.055 -0.3404 -0.5209  0.8551
   93SAPE  H17R 9187   6.051   2.613   5.004 -0.2183 -1.1847  0.5319
   93SAPE  H17S 9188   6.148   2.526   5.131 -1.4308 -1.9779 -0.6724
   93SAPE  C218 9189   6.251   2.572   4.944  0.2406  0.9055  0.5021
   93SAPE  H18R 9190   6.351   2.543   4.984 -0.7508 -2.7784  0.4745
   93SAPE  H18S 9191   6.265   2.654   4.870 -0.3238  0.5143 -0.0438
   93SAPE  C219 9192   6.200   2.464   4.848  0.0205  0.4433 -0.2689
   93SAPE  H19R 9193   6.113   2.512   4.796 -0.0478 -0.5827 -1.1119
   93SAPE  H19S 9194   6.151   2.386   4.909 -0.3159  0.3446 -0.6560
   93SAPE  C220 9195   6.299   2.408   4.752  0.7073  0.0524 -0.0712
   93SAPE  H20R 9196   6.339   2.306   4.770 -0.9492 -1.0163 -2.2213
   93SAPE  H20S 9197   6.389   2.473   4.751  1.2209 -0.6413 -2.2994
   93SAPE  H20T 9198   6.258   2.408   4.649 -0.1159  2.1346  0.2189
   93SAPE   C33 9199   6.387   3.505   5.595  0.1029 -0.2009 -0.0617
   93SAPE   H3X 9200   6.412   3.603   5.548  4.8575 -0.9154  0.7171
   93SAPE   H3Y 9201   6.276   3.493   5.597  0.1412 -0.6168  3.1809
   93SAPE   C34 9202   6.429   3.399   5.493  0.1322 -0.7996  0.7663
   93SAPE   H4X 9203   6.414   3.295   5.529  1.2857 -0.4986  2.1350
   93SAPE   H4Y 9204   6.539   3.408   5.483 -0.3935  2.6376 -3.7137
   93SAPE   C35 9205   6.340   3.420   5.365 -0.2827 -0.0244  0.6570
   93SAPE   H5X 9206   6.400   3.495   5.310  0.6408 -0.4219  1.1073
   93SAPE   H5Y 9207   6.239   3.462   5.385 -0.0711  1.0396 -0.4419
   93SAPE   C36 9208   6.316   3.301   5.269  0.1230  0.4346  0.2939
   93SAPE   H6X 9209   6.243   3.221   5.294  0.5380 -0.2676 -0.6870
   93SAPE   H6Y 9210   6.418   3.257   5.255  0.8423  1.4485  2.1491
   93SAPE   C37 9211   6.270   3.354   5.133 -0.1322  0.4209 -0.1270
   93SAPE   H7X 9212   6.343   3.425   5.089  1.6042 -1.9849 -1.2490
   93SAPE   H7Y 9213   6.166   3.390   5.144 -0.4009 -0.4316  0.2146
   93SAPE   C38 9214   6.275   3.236   5.038  0.1361 -0.5032 -0.4483
   93SAPE   H8X 9215   6.214   3.152   5.078 -2.0525  0.6338 -1.3257
   93SAPE   H8Y 9216   6.379   3.198   5.032  1.3813  2.7195 -0.1294
   93SAPE   C39 9217   6.226   3.275   4.897 -0.4565 -0.0978 -0.0540
   93SAPE   H9X 9218   6.240   3.180   4.841 -0.2948 -1.4065  2.1172
   93SAPE   H9Y 9219   6.291   3.349   4.847  0.3834 -0.6242  0.2524
   93SAPE  C310 9220   6.078   3.311   4.889 -0.4087  0.5166  0.1004
   93SAPE  H10X 9221   6.059   3.419   4.903 -1.5030  0.5175 -1.2142
   93SAPE  H10Y 9222   6.015   3.246   4.954 -0.8853  0.4880 -0.3804
   93SAPE  C311 9223   6.010   3.285   4.754 -0.5874 -0.3396  0.2492
   93SAPE  H11X 9224   5.899   3.291   4.758 -0.5161  0.1981  1.5210
   93SAPE  H11Y 9225   6.045   3.183   4.729  0.1603  0.3858 -1.7628
   93SAPE  C312 9226   6.058   3.383   4.639  0.8854 -0.0240 -0.1568
   93SAPE  H12X 9227   6.167   3.398   4.653  1.0414 -2.4222  1.4946
   93SAPE  H12Y 9228   6.012   3.483   4.651  0.0644 -0.2235 -1.4742
   93SAPE  C313 9229   6.012   3.340   4.498  0.0061 -0.9483 -0.8408
   93SAPE  H13X 9230   5.901   3.341   4.499 -0.0069  0.8045 -1.8781
   93SAPE  H13Y 9231   6.040   3.234   4.479  0.0407 -1.3688  1.4441
   93SAPE  C314 9232   6.077   3.420   4.386 -0.2428  0.1217  0.7268
   93SAPE  H14X 9233   6.187   3.407   4.398 -0.4777 -2.1799  0.7006
   93SAPE  H14Y 9234   6.061   3.529   4.395  1.7069  0.4690  0.1606
   93SAPE  C315 9235   6.034   3.371   4.242 -0.2103  0.2484 -0.1417
   93SAPE  H15X 9236   5.928   3.402   4.234 -0.6223 -0.8630  0.9465
   93SAPE  H15Y 9237   6.030   3.261   4.227 -2.0126  0.3041 -0.2115
   93SAPE  C316 9238   6.108   3.433   4.116  0.1822 -0.2404  0.3353
   93SAPE  H16X 9239   6.049   3.385   4.035  0.0183  0.7889 -0.1609
   93SAPE  H16Y 9240   6.206   3.381   4.128 -0.2194 -0.8556  0.9723
   93SAPE  C317 9241   6.106   3.585   4.113 -0.5101 -0.1409 -0.2624
   93SAPE  H17X 9242   6.146   3.632   4.204  0.3398  1.5283 -1.4739
   93SAPE  H17Y 9243   6.003   3.626   4.112 -0.6675 -0.4673  1.6456
   93SAPE  C318 9244   6.173   3.641   3.989 -0.4268  0.1111 -0.0815
   93SAPE  H18X 9245   6.148   3.746   3.961  2.3675  0.0653 -3.0320
   93SAPE  H18Y 9246   6.125   3.597   3.899  0.3554  0.9382 -0.9218
   93SAPE  H18Z 9247   6.280   3.614   3.980 -0.5211 -1.1822  2.2348
   94SAPE     N 9248   4.085   5.825   6.052  0.8331  0.4877  0.3640
   94SAPE   HN1 9249   4.020   5.756   6.010  0.2710  1.0516  0.3025
   94SAPE   HN2 9250   4.020   5.900   6.083 -0.0615  1.5474 -3.7096
   94SAPE   HN3 9251   4.146   5.862   5.976 -0.0760  2.7491  0.6919
   94SAPE   C12 9252   4.155   5.772   6.172 -1.3013  0.1379  0.2799
   94SAPE  H12A 9253   4.258   5.749   6.139 -1.8190  0.2544 -1.4284
   94SAPE  H12B 9254   4.092   5.689   6.213  1.6764 -2.3928 -0.0732
   94SAPE   C11 9255   4.161   5.879   6.282  0.0933 -0.1379 -0.4428
   94SAPE  H11A 9256   4.207   5.972   6.243 -1.0955  0.1208 -1.2481
   94SAPE  H11B 9257   4.228   5.849   6.366 -0.8404 -1.3702 -0.1232
   94SAPE     P 9258   3.954   6.037   6.328  0.4171 -0.3201 -0.3024
   94SAPE   O13 9259   3.809   6.028   6.353  0.4365  0.0730  0.1529
   94SAPE   O14 9260   4.029   6.134   6.414 -0.1917  0.2788  0.7561
   94SAPE   O12 9261   4.026   5.897   6.336  0.2207  0.7904  0.1997
   94SAPE   O11 9262   3.976   6.058   6.173  0.1394 -0.3684 -0.1104
   94SAPE    C1 9263   3.960   6.193   6.130  0.5693 -0.5412 -0.2513
   94SAPE    HA 9264   3.852   6.216   6.122  0.1053 -2.1026  1.2212
   94SAPE    HB 9265   4.019   6.265   6.190 -1.7285 -0.0656  1.4655
   94SAPE    C2 9266   4.012   6.188   5.985  0.0046 -0.9798 -0.1802
   94SAPE    HS 9267   3.978   6.284   5.943  0.7358  0.0780  1.5807
   94SAPE   O21 9268   3.965   6.067   5.913 -0.1796  0.5667  0.0279
   94SAPE   C21 9269   3.832   6.057   5.888 -0.7997 -0.0854  0.7477
   94SAPE   O22 9270   3.747   6.130   5.934 -0.2862  0.1378 -0.1208
   94SAPE   C22 9271   3.816   5.938   5.798 -0.3540  0.6539 -0.2660
   94SAPE   H2R 9272   3.811   5.843   5.855  3.2536  2.8627  4.1246
   94SAPE   H2S 9273   3.719   5.955   5.748  0.1692  2.1621 -0.7948
   94SAPE    C3 9274   4.170   6.193   5.974  0.3635  0.2317 -0.4771
   94SAPE    HX 9275   4.217   6.132   6.054  3.7212  1.8401 -1.1436
   94SAPE    HY 9276   4.199   6.300   5.989  0.1401  0.5891 -2.4814
   94SAPE   O31 9277   4.214   6.170   5.836 -0.3493  0.0301  0.4037
   94SAPE   C31 9278   4.279   6.059   5.821  0.2022 -1.0873  0.2927
   94SAPE   O32 9279   4.273   5.962   5.895 -0.1022 -0.0894  0.1454
   94SAPE   C32 9280   4.367   6.061   5.691 -0.7755  0.4546  0.8738
   94SAPE   H2X 9281   4.465   6.018   5.722 -1.3798  0.0434  2.2390
   94SAPE   H2Y 9282   4.390   6.168   5.674 -0.2207 -0.1531 -2.4462
   94SAPE   C23 9283   3.932   5.927   5.685  0.0624  0.1731  0.0350
   94SAPE   H3R 9284   4.013   5.865   5.729  0.3522 -0.4240 -1.3213
   94SAPE   H3S 9285   3.955   6.032   5.657  0.5839  0.3626  1.1490
   94SAPE   C24 9286   3.893   5.862   5.552  0.5945  1.0083 -0.4141
   94SAPE   H4R 9287   3.977   5.861   5.479  2.2772 -0.7006  1.5124
   94SAPE   H4S 9288   3.801   5.915   5.517  0.8876  0.3722 -2.2026
   94SAPE   C25 9289   3.844   5.722   5.570 -0.1428  0.0538  1.0928
   94SAPE   H5R 9290   3.752   5.707   5.629 -1.4685  1.8722 -0.4613
   94SAPE   C26 9291   3.907   5.612   5.518  0.0105  0.7325 -1.0041
   94SAPE   H6R 9292   3.878   5.507   5.532  0.7778  0.7496  0.8940
   94SAPE   C27 9293   4.037   5.616   5.434 -0.4927 -0.3628 -1.1145
   94SAPE   H7R 9294   4.114   5.679   5.484 -0.3857 -1.5147  0.1618
   94SAPE   H7S 9295   4.026   5.661   5.333  2.3011  1.7830 -0.5198
   94SAPE   C28 9296   4.101   5.478   5.430 -0.0886 -0.2278 -0.1976
   94SAPE   H8R 9297   4.068   5.404   5.503  1.0372 -0.1335  0.4294
   94SAPE   C29 9298   4.201   5.451   5.347 -0.7285  0.3859 -0.4287
   94SAPE   H9R 9299   4.214   5.348   5.312  0.9624  0.7119 -0.8194
   94SAPE  C210 9300   4.258   5.556   5.248  0.3923  0.2358 -0.4175
   94SAPE  H10R 9301   4.303   5.643   5.302 -0.3354  0.6361 -0.4503
   94SAPE  H10S 9302   4.175   5.581   5.179  0.5690  2.4889  0.1454
   94SAPE  C211 9303   4.377   5.492   5.175 -0.1199 -0.1310  0.2975
   94SAPE  H11R 9304   4.457   5.452   5.239 -0.1907 -0.3882  0.2245
   94SAPE  C212 9305   4.390   5.480   5.044 -0.6146  0.7073  0.3953
   94SAPE  H12R 9306   4.470   5.413   5.011 -0.3449  0.3165  1.7966
   94SAPE  C213 9307   4.290   5.534   4.948  0.2833 -0.1855  0.1203
   94SAPE  H13R 9308   4.288   5.644   4.955  2.0911 -0.1078 -0.2608
   94SAPE  H13S 9309   4.189   5.502   4.981  0.9638 -2.2688  0.2630
   94SAPE  C214 9310   4.319   5.493   4.811  0.0254 -0.4925 -0.0662
   94SAPE  H14R 9311   4.339   5.387   4.792  0.8704  0.0106 -2.1331
   94SAPE  C215 9312   4.321   5.573   4.703  0.6567 -0.6082 -0.4063
   94SAPE  H15R 9313   4.349   5.520   4.611 -1.5679 -2.3031 -0.1199
   94SAPE  C216 9314   4.291   5.722   4.703  0.2834  0.2300 -1.0542
   94SAPE  H16R 9315   4.245   5.750   4.800  1.5260 -1.0533 -0.0686
   94SAPE  H16S 9316   4.207   5.728   4.630 -0.2744  2.0964 -0.2738
   94SAPE  C217 9317   4.409   5.812   4.676  0.5884  0.7508 -0.0750
   94SAPE  H17R 9318   4.383   5.920   4.670  0.1744  0.7150  0.9596
   94SAPE  H17S 9319   4.443   5.790   4.573 -0.5016  0.2030 -0.3182
   94SAPE  C218 9320   4.534   5.808   4.774 -0.6057 -0.2322 -0.6317
   94SAPE  H18R 9321   4.620   5.872   4.745  1.1016 -2.2162 -0.1060
   94SAPE  H18S 9322   4.571   5.703   4.780 -2.3286 -0.7305  2.5129
   94SAPE  C219 9323   4.495   5.857   4.911  0.8445  0.3606 -0.0614
   94SAPE  H19R 9324   4.406   5.800   4.943  0.0926  1.0733 -0.8733
   94SAPE  H19S 9325   4.464   5.963   4.900  3.0142  0.8764 -1.6207
   94SAPE  C220 9326   4.610   5.855   5.018  0.1200  0.0361 -0.1057
   94SAPE  H20R 9327   4.711   5.885   4.984  0.9128 -1.7084  0.6404
   94SAPE  H20S 9328   4.602   5.760   5.076 -1.5325  1.2248  1.6723
   94SAPE  H20T 9329   4.602   5.931   5.098  1.8471 -0.3872  0.4930
   94SAPE   C33 9330   4.298   5.996   5.570  0.3844 -0.1194 -0.0904
   94SAPE   H3X 9331   4.195   6.034   5.580 -0.0618 -1.0648 -0.9722
   94SAPE   H3Y 9332   4.284   5.887   5.586  1.2125  0.0848  2.2565
   94SAPE   C34 9333   4.360   6.015   5.427  0.2072  0.4807 -0.0181
   94SAPE   H4X 9334   4.451   5.952   5.414  0.8037  1.5312 -1.0336
   94SAPE   H4Y 9335   4.393   6.121   5.416  1.2227  0.2528  0.6669
   94SAPE   C35 9336   4.257   5.983   5.323  0.6773  0.2137  1.1817
   94SAPE   H5X 9337   4.157   6.012   5.363 -0.8442 -3.0264 -0.0892
   94SAPE   H5Y 9338   4.256   5.874   5.300 -1.7381  0.5022 -0.2303
   94SAPE   C36 9339   4.277   6.069   5.199  0.0062  0.0921 -0.3704
   94SAPE   H6X 9340   4.383   6.058   5.168  0.3388  0.3359  0.6796
   94SAPE   H6Y 9341   4.256   6.175   5.225 -0.3047  0.2239 -1.1344
   94SAPE   C37 9342   4.189   6.035   5.081  0.6198  0.4725 -0.5167
   94SAPE   H7X 9343   4.085   6.055   5.117 -0.1917 -0.6066 -2.1846
   94SAPE   H7Y 9344   4.186   5.924   5.072  1.5762  0.3313  0.8490
   94SAPE   C38 9345   4.215   6.102   4.950 -0.2056 -0.6172 -0.2787
   94SAPE   H8X 9346   4.315   6.087   4.904 -0.1498 -0.2297 -0.2902
   94SAPE   H8Y 9347   4.204   6.213   4.956 -0.2014 -0.7109  1.6095
   94SAPE   C39 9348   4.098   6.066   4.854 -0.0763 -0.1865  0.9587
   94SAPE   H9X 9349   3.997   6.093   4.893 -0.3749 -1.5974  1.1763
   94SAPE   H9Y 9350   4.101   5.955   4.845 -0.0013 -0.1718  0.7904
   94SAPE  C310 9351   4.122   6.131   4.722 -0.3886 -0.0815  0.2713
   94SAPE  H10X 9352   4.072   6.076   4.639  0.1415  0.2235 -0.2587
   94SAPE  H10Y 9353   4.228   6.142   4.688 -0.7826  0.8697 -0.6924
   94SAPE  C311 9354   4.076   6.277   4.709  0.5183  0.6788 -0.1676
   94SAPE  H11X 9355   4.144   6.333   4.776 -1.0832  0.3411  1.7910
   94SAPE  H11Y 9356   3.969   6.287   4.737  0.7433  0.0081  0.9721
   94SAPE  C312 9357   4.080   6.332   4.562 -0.3699  0.1690  0.3013
   94SAPE  H12X 9358   4.167   6.320   4.494 -1.5998  0.2486 -1.3329
   94SAPE  H12Y 9359   4.069   6.441   4.584  1.4203  0.2138  1.0787
   94SAPE  C313 9360   3.958   6.280   4.480 -0.1673  0.0716  0.0315
   94SAPE  H13X 9361   3.876   6.325   4.541 -0.3512  0.7137 -0.6815
   94SAPE  H13Y 9362   3.940   6.171   4.487  0.5414  0.0361  1.3914
   94SAPE  C314 9363   3.949   6.329   4.328  0.1924 -0.0048 -0.3925
   94SAPE  H14X 9364   3.852   6.291   4.289  0.9524 -2.3697 -0.1079
   94SAPE  H14Y 9365   4.027   6.268   4.277  0.1354 -1.9649  1.7664
   94SAPE  C315 9366   3.948   6.484   4.319  0.6870 -0.4972 -0.1265
   94SAPE  H15X 9367   4.047   6.529   4.339  0.6995 -0.9065  0.7631
   94SAPE  H15Y 9368   3.885   6.508   4.407  0.5154  0.1148 -0.4109
   94SAPE  C316 9369   3.894   6.557   4.188 -0.2069  0.3584 -0.1325
   94SAPE  H16X 9370   3.903   6.668   4.187  2.0319  0.1936 -2.0406
   94SAPE  H16Y 9371   3.790   6.520   4.173 -0.1730 -0.0628  0.6427
   94SAPE  C317 9372   3.966   6.506   4.065  0.4042 -0.4497  0.1222
   94SAPE  H17X 9373   3.965   6.396   4.057  0.3207 -0.5686  1.7323
   94SAPE  H17Y 9374   4.072   6.538   4.072  0.3137  0.3584 -1.7582
   94SAPE  C318 9375   3.905   6.557   3.938  0.5247 -0.6681  0.4348
   94SAPE  H18X 9376   3.802   6.519   3.919  0.8753 -0.4029 -2.1066
   94SAPE  H18Y 9377   3.959   6.529   3.845  0.3608  2.0838 -0.5644
   94SAPE  H18Z 9378   3.892   6.668   3.937 -1.9931 -0.9362 -1.2056
   95SAPE     N 9379   0.899   3.794   6.131  0.6658  0.1071 -0.5797
   95SAPE   HN1 9380   0.890   3.759   6.228  1.9670 -0.6076 -0.7054
   95SAPE   HN2 9381   0.843   3.881   6.120  1.4320  0.5898 -0.6843
   95SAPE   HN3 9382   0.869   3.714   6.071 -1.3270 -0.5009  1.1917
   95SAPE   C12 9383   1.050   3.827   6.116 -1.1992 -0.7439 -0.4753
   95SAPE  H12A 9384   1.055   3.904   6.036 -0.4062 -0.5627 -0.2527
   95SAPE  H12B 9385   1.100   3.734   6.082 -1.0483 -1.2712  1.1577
   95SAPE   C11 9386   1.118   3.873   6.244 -0.0923  0.2792  0.0115
   95SAPE  H11A 9387   1.064   3.960   6.286 -1.0915 -0.1706 -0.3208
   95SAPE  H11B 9388   1.223   3.902   6.223  0.1192 -0.1001  0.5444
   95SAPE     P 9389   1.217   3.653   6.332 -0.0626 -0.1174 -0.0567
   95SAPE   O13 9390   1.337   3.699   6.263  0.1143  0.3111 -0.3228
   95SAPE   O14 9391   1.234   3.581   6.459  0.2383  0.3356  0.0573
   95SAPE   O12 9392   1.126   3.780   6.355 -0.2083  0.7161 -0.2560
   95SAPE   O11 9393   1.132   3.562   6.234 -0.5365 -0.1830 -0.1992
   95SAPE    C1 9394   1.181   3.432   6.189 -0.5900  0.0679  0.9589
   95SAPE    HA 9395   1.268   3.392   6.246 -0.8069 -0.6971  0.7614
   95SAPE    HB 9396   1.101   3.355   6.196 -0.8355  0.3553  1.3249
   95SAPE    C2 9397   1.220   3.441   6.034 -0.9849  0.6361  0.5941
   95SAPE    HS 9398   1.285   3.531   6.031  0.5341 -0.4252  0.9827
   95SAPE   O21 9399   1.105   3.445   5.950  0.6462 -0.0706  0.3144
   95SAPE   C21 9400   1.108   3.526   5.842 -0.3120 -0.2354 -0.0919
   95SAPE   O22 9401   1.197   3.589   5.788  0.0983 -0.1379  0.3290
   95SAPE   C22 9402   0.962   3.510   5.786 -0.1512  0.5666  0.4050
   95SAPE   H2R 9403   0.949   3.400   5.780  3.0643  0.2443 -2.4579
   95SAPE   H2S 9404   0.898   3.560   5.861 -0.9198 -0.2615  0.3022
   95SAPE    C3 9405   1.302   3.317   5.991 -0.5151  0.4006  0.7351
   95SAPE    HX 9406   1.222   3.239   5.985 -0.9353  1.0173 -4.0746
   95SAPE    HY 9407   1.381   3.290   6.064  0.7547 -0.1468 -0.8222
   95SAPE   O31 9408   1.342   3.331   5.852 -0.0431  0.5412 -0.2043
   95SAPE   C31 9409   1.450   3.409   5.830  0.6061  0.1339 -0.1873
   95SAPE   O32 9410   1.520   3.454   5.915  0.0459  0.4375 -0.4842
   95SAPE   C32 9411   1.470   3.434   5.687 -0.4648  0.0021  0.7257
   95SAPE   H2X 9412   1.503   3.541   5.685 -1.6367  0.3557 -0.0190
   95SAPE   H2Y 9413   1.369   3.432   5.640 -0.4900  0.4495  0.7572
   95SAPE   C23 9414   0.960   3.566   5.643 -0.0335  1.0022 -0.3219
   95SAPE   H3R 9415   1.046   3.545   5.576 -1.2116 -0.9057 -1.2795
   95SAPE   H3S 9416   0.936   3.674   5.646  1.6888  1.3545  2.0511
   95SAPE   C24 9417   0.839   3.497   5.567 -0.2295 -0.2431 -0.6311
   95SAPE   H4R 9418   0.750   3.513   5.632  0.9408  0.3705  0.8518
   95SAPE   H4S 9419   0.853   3.387   5.566 -0.6353 -0.3377  1.4014
   95SAPE   C25 9420   0.814   3.558   5.432  0.3647  0.4028  0.2403
   95SAPE   H5R 9421   0.760   3.653   5.437 -2.0329 -0.8519 -1.3426
   95SAPE   C26 9422   0.864   3.529   5.314 -0.1129 -0.3479 -0.2728
   95SAPE   H6R 9423   0.829   3.581   5.224 -0.1756 -0.8556 -0.5447
   95SAPE   C27 9424   0.966   3.416   5.281  1.0395  0.1257 -0.3742
   95SAPE   H7R 9425   1.004   3.364   5.371 -1.1209  0.2560  0.6544
   95SAPE   H7S 9426   1.057   3.456   5.232 -0.3241  1.1342 -2.1545
   95SAPE   C28 9427   0.909   3.318   5.177 -0.7679 -0.6123 -0.1706
   95SAPE   H8R 9428   0.860   3.227   5.215  0.9327 -0.3692  2.7606
   95SAPE   C29 9429   0.906   3.344   5.047 -0.0118  0.1857 -0.5647
   95SAPE   H9R 9430   0.848   3.278   4.981 -1.3601 -1.8960  2.5330
   95SAPE  C210 9431   0.947   3.476   4.979 -0.3024  0.2767 -0.4541
   95SAPE  H10R 9432   0.992   3.541   5.057  1.4104 -1.8711  0.3979
   95SAPE  H10S 9433   0.865   3.527   4.923  1.3354  2.2831 -1.0879
   95SAPE  C211 9434   1.059   3.426   4.893  0.1699 -0.6915  0.3957
   95SAPE  H11R 9435   1.144   3.370   4.935  1.4825  0.8829 -0.1045
   95SAPE  C212 9436   1.078   3.436   4.759 -0.3157  0.2730  0.0858
   95SAPE  H12R 9437   1.175   3.407   4.716  0.4573  0.1949  1.8503
   95SAPE  C213 9438   0.973   3.489   4.666  0.3966  0.4800 -0.8223
   95SAPE  H13R 9439   1.012   3.581   4.618 -2.0192  1.6521 -0.6256
   95SAPE  H13S 9440   0.884   3.516   4.726  0.9231  4.4259 -1.6566
   95SAPE  C214 9441   0.933   3.390   4.562  0.2748 -0.2010 -0.2806
   95SAPE  H14R 9442   0.863   3.316   4.603  1.8124 -0.5329  1.8200
   95SAPE  C215 9443   0.976   3.382   4.430  0.6732  0.6138 -0.7350
   95SAPE  H15R 9444   0.944   3.298   4.367  2.1084 -2.9770  3.1026
   95SAPE  C216 9445   1.068   3.480   4.369 -0.4830  0.5021 -0.6012
   95SAPE  H16R 9446   1.173   3.476   4.404 -0.8804 -0.3821  0.5269
   95SAPE  H16S 9447   1.031   3.579   4.405 -0.8604 -0.2998  1.2793
   95SAPE  C217 9448   1.055   3.484   4.216 -0.3178 -0.4292 -0.2061
   95SAPE  H17R 9449   1.124   3.561   4.176 -0.8646 -0.2623 -0.8335
   95SAPE  H17S 9450   0.955   3.521   4.185  0.3330  0.7011 -1.0003
   95SAPE  C218 9451   1.099   3.355   4.142  0.5001  0.3532 -0.4248
   95SAPE  H18R 9452   1.025   3.278   4.172 -0.0407  0.4040 -1.5852
   95SAPE  H18S 9453   1.196   3.312   4.173 -0.3406 -0.2503  1.4115
   95SAPE  C219 9454   1.095   3.370   3.992 -0.1686 -0.0052 -0.3993
   95SAPE  H19R 9455   1.161   3.451   3.953 -0.1838  1.1363  1.8872
   95SAPE  H19S 9456   0.994   3.412   3.971 -1.1564  0.0308  3.9974
   95SAPE  C220 9457   1.103   3.229   3.921  0.0014 -0.6230  0.2534
   95SAPE  H20R 9458   0.999   3.193   3.905  0.0770  0.2848 -2.4686
   95SAPE  H20S 9459   1.156   3.157   3.988  0.0906  0.8156  1.7650
   95SAPE  H20T 9460   1.156   3.248   3.826  0.6536 -2.8999  0.1351
   95SAPE   C33 9461   1.555   3.334   5.603  0.1389  0.4004 -0.1529
   95SAPE   H3X 9462   1.512   3.231   5.600 -0.7242  0.7543 -0.2144
   95SAPE   H3Y 9463   1.654   3.332   5.654 -0.9848  0.2862  2.0852
   95SAPE   C34 9464   1.568   3.375   5.451 -0.0216  0.3729  0.4354
   95SAPE   H4X 9465   1.641   3.307   5.401  3.2887  2.5483  2.0774
   95SAPE   H4Y 9466   1.613   3.476   5.442 -0.2175  0.5546  1.4501
   95SAPE   C35 9467   1.434   3.382   5.368  0.5705  0.4753 -0.7463
   95SAPE   H5X 9468   1.389   3.471   5.415  1.7114 -0.6931  2.7324
   95SAPE   H5Y 9469   1.375   3.293   5.399  1.8277  0.3285  1.3539
   95SAPE   C36 9470   1.445   3.396   5.215 -0.0226 -0.6293 -1.1990
   95SAPE   H6X 9471   1.506   3.484   5.187 -1.8925  0.7122 -1.1121
   95SAPE   H6Y 9472   1.341   3.419   5.183 -0.0285 -0.2282 -0.8973
   95SAPE   C37 9473   1.494   3.267   5.155  0.5642  0.2344  0.5755
   95SAPE   H7X 9474   1.429   3.181   5.183  0.0357 -0.4264 -2.4562
   95SAPE   H7Y 9475   1.593   3.246   5.200  1.5290  1.4537 -0.9367
   95SAPE   C38 9476   1.515   3.265   5.003 -0.2082  0.4501 -0.8582
   95SAPE   H8X 9477   1.423   3.293   4.948 -0.2196  0.4631 -0.8323
   95SAPE   H8Y 9478   1.538   3.162   4.970  0.1235  0.1076  0.3870
   95SAPE   C39 9479   1.635   3.348   4.956 -0.7142  0.1658  0.1471
   95SAPE   H9X 9480   1.727   3.352   5.018 -1.1247 -1.5485  0.9040
   95SAPE   H9Y 9481   1.601   3.454   4.949  1.3490  0.7280 -2.1669
   95SAPE  C310 9482   1.685   3.305   4.809  0.3442 -0.1873 -0.3335
   95SAPE  H10X 9483   1.733   3.206   4.826 -0.1021  0.0205  2.4636
   95SAPE  H10Y 9484   1.766   3.378   4.790  0.8524 -0.3035  1.2486
   95SAPE  C311 9485   1.586   3.309   4.695  0.1476 -0.7653  0.1457
   95SAPE  H11X 9486   1.508   3.230   4.702 -0.7023  0.1717  1.5866
   95SAPE  H11Y 9487   1.644   3.285   4.603 -0.9708  0.3996 -0.8794
   95SAPE  C312 9488   1.510   3.446   4.684 -0.1850 -0.4878  0.5160
   95SAPE  H12X 9489   1.576   3.536   4.680  1.3199 -1.5455  1.4192
   95SAPE  H12Y 9490   1.437   3.456   4.767 -1.2603  1.3807 -0.6193
   95SAPE  C313 9491   1.440   3.474   4.549 -0.6122 -0.2867  0.1714
   95SAPE  H13X 9492   1.371   3.562   4.549 -1.0970 -0.6566 -1.2603
   95SAPE  H13Y 9493   1.373   3.387   4.534 -2.0034  0.8801 -0.5895
   95SAPE  C314 9494   1.538   3.490   4.427  0.3284 -0.1288  0.1986
   95SAPE  H14X 9495   1.601   3.399   4.419 -1.8485 -1.4242 -2.4421
   95SAPE  H14Y 9496   1.613   3.571   4.444  1.8371 -1.3098 -0.7703
   95SAPE  C315 9497   1.456   3.493   4.294 -0.1533 -0.4012  0.1950
   95SAPE  H15X 9498   1.357   3.544   4.299 -0.5137 -1.2869  3.0030
   95SAPE  H15Y 9499   1.426   3.387   4.286 -2.2976  0.2809 -1.2524
   95SAPE  C316 9500   1.532   3.542   4.177 -0.0869  0.5066 -0.2812
   95SAPE  H16X 9501   1.633   3.496   4.167 -0.2688 -0.1227  0.7347
   95SAPE  H16Y 9502   1.544   3.651   4.196 -0.1014  1.0436 -3.1488
   95SAPE  C317 9503   1.455   3.520   4.044  0.1726  0.7209 -0.3909
   95SAPE  H17X 9504   1.351   3.557   4.043 -0.6126 -1.4112  0.3694
   95SAPE  H17Y 9505   1.467   3.411   4.029  1.4710  0.9838 -1.3833
   95SAPE  C318 9506   1.524   3.587   3.926  0.1915  0.2998 -0.2865
   95SAPE  H18X 9507   1.477   3.564   3.828  1.1494  0.2508 -0.7435
   95SAPE  H18Y 9508   1.628   3.550   3.913  1.5269  2.5328  3.1945
   95SAPE  H18Z 9509   1.539   3.697   3.935  0.1656  0.3661 -1.0337
   96SAPE     N 9510   3.559   6.224   6.412  0.9391  0.4347  0.1851
   96SAPE   HN1 9511   3.596   6.219   6.509  0.5744  0.1265  0.3081
   96SAPE   HN2 9512   3.621   6.192   6.336  0.2686  1.1623 -0.6924
   96SAPE   HN3 9513   3.547   6.326   6.392  0.3719  0.2461 -0.4759
   96SAPE   C12 9514   3.421   6.161   6.407  0.0731 -0.1716 -0.0970
   96SAPE  H12A 9515   3.357   6.189   6.493  1.1079  1.1355  0.2479
   96SAPE  H12B 9516   3.434   6.050   6.414  1.8164  0.0030 -0.4476
   96SAPE   C11 9517   3.341   6.191   6.280  0.3306 -0.0489 -0.3293
   96SAPE  H11A 9518   3.261   6.113   6.278 -0.3855  0.5258  2.8394
   96SAPE  H11B 9519   3.404   6.178   6.189  0.6036 -2.0861  0.1238
   96SAPE     P 9520   3.360   6.455   6.231 -0.3440  0.0409  0.0074
   96SAPE   O13 9521   3.268   6.567   6.224 -0.6593 -0.3326  0.5298
   96SAPE   O14 9522   3.474   6.470   6.320  0.7328  0.1641  0.6927
   96SAPE   O12 9523   3.287   6.322   6.274  1.1394 -0.1253  0.3070
   96SAPE   O11 9524   3.406   6.408   6.086  0.0536 -0.2512 -0.0605
   96SAPE    C1 9525   3.321   6.414   5.970 -0.6148 -0.2026  0.2354
   96SAPE    HA 9526   3.272   6.315   5.953  2.1296 -1.3902 -0.9614
   96SAPE    HB 9527   3.243   6.493   5.978  0.3554  0.5287  3.2652
   96SAPE    C2 9528   3.408   6.429   5.845 -0.8416  0.0712 -0.2007
   96SAPE    HS 9529   3.445   6.534   5.847 -0.7749  0.0643 -0.9242
   96SAPE   O21 9530   3.324   6.410   5.727  0.0758  0.4792 -0.2255
   96SAPE   C21 9531   3.245   6.510   5.696 -0.1914  0.4568  0.8975
   96SAPE   O22 9532   3.251   6.616   5.755 -0.1649 -0.4352  0.5489
   96SAPE   C22 9533   3.159   6.476   5.574  0.0048  0.0586  0.2728
   96SAPE   H2R 9534   3.149   6.366   5.569  4.1181 -0.3341 -0.8670
   96SAPE   H2S 9535   3.058   6.519   5.593 -0.9408 -2.6556  1.5918
   96SAPE    C3 9536   3.527   6.328   5.852 -0.3543  0.0604  0.6791
   96SAPE    HX 9537   3.486   6.225   5.838  1.7596 -1.1995  3.4062
   96SAPE    HY 9538   3.567   6.335   5.955  0.3495 -0.2826  0.4356
   96SAPE   O31 9539   3.629   6.339   5.752  0.1303 -0.1275  0.0085
   96SAPE   C31 9540   3.714   6.439   5.760  0.8948  0.4040 -0.3136
   96SAPE   O32 9541   3.715   6.514   5.856  0.5420  0.2380 -0.2954
   96SAPE   C32 9542   3.807   6.451   5.636 -0.9669  0.1711 -0.8681
   96SAPE   H2X 9543   3.850   6.553   5.643 -2.1782  0.6670 -0.4886
   96SAPE   H2Y 9544   3.738   6.457   5.549 -0.8308 -1.2298 -1.0828
   96SAPE   C23 9545   3.204   6.549   5.445  0.5171  0.2993 -0.0650
   96SAPE   H3R 9546   3.235   6.655   5.457  0.4951  0.4244 -1.0655
   96SAPE   H3S 9547   3.121   6.525   5.375  0.0519 -1.2643  0.9812
   96SAPE   C24 9548   3.320   6.484   5.373  0.2359  1.1773 -0.9602
   96SAPE   H4R 9549   3.288   6.380   5.352 -0.4669  0.6790  2.2524
   96SAPE   H4S 9550   3.402   6.482   5.449 -1.2889 -2.6675  0.6942
   96SAPE   C25 9551   3.359   6.554   5.248  0.6640  0.6338  0.1415
   96SAPE   H5R 9552   3.393   6.658   5.263  0.3187  0.4376  2.4687
   96SAPE   C26 9553   3.360   6.514   5.119  0.7638  0.0737  0.1867
   96SAPE   H6R 9554   3.416   6.568   5.040 -0.4087  0.3730 -0.4487
   96SAPE   C27 9555   3.309   6.376   5.064  0.1094  0.0056  0.9268
   96SAPE   H7R 9556   3.271   6.309   5.144 -2.1872 -0.4310 -0.4970
   96SAPE   H7S 9557   3.397   6.333   5.010 -0.0443  0.4458  0.3243
   96SAPE   C28 9558   3.195   6.405   4.963  0.3634  0.5701  0.0419
   96SAPE   H8R 9559   3.177   6.513   4.957 -2.9657  0.1172  0.9111
   96SAPE   C29 9560   3.146   6.313   4.881  0.4781  0.2753  0.3229
   96SAPE   H9R 9561   3.074   6.346   4.804  1.1392  2.5236  0.6145
   96SAPE  C210 9562   3.195   6.167   4.879 -0.8273  0.3341 -0.7271
   96SAPE  H10R 9563   3.110   6.095   4.875 -1.2161  0.8344 -1.4850
   96SAPE  H10S 9564   3.242   6.151   4.979 -0.0964 -1.0441 -1.2669
   96SAPE  C211 9565   3.292   6.128   4.773 -0.4516  0.5927 -0.1075
   96SAPE  H11R 9566   3.397   6.121   4.806 -1.4035  1.5781  3.3720
   96SAPE  C212 9567   3.263   6.098   4.645 -0.2142  0.2166 -0.7889
   96SAPE  H12R 9568   3.345   6.071   4.577 -0.9337  1.4561 -2.1710
   96SAPE  C213 9569   3.128   6.088   4.574 -0.1183 -0.6617 -0.0881
   96SAPE  H13R 9570   3.050   6.072   4.651  1.3771 -1.3515  1.3223
   96SAPE  H13S 9571   3.127   5.988   4.525  0.0947 -0.2281 -0.9955
   96SAPE  C214 9572   3.093   6.206   4.483 -1.0788 -0.1301  0.4520
   96SAPE  H14R 9573   3.081   6.302   4.535 -0.0579  0.9775 -1.3050
   96SAPE  C215 9574   3.106   6.205   4.351 -0.2086 -0.3335  0.4672
   96SAPE  H15R 9575   3.088   6.294   4.289  1.4224 -0.6895 -0.5696
   96SAPE  C216 9576   3.160   6.095   4.267 -0.0972  0.5956  0.6046
   96SAPE  H16R 9577   3.125   5.996   4.303  0.7638  0.2913  0.6181
   96SAPE  H16S 9578   3.271   6.088   4.276  0.0122  1.7717  0.2847
   96SAPE  C217 9579   3.113   6.109   4.124 -0.0092 -0.3635 -0.2163
   96SAPE  H17R 9580   3.146   6.201   4.073 -0.7902 -0.7846 -1.5003
   96SAPE  H17S 9581   3.003   6.091   4.126 -0.1943  0.8119  1.2326
   96SAPE  C218 9582   3.164   5.995   4.038 -0.6994 -0.0497  0.4475
   96SAPE  H18R 9583   3.166   5.910   4.111  0.9394 -1.6042 -1.3558
   96SAPE  H18S 9584   3.272   6.007   4.016 -0.5799  0.0469  1.0824
   96SAPE  C219 9585   3.087   5.953   3.916 -0.1293 -0.8228 -0.5411
   96SAPE  H19R 9586   3.087   6.046   3.855 -0.3267 -1.1727 -1.0765
   96SAPE  H19S 9587   2.982   5.928   3.941 -0.5199  2.3750  1.1970
   96SAPE  C220 9588   3.157   5.839   3.838  0.5223 -0.0861  0.3762
   96SAPE  H20R 9589   3.261   5.865   3.811  0.6962 -0.5559  0.5809
   96SAPE  H20S 9590   3.099   5.818   3.745  0.0867 -0.2044  0.6714
   96SAPE  H20T 9591   3.161   5.744   3.896 -0.3335 -0.1851  0.2803
   96SAPE   C33 9592   3.899   6.328   5.612 -0.5200 -0.4890  0.5974
   96SAPE   H3X 9593   3.829   6.249   5.577  1.6650 -1.6240 -1.3359
   96SAPE   H3Y 9594   3.944   6.288   5.706 -1.4782  0.6929  1.5627
   96SAPE   C34 9595   4.006   6.359   5.514 -0.7867  0.2264  0.4884
   96SAPE   H4X 9596   4.084   6.280   5.522  1.1480  2.1315  1.1048
   96SAPE   H4Y 9597   4.049   6.456   5.548 -0.1547 -0.4819  1.7155
   96SAPE   C35 9598   3.960   6.368   5.369 -0.0174  0.1904 -0.8736
   96SAPE   H5X 9599   4.044   6.411   5.310  0.4578 -1.1250 -1.1917
   96SAPE   H5Y 9600   3.884   6.449   5.363 -0.0615  0.3605  1.7004
   96SAPE   C36 9601   3.902   6.235   5.307 -0.0323 -0.0917  0.2022
   96SAPE   H6X 9602   3.822   6.191   5.369 -1.7402 -1.1272 -2.6547
   96SAPE   H6Y 9603   3.979   6.155   5.301 -0.4921 -0.5208  0.1012
   96SAPE   C37 9604   3.862   6.289   5.169 -0.1162  0.3395  0.5080
   96SAPE   H7X 9605   3.954   6.308   5.110  0.0477 -0.0214  0.6456
   96SAPE   H7Y 9606   3.820   6.392   5.175 -1.0930 -0.0864  1.3521
   96SAPE   C38 9607   3.761   6.196   5.110  0.8447  0.3542  0.7401
   96SAPE   H8X 9608   3.664   6.191   5.165  0.6689 -0.3120  0.3602
   96SAPE   H8Y 9609   3.806   6.096   5.125 -0.3920 -0.2224  0.6750
   96SAPE   C39 9610   3.741   6.221   4.963  0.0377 -0.2563 -0.0250
   96SAPE   H9X 9611   3.834   6.256   4.914  0.3675  0.5468  1.1631
   96SAPE   H9Y 9612   3.669   6.304   4.948 -0.2497 -0.3951  0.5686
   96SAPE  C310 9613   3.684   6.096   4.885  0.1104  0.5820 -0.7665
   96SAPE  H10X 9614   3.585   6.065   4.925  1.3147 -0.7779  1.2355
   96SAPE  H10Y 9615   3.744   6.007   4.914 -0.3424  0.4777 -0.1488
   96SAPE  C311 9616   3.674   6.131   4.734  0.2854 -0.2817  0.6983
   96SAPE  H11X 9617   3.778   6.149   4.698  0.0980 -1.5223 -0.5251
   96SAPE  H11Y 9618   3.611   6.221   4.722 -2.2593 -1.5889  3.6295
   96SAPE  C312 9619   3.632   6.018   4.640 -0.4127  0.8698  1.2857
   96SAPE  H12X 9620   3.522   6.011   4.654 -0.5394 -0.1669 -0.1425
   96SAPE  H12Y 9621   3.682   5.927   4.682 -0.4811 -0.5740 -1.6841
   96SAPE  C313 9622   3.664   6.036   4.497  0.5134 -0.0741 -0.2407
   96SAPE  H13X 9623   3.773   6.019   4.484  1.4889  0.6241  5.5318
   96SAPE  H13Y 9624   3.649   6.143   4.472 -2.9292 -0.9739 -2.3769
   96SAPE  C314 9625   3.590   5.935   4.412  0.9897 -0.2730 -0.0967
   96SAPE  H14X 9626   3.481   5.958   4.416  1.1950  0.5350  0.9878
   96SAPE  H14Y 9627   3.594   5.841   4.472 -0.2189  0.0800  0.5487
   96SAPE  C315 9628   3.634   5.926   4.260  0.2991  0.1020 -0.8352
   96SAPE  H15X 9629   3.743   5.946   4.264  0.4761 -0.8451 -0.7722
   96SAPE  H15Y 9630   3.580   6.005   4.205  0.2199  0.0062 -0.8947
   96SAPE  C316 9631   3.596   5.797   4.194 -0.3520 -0.3042  0.2824
   96SAPE  H16X 9632   3.658   5.712   4.231  1.7319  1.7635  1.6674
   96SAPE  H16Y 9633   3.619   5.808   4.085 -2.5299  2.7862  0.0787
   96SAPE  C317 9634   3.447   5.754   4.199  0.3886  0.5796 -0.5711
   96SAPE  H17X 9635   3.378   5.837   4.175 -0.4818  0.9305  2.8866
   96SAPE  H17Y 9636   3.421   5.737   4.306  0.7007 -1.0443 -0.7275
   96SAPE  C318 9637   3.419   5.629   4.117 -0.8677  0.4090  0.2647
   96SAPE  H18X 9638   3.462   5.627   4.015 -0.2970  0.6466  0.5036
   96SAPE  H18Y 9639   3.309   5.610   4.119 -0.8719  0.4564  0.7290
   96SAPE  H18Z 9640   3.454   5.540   4.174  1.3962  1.0014 -0.1580
   97SAPE     N 9641   6.814   2.824   6.096  0.1747  0.2148  0.2826
   97SAPE   HN1 9642   6.732   2.874   6.056  0.0711  0.3704  0.6943
   97SAPE   HN2 9643   6.893   2.882   6.060  0.2891 -0.3660 -0.4057
   97SAPE   HN3 9644   6.825   2.731   6.051 -2.3800  0.8771 -1.8673
   97SAPE   C12 9645   6.803   2.831   6.240 -0.2834  0.5275  0.3175
   97SAPE  H12A 9646   6.892   2.785   6.289 -0.6063 -0.7360 -0.2776
   97SAPE  H12B 9647   6.714   2.773   6.272  0.6081 -0.3522  1.2277
   97SAPE   C11 9648   6.776   2.971   6.281 -0.0065 -1.2317 -0.1659
   97SAPE  H11A 9649   6.878   3.017   6.276 -0.7407  0.2846 -1.4050
   97SAPE  H11B 9650   6.743   2.975   6.387  1.4571 -0.3186  0.2854
   97SAPE     P 9651   6.521   3.010   6.187  0.1609  0.4893 -0.4188
   97SAPE   O13 9652   6.472   2.970   6.320  0.4210  0.2524  0.4626
   97SAPE   O14 9653   6.462   3.130   6.124  0.3466  0.3233 -0.1189
   97SAPE   O12 9654   6.678   3.032   6.193  0.1181  0.4079  0.3013
   97SAPE   O11 9655   6.521   2.883   6.095  0.5949 -0.2782  0.2883
   97SAPE    C1 9656   6.398   2.837   6.032  0.2022 -0.8079 -0.8532
   97SAPE    HA 9657   6.374   2.732   6.061  1.8183 -1.5227 -1.9872
   97SAPE    HB 9658   6.310   2.897   6.061  0.2114  0.1051 -2.6474
   97SAPE    C2 9659   6.410   2.848   5.878  0.3950 -0.4858 -0.3003
   97SAPE    HS 9660   6.493   2.784   5.840  2.5621  1.7322  0.5725
   97SAPE   O21 9661   6.441   2.988   5.840 -0.2144 -0.0472  0.3614
   97SAPE   C21 9662   6.566   3.021   5.842 -0.1229 -0.3507  0.0171
   97SAPE   O22 9663   6.659   2.945   5.876  0.1146 -0.0871  0.4359
   97SAPE   C22 9664   6.584   3.165   5.799  0.4231  0.7125  0.4496
   97SAPE   H2R 9665   6.511   3.214   5.731 -0.0190 -1.0368 -0.3453
   97SAPE   H2S 9666   6.588   3.216   5.898  0.5326  0.2798  0.6664
   97SAPE    C3 9667   6.276   2.814   5.818 -0.4663  0.0603  0.2661
   97SAPE    HX 9668   6.196   2.885   5.848  1.2546  2.8644 -1.4722
   97SAPE    HY 9669   6.251   2.715   5.862 -1.3232  0.8242  1.5123
   97SAPE   O31 9670   6.291   2.792   5.669  0.4915 -0.0397 -0.2185
   97SAPE   C31 9671   6.261   2.907   5.602  0.0835  0.3764  0.3982
   97SAPE   O32 9672   6.215   3.007   5.652 -0.6347  0.3545  0.0873
   97SAPE   C32 9673   6.315   2.892   5.457  0.4257  0.3165  0.3787
   97SAPE   H2X 9674   6.292   2.988   5.406 -1.0041 -2.2584 -4.1537
   97SAPE   H2Y 9675   6.283   2.795   5.413  0.0308  0.3567  0.5779
   97SAPE   C23 9676   6.721   3.199   5.732  0.6150  0.1013 -0.2715
   97SAPE   H3R 9677   6.797   3.183   5.812 -1.9302 -6.3346  1.0921
   97SAPE   H3S 9678   6.718   3.309   5.712 -1.3770  0.8782  3.8825
   97SAPE   C24 9679   6.756   3.119   5.613  0.2014  0.3826 -0.3127
   97SAPE   H4R 9680   6.680   3.141   5.535 -0.5945 -0.1771  0.3033
   97SAPE   H4S 9681   6.753   3.012   5.641 -0.8174 -0.2031 -2.5463
   97SAPE   C25 9682   6.893   3.134   5.552  0.6018 -0.1628 -0.4574
   97SAPE   H5R 9683   6.979   3.124   5.619  0.1780 -2.1559 -0.1951
   97SAPE   C26 9684   6.921   3.175   5.429  0.2541  0.0561  0.6817
   97SAPE   H6R 9685   7.024   3.212   5.417  0.4273 -0.6565 -0.0823
   97SAPE   C27 9686   6.819   3.217   5.322  0.1553  0.3213  0.1625
   97SAPE   H7R 9687   6.737   3.273   5.371 -0.9599 -0.8538 -0.3527
   97SAPE   H7S 9688   6.774   3.124   5.281  1.1823  1.0587 -2.7322
   97SAPE   C28 9689   6.885   3.293   5.207 -0.1324 -0.3335 -0.3222
   97SAPE   H8R 9690   6.994   3.283   5.196 -0.0625 -0.1057  0.1206
   97SAPE   C29 9691   6.821   3.361   5.117 -0.4408  0.0787 -0.5831
   97SAPE   H9R 9692   6.868   3.411   5.031  0.3699 -0.3726 -0.4054
   97SAPE  C210 9693   6.673   3.370   5.120 -0.4046 -0.2856 -0.4660
   97SAPE  H10R 9694   6.632   3.411   5.215  0.8808 -0.0518 -0.0074
   97SAPE  H10S 9695   6.627   3.268   5.119 -0.5998 -0.1968 -2.7704
   97SAPE  C211 9696   6.599   3.445   5.008 -0.4339 -0.0255  0.4573
   97SAPE  H11R 9697   6.545   3.539   5.026 -3.3284 -1.4168 -0.5846
   97SAPE  C212 9698   6.604   3.405   4.877 -0.0697 -0.2343  0.5836
   97SAPE  H12R 9699   6.537   3.466   4.815  1.5700 -1.5968 -2.6047
   97SAPE  C213 9700   6.681   3.286   4.820  0.3511 -0.1845 -0.1015
   97SAPE  H13R 9701   6.649   3.197   4.879  1.2745  0.1856  0.9721
   97SAPE  H13S 9702   6.788   3.287   4.849 -0.2838  2.3353  2.4215
   97SAPE  C214 9703   6.676   3.286   4.671 -0.4113  0.4510 -0.7377
   97SAPE  H14R 9704   6.745   3.355   4.620  0.8316 -0.0291  0.2823
   97SAPE  C215 9705   6.586   3.224   4.590 -0.1195 -0.0114 -1.1173
   97SAPE  H15R 9706   6.602   3.220   4.482  2.3601  1.1029 -0.8282
   97SAPE  C216 9707   6.477   3.146   4.655  0.1901 -1.2103 -0.6162
   97SAPE  H16R 9708   6.412   3.223   4.702 -0.2275 -0.8973 -1.6878
   97SAPE  H16S 9709   6.513   3.075   4.732 -0.7815 -0.8952  0.1357
   97SAPE  C217 9710   6.386   3.068   4.555 -0.0583  0.7562 -0.1862
   97SAPE  H17R 9711   6.463   3.027   4.485  0.3550  1.3007 -0.0548
   97SAPE  H17S 9712   6.327   3.140   4.495  2.2696  2.1682 -0.8635
   97SAPE  C218 9713   6.314   2.953   4.618  0.0984 -0.2431  0.3343
   97SAPE  H18R 9714   6.266   2.978   4.714 -1.0101  0.1098 -0.3014
   97SAPE  H18S 9715   6.389   2.872   4.629 -1.5758 -2.1578 -1.8759
   97SAPE  C219 9716   6.206   2.890   4.524 -0.6730 -0.5511  0.1355
   97SAPE  H19R 9717   6.262   2.882   4.429 -0.4381  1.6784  0.0552
   97SAPE  H19S 9718   6.123   2.963   4.518 -0.4965 -0.2646  1.0313
   97SAPE  C220 9719   6.157   2.752   4.568  0.0467 -0.1187  0.5517
   97SAPE  H20R 9720   6.110   2.706   4.478  1.7324  0.0144 -0.4200
   97SAPE  H20S 9721   6.081   2.762   4.648 -0.4983  4.1940 -0.3670
   97SAPE  H20T 9722   6.239   2.684   4.596  0.2025  0.1439  0.7341
   97SAPE   C33 9723   6.469   2.878   5.462 -0.0588  0.0226  0.0118
   97SAPE   H3X 9724   6.493   2.803   5.540  0.4058  1.5333  1.3239
   97SAPE   H3Y 9725   6.502   2.975   5.504  2.8166 -0.6155 -0.6320
   97SAPE   C34 9726   6.542   2.856   5.320  0.3616 -0.4460  0.2668
   97SAPE   H4X 9727   6.501   2.760   5.281 -1.0055  0.6735 -1.0909
   97SAPE   H4Y 9728   6.649   2.832   5.336  0.0848 -2.1353 -0.2768
   97SAPE   C35 9729   6.519   2.969   5.223  0.5655 -0.0499 -0.5164
   97SAPE   H5X 9730   6.537   3.062   5.280 -0.8130  0.0071 -0.1638
   97SAPE   H5Y 9731   6.409   2.965   5.205  0.4259  0.5079  0.2169
   97SAPE   C36 9732   6.612   2.950   5.101 -0.1750  0.0789 -1.2292
   97SAPE   H6X 9733   6.719   2.956   5.132 -0.4950  3.1143 -0.5491
   97SAPE   H6Y 9734   6.607   3.036   5.030 -0.8243  0.6612 -0.4922
   97SAPE   C37 9735   6.592   2.822   5.017  0.5912 -0.2928 -0.5162
   97SAPE   H7X 9736   6.484   2.799   5.007  0.5831 -0.0958 -0.8666
   97SAPE   H7Y 9737   6.648   2.734   5.057 -0.1276 -1.0952 -1.2502
   97SAPE   C38 9738   6.636   2.837   4.875 -0.1570  0.2900  0.0949
   97SAPE   H8X 9739   6.744   2.858   4.887 -0.6147  2.3609  0.7963
   97SAPE   H8Y 9740   6.579   2.915   4.819  1.9067 -1.1271 -4.1897
   97SAPE   C39 9741   6.622   2.708   4.790  0.0751 -0.1056  0.9480
   97SAPE   H9X 9742   6.512   2.692   4.787  0.2072 -0.8035 -1.4241
   97SAPE   H9Y 9743   6.682   2.623   4.828 -0.5111 -0.1105  1.8872
   97SAPE  C310 9744   6.665   2.715   4.643  0.4503 -0.0473 -0.1393
   97SAPE  H10X 9745   6.771   2.747   4.647  0.1906  0.8710 -0.6400
   97SAPE  H10Y 9746   6.603   2.794   4.597 -1.1118 -1.2214 -0.1182
   97SAPE  C311 9747   6.642   2.583   4.576  0.9065  0.1681  0.0287
   97SAPE  H11X 9748   6.534   2.557   4.580  1.0998 -0.7304 -0.3835
   97SAPE  H11Y 9749   6.695   2.508   4.638  2.0417  2.8358  2.4232
   97SAPE  C312 9750   6.706   2.573   4.441 -0.2724 -0.0105  0.5051
   97SAPE  H12X 9751   6.681   2.470   4.406  3.6578 -0.9414  0.1908
   97SAPE  H12Y 9752   6.817   2.576   4.450 -0.1095  1.2038 -1.6867
   97SAPE  C313 9753   6.678   2.676   4.335 -0.3612  0.0971 -0.2345
   97SAPE  H13X 9754   6.737   2.651   4.245 -1.6889  0.3545 -1.2044
   97SAPE  H13Y 9755   6.718   2.772   4.374 -0.8191  0.2004 -0.0173
   97SAPE  C314 9756   6.521   2.681   4.291  0.0993 -0.3053 -0.5038
   97SAPE  H14X 9757   6.462   2.729   4.372  1.8452  2.5173 -0.8322
   97SAPE  H14Y 9758   6.495   2.574   4.274 -0.3737 -0.3609  0.5111
   97SAPE  C315 9759   6.500   2.774   4.169  0.3011  0.0917 -0.1503
   97SAPE  H15X 9760   6.594   2.777   4.109  0.1106 -0.3039 -0.4675
   97SAPE  H15Y 9761   6.490   2.880   4.199  0.9151  0.1205 -0.0342
   97SAPE  C316 9762   6.380   2.735   4.087  0.0191  0.8325 -0.2003
   97SAPE  H16X 9763   6.374   2.625   4.078  0.0534  0.7957  0.2086
   97SAPE  H16Y 9764   6.390   2.774   3.984  0.6973  1.3665  0.0620
   97SAPE  C317 9765   6.245   2.763   4.158 -0.0325 -0.4761 -0.3577
   97SAPE  H17X 9766   6.221   2.710   4.252 -1.1606 -0.8169 -0.8238
   97SAPE  H17Y 9767   6.167   2.723   4.089  1.4411 -1.8714 -1.2612
   97SAPE  C318 9768   6.234   2.911   4.165 -0.1481  0.1771 -0.9421
   97SAPE  H18X 9769   6.307   2.940   4.244  0.4540 -0.2347 -1.3428
   97SAPE  H18Y 9770   6.128   2.934   4.190 -0.2804 -0.1743 -1.1863
   97SAPE  H18Z 9771   6.258   2.959   4.068  1.3260 -3.1249 -2.2704
   98SAPE     N 9772   6.047   2.105   6.280  0.4599 -0.4141 -0.2806
   98SAPE   HN1 9773   6.092   2.192   6.245 -0.4792  0.8866  1.6669
   98SAPE   HN2 9774   5.948   2.134   6.293  0.8255  0.1211  1.4439
   98SAPE   HN3 9775   6.079   2.069   6.372 -0.8140  0.3805  0.4954
   98SAPE   C12 9776   6.055   1.993   6.176  0.2657  0.7827 -0.1057
   98SAPE  H12A 9777   6.161   1.993   6.144 -0.4941  2.0166 -2.7912
   98SAPE  H12B 9778   5.989   2.017   6.089  0.6693  2.2606 -0.0018
   98SAPE   C11 9779   6.004   1.862   6.217  0.1367  0.4407 -0.7224
   98SAPE  H11A 9780   6.077   1.822   6.291 -0.2221  1.7008  0.3380
   98SAPE  H11B 9781   6.000   1.791   6.131 -2.2647  1.5654 -1.5983
   98SAPE     P 9782   5.808   1.870   6.403  0.1197  0.2760 -0.0006
   98SAPE   O13 9783   5.888   1.775   6.487 -0.2420  0.4436  0.3745
   98SAPE   O14 9784   5.792   2.002   6.456  0.3312 -0.6759 -0.3772
   98SAPE   O12 9785   5.867   1.878   6.257 -0.1071  0.9523 -0.2927
   98SAPE   O11 9786   5.666   1.814   6.377  0.0763  0.5228  0.2144
   98SAPE    C1 9787   5.615   1.687   6.403  0.4164  0.1076 -0.1865
   98SAPE    HA 9788   5.680   1.604   6.369 -3.1761 -2.5340 -0.8707
   98SAPE    HB 9789   5.610   1.683   6.514  0.1610 -1.1720 -0.2443
   98SAPE    C2 9790   5.471   1.675   6.351 -0.1007  0.3204  0.1256
   98SAPE    HS 9791   5.418   1.583   6.384  0.1190  0.3075  0.4466
   98SAPE   O21 9792   5.476   1.677   6.209  0.6377  0.1063 -0.4448
   98SAPE   C21 9793   5.537   1.567   6.156 -0.0166  0.2746 -0.0250
   98SAPE   O22 9794   5.555   1.459   6.207 -0.3673  0.0779  0.1167
   98SAPE   C22 9795   5.574   1.598   6.012 -0.1972  0.3230  0.1896
   98SAPE   H2R 9796   5.568   1.708   6.000 -2.2670 -0.0356 -2.4452
   98SAPE   H2S 9797   5.680   1.568   5.998  0.1058  0.8882  1.2592
   98SAPE    C3 9798   5.387   1.792   6.402 -0.2282 -0.3587  0.5101
   98SAPE    HX 9799   5.455   1.875   6.429  0.1245 -0.4101 -0.2022
   98SAPE    HY 9800   5.342   1.758   6.498  1.9178  2.3578  2.5331
   98SAPE   O31 9801   5.281   1.828   6.303  0.3856  0.2029 -0.2371
   98SAPE   C31 9802   5.280   1.961   6.274  0.4712 -0.1524  0.3225
   98SAPE   O32 9803   5.322   2.048   6.346 -0.1734  0.2839 -0.3064
   98SAPE   C32 9804   5.238   1.976   6.128 -0.2521 -1.0492  0.5030
   98SAPE   H2X 9805   5.173   2.066   6.134  1.2099  0.1721 -1.1641
   98SAPE   H2Y 9806   5.181   1.887   6.092 -1.3484 -0.3296  0.4411
   98SAPE   C23 9807   5.474   1.519   5.926 -0.0663  0.3369 -0.5894
   98SAPE   H3R 9808   5.373   1.551   5.961  2.0969  3.0534  3.6560
   98SAPE   H3S 9809   5.498   1.412   5.943  1.2484  0.5590 -0.9762
   98SAPE   C24 9810   5.503   1.546   5.774  0.1737 -0.0372  0.1702
   98SAPE   H4R 9811   5.602   1.497   5.760  1.8564  2.6967  2.0447
   98SAPE   H4S 9812   5.528   1.654   5.775 -1.9206  0.4593  0.8203
   98SAPE   C25 9813   5.397   1.506   5.671 -0.3229 -0.3875  0.2496
   98SAPE   H5R 9814   5.308   1.569   5.686  0.3844  1.0191 -1.3544
   98SAPE   C26 9815   5.406   1.428   5.564 -0.6584 -0.1856  0.0081
   98SAPE   H6R 9816   5.315   1.401   5.508 -1.8199  1.8914  0.8387
   98SAPE   C27 9817   5.527   1.342   5.519 -0.4585 -0.0338  0.0430
   98SAPE   H7R 9818   5.620   1.349   5.580 -0.7609  0.5911  0.4294
   98SAPE   H7S 9819   5.555   1.379   5.417 -2.2210  0.9606 -0.0980
   98SAPE   C28 9820   5.486   1.200   5.527 -0.0837 -0.0311  0.7438
   98SAPE   H8R 9821   5.484   1.162   5.631  1.5082  1.7193  1.4564
   98SAPE   C29 9822   5.455   1.113   5.431 -0.4726  0.1745 -0.3318
   98SAPE   H9R 9823   5.417   1.012   5.455 -1.1522  0.8879  1.7043
   98SAPE  C210 9824   5.459   1.149   5.286  0.3160 -0.2176  0.1086
   98SAPE  H10R 9825   5.559   1.191   5.260  1.1705 -0.6870  2.5348
   98SAPE  H10S 9826   5.389   1.235   5.286  1.3545  0.6499 -0.0945
   98SAPE  C211 9827   5.420   1.040   5.188  0.0489  0.4079  0.5255
   98SAPE  H11R 9828   5.466   0.942   5.205 -0.4410  0.0058 -0.4344
   98SAPE  C212 9829   5.331   1.051   5.086 -0.4743 -0.4289 -0.0842
   98SAPE  H12R 9830   5.319   0.964   5.019  1.8523 -0.3512 -0.6351
   98SAPE  C213 9831   5.250   1.168   5.039 -0.1965  0.0661  0.0957
   98SAPE  H13R 9832   5.269   1.189   4.931 -2.4804 -2.7258 -0.8977
   98SAPE  H13S 9833   5.274   1.259   5.099 -1.0215  1.4171 -1.5738
   98SAPE  C214 9834   5.102   1.154   5.064 -0.6089 -0.0374  0.2377
   98SAPE  H14R 9835   5.064   1.073   5.128 -1.3962  0.1017 -0.0465
   98SAPE  C215 9836   5.008   1.234   5.008 -0.4961 -0.1261 -0.6554
   98SAPE  H15R 9837   4.904   1.207   5.033 -0.4953 -1.4945 -2.1388
   98SAPE  C216 9838   5.031   1.351   4.908 -0.0894 -0.1960  0.1951
   98SAPE  H16R 9839   5.123   1.410   4.928 -0.4586  0.2874  0.4802
   98SAPE  H16S 9840   4.955   1.431   4.917  0.9660  0.7241  1.2015
   98SAPE  C217 9841   5.028   1.301   4.765  0.8067 -0.3299  0.1970
   98SAPE  H17R 9842   4.920   1.279   4.752 -0.0387  3.0980  1.1272
   98SAPE  H17S 9843   5.090   1.209   4.762 -1.7718 -2.1290  0.0998
   98SAPE  C218 9844   5.085   1.394   4.655  0.0551  0.2764 -0.3046
   98SAPE  H18R 9845   5.180   1.438   4.691  0.5978 -0.3458 -0.9788
   98SAPE  H18S 9846   5.005   1.471   4.651  0.4881  0.6520 -2.0540
   98SAPE  C219 9847   5.107   1.328   4.521 -0.2652  0.4490  0.4187
   98SAPE  H19R 9848   5.186   1.251   4.534 -0.0083  0.7097  0.4221
   98SAPE  H19S 9849   5.147   1.400   4.446  1.5238 -1.0948 -0.1300
   98SAPE  C220 9850   4.991   1.254   4.458 -0.2136 -0.0471 -0.0693
   98SAPE  H20R 9851   5.006   1.211   4.356  0.4421  0.5144 -0.2135
   98SAPE  H20S 9852   4.910   1.325   4.432 -0.5533 -0.6391 -0.6504
   98SAPE  H20T 9853   4.958   1.180   4.534  1.6697 -0.1967  0.6349
   98SAPE   C33 9854   5.348   1.994   6.020 -0.1591 -0.3220 -0.0414
   98SAPE   H3X 9855   5.422   1.913   6.033  0.4756  0.5968  2.5230
   98SAPE   H3Y 9856   5.400   2.092   6.035 -0.1348 -0.5152  1.2097
   98SAPE   C34 9857   5.303   1.975   5.871  0.1537  0.2891 -0.6065
   98SAPE   H4X 9858   5.239   2.062   5.844 -0.5162 -1.0541 -3.4367
   98SAPE   H4Y 9859   5.265   1.873   5.854  1.0482 -0.0516 -0.6041
   98SAPE   C35 9860   5.425   1.988   5.777  0.8397  0.3177  0.4990
   98SAPE   H5X 9861   5.504   1.926   5.823  0.4425 -0.2041  0.4697
   98SAPE   H5Y 9862   5.472   2.088   5.763  0.4270  0.4075 -0.2878
   98SAPE   C36 9863   5.382   1.921   5.646  0.0639  0.5496  0.2329
   98SAPE   H6X 9864   5.305   1.983   5.595  0.6620  0.5447 -0.6873
   98SAPE   H6Y 9865   5.348   1.818   5.670 -0.4119  0.7450  0.4075
   98SAPE   C37 9866   5.506   1.890   5.557  0.0945 -0.1308  0.1843
   98SAPE   H7X 9867   5.588   1.847   5.618  1.2115  0.9350 -0.5464
   98SAPE   H7Y 9868   5.546   1.990   5.532 -2.9592  1.8672  2.8546
   98SAPE   C38 9869   5.467   1.792   5.443 -0.5317 -0.2702 -0.5004
   98SAPE   H8X 9870   5.408   1.842   5.364 -2.3545 -1.4158  0.1008
   98SAPE   H8Y 9871   5.400   1.716   5.489 -1.1779  0.0456 -0.9133
   98SAPE   C39 9872   5.585   1.717   5.372 -0.1729  0.1389 -0.7047
   98SAPE   H9X 9873   5.649   1.666   5.447  0.1319 -0.4089 -1.3335
   98SAPE   H9Y 9874   5.648   1.797   5.327 -0.8514  0.4242 -1.1557
   98SAPE  C310 9875   5.547   1.634   5.253 -0.0786 -0.3303  0.8159
   98SAPE  H10X 9876   5.529   1.688   5.157  0.3344 -1.2098  0.2373
   98SAPE  H10Y 9877   5.454   1.589   5.293  0.7870 -1.0952  1.9994
   98SAPE  C311 9878   5.645   1.525   5.212 -0.2079 -0.3317  0.0409
   98SAPE  H11X 9879   5.607   1.420   5.220  0.0172 -0.4033  0.1792
   98SAPE  H11Y 9880   5.730   1.527   5.283  2.8804  3.1477 -3.5628
   98SAPE  C312 9881   5.710   1.553   5.077 -0.0066 -0.6206  0.3542
   98SAPE  H12X 9882   5.766   1.649   5.086  0.7031 -0.9227 -0.7273
   98SAPE  H12Y 9883   5.629   1.570   5.002  0.4102  1.4971  0.3369
   98SAPE  C313 9884   5.811   1.452   5.022 -0.2446  0.1694 -0.1425
   98SAPE  H13X 9885   5.897   1.435   5.090  1.1562 -1.4640 -2.2363
   98SAPE  H13Y 9886   5.867   1.487   4.932 -1.7822  0.3978 -1.0262
   98SAPE  C314 9887   5.754   1.311   5.003 -0.0102  0.0054 -0.2516
   98SAPE  H14X 9888   5.684   1.275   5.082  0.5951 -2.4608 -0.8085
   98SAPE  H14Y 9889   5.842   1.247   5.025  1.8107  2.2165 -0.9089
   98SAPE  C315 9890   5.690   1.259   4.872 -1.2828 -0.1390 -0.2570
   98SAPE  H15X 9891   5.650   1.156   4.868 -0.5867 -0.4657  1.0921
   98SAPE  H15Y 9892   5.769   1.267   4.794  1.0386  1.4900  2.1575
   98SAPE  C316 9893   5.581   1.352   4.833 -0.3905 -0.2024 -0.4362
   98SAPE  H16X 9894   5.619   1.449   4.794 -1.8346  0.5837  0.0560
   98SAPE  H16Y 9895   5.533   1.384   4.928  0.8263  0.5316 -0.0580
   98SAPE  C317 9896   5.474   1.292   4.735 -0.0532 -0.3073  0.6167
   98SAPE  H17X 9897   5.407   1.373   4.699 -1.4649 -2.7936 -2.6199
   98SAPE  H17Y 9898   5.410   1.221   4.793  0.8879 -1.2975  0.4527
   98SAPE  C318 9899   5.535   1.224   4.609 -0.0639  0.1265  0.0676
   98SAPE  H18X 9900   5.617   1.159   4.647 -1.3507 -2.6180 -1.6431
   98SAPE  H18Y 9901   5.568   1.306   4.543 -2.0257  0.8481 -0.0562
   98SAPE  H18Z 9902   5.455   1.169   4.554  2.0530 -1.6973 -1.3021
   99SAPE     N 9903   5.582   6.795   6.456  0.2412 -0.7652 -1.3131
   99SAPE   HN1 9904   5.516   6.726   6.415 -0.2936 -0.7571 -0.4646
   99SAPE   HN2 9905   5.655   6.807   6.383  0.8190 -0.6531 -0.7232
   99SAPE   HN3 9906   5.630   6.754   6.538 -0.8216  0.4439 -0.0608
   99SAPE   C12 9907   5.495   6.922   6.495 -0.5216  0.2470  0.1435
   99SAPE  H12A 9908   5.567   6.990   6.546  1.1152 -0.1312 -1.6167
   99SAPE  H12B 9909   5.422   6.890   6.573  0.7956 -1.6982  0.6011
   99SAPE   C11 9910   5.433   6.982   6.371  0.0923 -0.7914 -0.3859
   99SAPE  H11A 9911   5.510   7.015   6.298 -1.5868 -0.7033 -2.1409
   99SAPE  H11B 9912   5.393   7.080   6.406 -1.1948 -1.8312  1.1018
   99SAPE     P 9913   5.337   6.790   6.222 -0.0565  0.0048  0.0138
   99SAPE   O13 9914   5.390   6.821   6.088  0.0358 -0.7376 -0.9621
   99SAPE   O14 9915   5.402   6.681   6.302  0.7352  0.7056 -0.4909
   99SAPE   O12 9916   5.322   6.919   6.307  0.0928  0.4100  0.1330
   99SAPE   O11 9917   5.185   6.749   6.203 -0.4581  0.1536  0.2231
   99SAPE    C1 9918   5.096   6.783   6.096  0.7466  0.0405 -0.0013
   99SAPE    HA 9919   5.018   6.859   6.121  2.1969  1.5522  0.0347
   99SAPE    HB 9920   5.146   6.829   6.008 -0.3217 -0.8257 -1.0761
   99SAPE    C2 9921   5.013   6.665   6.037 -0.0396  0.0888  0.3905
   99SAPE    HS 9922   4.986   6.586   6.111 -1.1914 -0.1272 -0.2407
   99SAPE   O21 9923   5.085   6.604   5.928 -0.0083  0.2264 -0.1339
   99SAPE   C21 9924   5.182   6.524   5.952 -0.0422 -0.3015 -0.7172
   99SAPE   O22 9925   5.222   6.489   6.057  0.3176 -0.5774  0.3379
   99SAPE   C22 9926   5.248   6.492   5.816  0.3937 -0.0505  0.1124
   99SAPE   H2R 9927   5.179   6.515   5.732 -0.4313  0.2124  0.8498
   99SAPE   H2S 9928   5.329   6.567   5.806  0.1368  0.1759 -0.3102
   99SAPE    C3 9929   4.879   6.707   5.978 -0.3919 -0.1892  0.3822
   99SAPE    HX 9930   4.827   6.724   6.074  1.0080  1.4318  0.8735
   99SAPE    HY 9931   4.842   6.612   5.932 -2.3708  0.0533  1.4431
   99SAPE   O31 9932   4.884   6.818   5.890 -0.0266  0.1450 -0.2504
   99SAPE   C31 9933   4.753   6.860   5.858 -0.1836 -0.7574 -1.0810
   99SAPE   O32 9934   4.656   6.808   5.902 -1.0276 -0.3839  0.3453
   99SAPE   C32 9935   4.754   6.976   5.764 -0.1479 -0.4560  1.0262
   99SAPE   H2X 9936   4.861   7.003   5.747 -0.8074  1.6869  0.0134
   99SAPE   H2Y 9937   4.702   7.063   5.809 -0.7946 -0.5976  0.5518
   99SAPE   C23 9938   5.307   6.353   5.806 -0.0628 -0.0401 -0.3328
   99SAPE   H3R 9939   5.394   6.346   5.875 -0.6674 -1.5147  0.3118
   99SAPE   H3S 9940   5.334   6.347   5.698  0.1288  0.0284 -0.2876
   99SAPE   C24 9941   5.215   6.233   5.850 -0.4782 -0.2648  0.0062
   99SAPE   H4R 9942   5.111   6.242   5.811  0.5791  1.7070 -2.4810
   99SAPE   H4S 9943   5.216   6.238   5.961  5.9028 -2.0245  0.2354
   99SAPE   C25 9944   5.283   6.104   5.801  0.1488 -0.4197 -0.2691
   99SAPE   H5R 9945   5.371   6.073   5.859 -0.1580  0.5581  0.7383
   99SAPE   C26 9946   5.242   6.027   5.691 -0.1412 -0.5795 -0.3494
   99SAPE   H6R 9947   5.307   5.942   5.663  0.1064 -0.2931 -0.6462
   99SAPE   C27 9948   5.138   6.046   5.591  0.0634  0.4047  0.2183
   99SAPE   H7R 9949   5.096   6.149   5.598 -3.8369 -1.0821  0.2426
   99SAPE   H7S 9950   5.051   5.986   5.626  0.8448  0.5466  2.4732
   99SAPE   C28 9951   5.180   6.017   5.447  0.7324 -0.3517 -0.2134
   99SAPE   H8R 9952   5.271   6.062   5.405  0.8858 -1.2959 -0.9382
   99SAPE   C29 9953   5.101   5.956   5.355 -0.2812 -0.4149 -0.5420
   99SAPE   H9R 9954   5.131   5.954   5.249  0.5982 -1.4942 -0.2821
   99SAPE  C210 9955   4.961   5.905   5.376 -0.0931  0.6540 -0.5138
   99SAPE  H10R 9956   4.968   5.821   5.448 -0.4150  1.0013 -0.0800
   99SAPE  H10S 9957   4.931   5.852   5.283  2.9693  0.1009 -1.2711
   99SAPE  C211 9958   4.845   5.986   5.428  0.0688  0.1239 -0.2790
   99SAPE  H11R 9959   4.829   5.972   5.536 -0.5549  1.8664 -0.1362
   99SAPE  C212 9960   4.772   6.080   5.359  0.1909  0.3516  0.4381
   99SAPE  H12R 9961   4.681   6.117   5.408  0.9381  1.1275  1.2437
   99SAPE  C213 9962   4.803   6.119   5.222 -0.5100  0.1805 -0.7215
   99SAPE  H13R 9963   4.756   6.046   5.152 -1.2052  1.7738 -1.9766
   99SAPE  H13S 9964   4.912   6.113   5.206 -0.3777 -0.9438  0.5312
   99SAPE  C214 9965   4.757   6.261   5.185 -0.6253  0.4215  0.6366
   99SAPE  H14R 9966   4.771   6.331   5.269  2.4424  0.9141 -0.2428
   99SAPE  C215 9967   4.717   6.307   5.064  0.3388 -0.1096  0.1129
   99SAPE  H15R 9968   4.700   6.415   5.067 -1.6070 -0.2660 -3.0520
   99SAPE  C216 9969   4.697   6.232   4.938 -0.2933  0.2623 -0.1858
   99SAPE  H16R 9970   4.589   6.211   4.926 -1.2193  2.7470  3.2447
   99SAPE  H16S 9971   4.756   6.137   4.934 -1.3621 -0.4304  0.4015
   99SAPE  C217 9972   4.747   6.314   4.816  0.1635 -0.3983 -0.5845
   99SAPE  H17R 9973   4.853   6.335   4.843  0.2173 -0.0780 -1.0368
   99SAPE  H17S 9974   4.703   6.415   4.806 -0.9734 -0.8296 -0.0215
   99SAPE  C218 9975   4.732   6.233   4.688  0.3367 -0.3211  0.4964
   99SAPE  H18R 9976   4.624   6.211   4.678 -0.4060  2.7182  1.3411
   99SAPE  H18S 9977   4.790   6.138   4.694  1.2251  0.1987  0.2436
   99SAPE  C219 9978   4.794   6.313   4.571 -0.5948  0.0624 -0.7699
   99SAPE  H19R 9979   4.747   6.412   4.555  0.2491  0.6328  0.2880
   99SAPE  H19S 9980   4.775   6.247   4.483  1.4067  0.4621 -1.5193
   99SAPE  C220 9981   4.946   6.330   4.560  0.9387  0.3925  0.8201
   99SAPE  H20R 9982   4.975   6.392   4.472 -0.8919  1.3104  0.8494
   99SAPE  H20S 9983   4.990   6.231   4.536 -0.1204 -0.2451  1.4763
   99SAPE  H20T 9984   4.991   6.360   4.656 -1.3355  0.0771  2.0085
   99SAPE   C33 9985   4.684   6.947   5.634 -0.1988  0.1196  0.1102
   99SAPE   H3X 9986   4.575   6.934   5.652 -0.0335  0.0126  1.0960
   99SAPE   H3Y 9987   4.722   6.860   5.576  0.3500 -0.0227  0.6783
   99SAPE   C34 9988   4.697   7.083   5.561 -0.0201 -0.5731 -0.1781
   99SAPE   H4X 9989   4.805   7.112   5.561  0.2303 -1.4809  0.2987
   99SAPE   H4Y 9990   4.645   7.153   5.631  0.4166  2.6998 -2.9680
   99SAPE   C35 9991   4.631   7.093   5.422  0.1287  0.2727  0.5213
   99SAPE   H5X 9992   4.522   7.082   5.444  0.0853 -1.3141 -0.3953
   99SAPE   H5Y 9993   4.665   7.004   5.366 -1.1888 -0.2925  0.5888
   99SAPE   C36 9994   4.661   7.230   5.362  0.1886  0.8141 -0.1328
   99SAPE   H6X 9995   4.768   7.253   5.380  0.4904 -0.5033 -0.1548
   99SAPE   H6Y 9996   4.603   7.311   5.410  1.0628  0.3163  1.8371
   99SAPE   C37 9997   4.630   7.241   5.212  0.6796  0.4440  0.2219
   99SAPE   H7X 9998   4.521   7.216   5.210  0.8519 -0.3500  0.3341
   99SAPE   H7Y 9999   4.684   7.157   5.163  0.9492 -1.2525  3.2793
   99SAPE   C3810000   4.678   7.376   5.144 -0.5032 -0.0417 -0.1020
   99SAPE   H8X10001   4.771   7.408   5.196  0.3401 -1.0651 -0.9472
   99SAPE   H8Y10002   4.601   7.448   5.178  2.3498  2.8276  0.5683
   99SAPE   C3910003   4.710   7.363   4.999  0.3261 -0.2869 -0.2490
   99SAPE   H9X10004   4.724   7.466   4.958 -2.5004 -0.2497 -1.2289
   99SAPE   H9Y10005   4.632   7.322   4.931  1.0745 -0.4366 -1.0359
   99SAPE  C31010006   4.847   7.286   4.962  0.4879 -0.1146 -0.4099
   99SAPE  H10X10007   4.831   7.181   4.994 -0.2208  0.0833 -0.1071
   99SAPE  H10Y10008   4.928   7.332   5.023 -1.6111  1.8000  1.0025
   99SAPE  C31110009   4.877   7.287   4.810  0.1883  0.4619 -0.3556
   99SAPE  H11X10010   4.868   7.391   4.770  0.4290  0.0238 -1.5779
   99SAPE  H11Y10011   4.813   7.220   4.749  1.4745 -0.5898 -0.5615
   99SAPE  C31210012   5.024   7.260   4.775 -0.7321 -0.3948 -0.5069
   99SAPE  H12X10013   5.084   7.337   4.827  0.0441  0.9911 -3.3883
   99SAPE  H12Y10014   5.037   7.259   4.665  0.2147  3.5105 -0.4941
   99SAPE  C31310015   5.075   7.124   4.833  0.0328 -0.6514  0.4447
   99SAPE  H13X10016   4.993   7.050   4.819 -1.5319  0.7998  1.7945
   99SAPE  H13Y10017   5.089   7.129   4.943  2.5339 -1.1300  0.1707
   99SAPE  C31410018   5.214   7.087   4.765 -0.6011  0.0490 -0.1811
   99SAPE  H14X10019   5.291   7.167   4.765  1.1495 -1.4215 -5.3057
   99SAPE  H14Y10020   5.195   7.069   4.657  1.4820 -0.4983 -0.4784
   99SAPE  C31510021   5.281   6.965   4.834 -0.1872  0.0985 -0.1582
   99SAPE  H15X10022   5.236   6.927   4.928 -2.0243 -0.5783 -1.2953
   99SAPE  H15Y10023   5.387   6.979   4.865 -0.2366  3.0315 -1.1980
   99SAPE  C31610024   5.288   6.851   4.730 -0.0235  1.0575 -0.2652
   99SAPE  H16X10025   5.321   6.887   4.630  1.1546  2.8740  0.7581
   99SAPE  H16Y10026   5.186   6.808   4.730  0.5000 -0.1985  0.0867
   99SAPE  C31710027   5.373   6.735   4.764  0.5819  0.2335 -0.2295
   99SAPE  H17X10028   5.469   6.774   4.803  1.3727  0.4481 -2.3187
   99SAPE  H17Y10029   5.401   6.683   4.670  0.5313 -0.1172 -0.0544
   99SAPE  C31810030   5.309   6.637   4.864  0.1993 -0.7556  0.1339
   99SAPE  H18X10031   5.378   6.563   4.911 -0.5323 -2.8631 -2.0094
   99SAPE  H18Y10032   5.227   6.580   4.815 -0.3900 -0.1812  0.4528
   99SAPE  H18Z10033   5.270   6.689   4.954  0.0077 -1.7078  0.6069
  100SAPE     N10034   1.618   6.586   6.386 -0.0871 -0.0846 -0.2695
  100SAPE   HN110035   1.575   6.502   6.429 -1.0460 -0.3462 -1.6973
  100SAPE   HN210036   1.642   6.645   6.468  0.4543 -0.9308  0.1846
  100SAPE   HN310037   1.559   6.637   6.317 -2.5105 -0.1975  1.6738
  100SAPE   C1210038   1.753   6.532   6.326  0.5985 -0.3211  0.0438
  100SAPE  H12A10039   1.805   6.505   6.420  1.4922  1.5218  0.1127
  100SAPE  H12B10040   1.796   6.623   6.278  0.0003  0.3920  0.8413
  100SAPE   C1110041   1.752   6.406   6.235 -0.2591 -0.3688  0.5009
  100SAPE  H11A10042   1.860   6.386   6.221 -0.1942 -0.3684  0.9983
  100SAPE  H11B10043   1.698   6.428   6.141  1.7442  1.2371 -0.3107
  100SAPE     P10044   1.719   6.145   6.282 -0.2665  0.1504  0.2112
  100SAPE   O1310045   1.849   6.128   6.207  0.2164  0.6373  0.3420
  100SAPE   O1410046   1.715   6.068   6.405  0.3596 -0.8332  0.5134
  100SAPE   O1210047   1.687   6.297   6.303 -0.0818  0.8082  0.4168
  100SAPE   O1110048   1.603   6.096   6.184 -0.1195 -0.1406  1.2478
  100SAPE    C110049   1.510   6.194   6.133 -0.1477  0.0139  0.3747
  100SAPE    HA10050   1.475   6.270   6.206 -0.5793  1.9736 -1.7853
  100SAPE    HB10051   1.564   6.264   6.065  0.7927 -1.0548  0.0073
  100SAPE    C210052   1.393   6.137   6.044  0.3709 -0.0038 -0.2596
  100SAPE    HS10053   1.319   6.091   6.114 -0.2786  1.4456  0.0470
  100SAPE   O2110054   1.444   6.051   5.938  0.4604  0.0187  0.2121
  100SAPE   C2110055   1.358   5.966   5.885  1.2495 -0.0333 -0.0509
  100SAPE   O2210056   1.246   5.951   5.930  0.1165  0.4221  0.3074
  100SAPE   C2210057   1.432   5.898   5.767  0.2739 -0.2861 -0.8481
  100SAPE   H2R10058   1.533   5.868   5.803 -0.3582 -0.1038  1.1268
  100SAPE   H2S10059   1.373   5.807   5.743 -1.0567  0.5031 -0.6077
  100SAPE    C310060   1.318   6.256   5.979  0.5571 -0.0575  0.1522
  100SAPE    HX10061   1.269   6.311   6.062 -0.9652 -1.3504  0.1244
  100SAPE    HY10062   1.243   6.209   5.912  0.5793  0.5529 -0.3066
  100SAPE   O3110063   1.405   6.328   5.891  0.5414 -0.1470  0.4411
  100SAPE   C3110064   1.389   6.455   5.896  0.4793 -0.5779 -0.2787
  100SAPE   O3210065   1.308   6.517   5.965  0.0174  0.0588  0.2118
  100SAPE   C3210066   1.480   6.514   5.792 -0.2323  0.5076 -0.9397
  100SAPE   H2X10067   1.574   6.458   5.810 -1.0244 -0.3310  0.7207
  100SAPE   H2Y10068   1.508   6.614   5.832  1.0908 -0.2287 -0.0047
  100SAPE   C2310069   1.439   5.993   5.648  0.4000  0.4761  0.2971
  100SAPE   H3R10070   1.478   5.934   5.562  0.6597 -0.6368  1.1647
  100SAPE   H3S10071   1.521   6.062   5.679  0.9072 -0.3498  0.8148
  100SAPE   C2410072   1.316   6.063   5.587 -0.1067 -0.1851 -0.6626
  100SAPE   H4R10073   1.351   6.129   5.505  0.2431  0.8245  0.2784
  100SAPE   H4S10074   1.286   6.140   5.662 -0.3898 -0.3225 -0.6361
  100SAPE   C2510075   1.196   5.978   5.546  0.5451  0.5929 -0.2475
  100SAPE   H5R10076   1.155   5.906   5.619  0.4919 -1.6957 -2.4901
  100SAPE   C2610077   1.140   5.980   5.427  0.0642  0.3786  0.9958
  100SAPE   H6R10078   1.049   5.920   5.420  0.1293  0.2146  1.5591
  100SAPE   C2710079   1.178   6.062   5.307 -0.2089  0.3032 -0.2501
  100SAPE   H7R10080   1.165   6.016   5.207 -0.6361 -0.3609  0.1061
  100SAPE   H7S10081   1.286   6.088   5.308  0.0225 -0.4051 -2.8904
  100SAPE   C2810082   1.099   6.189   5.312 -0.6201 -0.5252 -0.4752
  100SAPE   H8R10083   1.107   6.246   5.406 -0.0475  2.6808 -2.3846
  100SAPE   C2910084   1.024   6.247   5.220 -0.1336  0.7384  0.8273
  100SAPE   H9R10085   0.973   6.340   5.248 -2.2675  0.0953 -0.7650
  100SAPE  C21010086   0.999   6.195   5.082  0.5485 -0.3169 -0.3399
  100SAPE  H10R10087   1.078   6.123   5.052  0.7279 -0.2090 -0.1233
  100SAPE  H10S10088   1.018   6.282   5.016 -3.1332  1.5836  0.9537
  100SAPE  C21110089   0.857   6.147   5.059  0.6177 -0.6745 -0.6581
  100SAPE  H11R10090   0.836   6.043   5.089 -2.0959 -0.3514 -1.2938
  100SAPE  C21210091   0.768   6.221   4.992 -0.3799 -0.5451 -0.0630
  100SAPE  H12R10092   0.682   6.157   4.968 -1.1703  0.3165  0.4314
  100SAPE  C21310093   0.792   6.358   4.929 -0.4883 -0.7661  0.4653
  100SAPE  H13R10094   0.841   6.357   4.830 -1.8672 -1.4085 -0.2194
  100SAPE  H13S10095   0.846   6.424   5.001 -1.9229 -0.0339  0.8944
  100SAPE  C21410096   0.658   6.424   4.913  0.2166  0.6534  0.6403
  100SAPE  H14R10097   0.593   6.419   5.002  0.8037 -2.8813  0.9829
  100SAPE  C21510098   0.618   6.487   4.802 -1.1565  0.3777 -0.5455
  100SAPE  H15R10099   0.515   6.524   4.809 -1.8604 -1.4155 -1.4064
  100SAPE  C21610100   0.698   6.496   4.666 -0.6904  0.3839  0.2057
  100SAPE  H16R10101   0.797   6.538   4.695 -0.2952 -2.1901  2.8366
  100SAPE  H16S10102   0.658   6.574   4.599  0.8095  1.2276  0.2582
  100SAPE  C21710103   0.702   6.364   4.579  0.4153 -0.8913  0.7302
  100SAPE  H17R10104   0.594   6.339   4.565 -0.1806  1.6484  0.4449
  100SAPE  H17S10105   0.758   6.289   4.639 -0.0798 -1.4578  0.4896
  100SAPE  C21810106   0.764   6.394   4.441 -0.7266 -0.5253  0.2938
  100SAPE  H18R10107   0.718   6.484   4.393 -2.1620 -0.9871  0.7743
  100SAPE  H18S10108   0.760   6.297   4.388  1.2154 -0.5669  0.1779
  100SAPE  C21910109   0.917   6.418   4.447 -0.2666 -0.3660  0.0911
  100SAPE  H19R10110   0.934   6.520   4.487  2.1824  0.6607 -3.3693
  100SAPE  H19S10111   0.955   6.430   4.344 -1.4417 -2.5279 -0.6186
  100SAPE  C22010112   1.005   6.325   4.529  0.4730 -0.0411 -0.7398
  100SAPE  H20R10113   1.111   6.357   4.520 -0.2758  2.5299 -0.7482
  100SAPE  H20S10114   0.983   6.222   4.492 -1.6692  0.2505 -0.3651
  100SAPE  H20T10115   0.984   6.321   4.638  3.3342  1.6171 -0.0883
  100SAPE   C3310116   1.421   6.515   5.652 -0.4003 -0.3034 -0.0065
  100SAPE   H3X10117   1.333   6.581   5.637  0.5448  0.7156 -1.1864
  100SAPE   H3Y10118   1.373   6.417   5.630  1.6808 -1.3357 -0.0642
  100SAPE   C3410119   1.536   6.549   5.549  0.7953  0.1320  0.0595
  100SAPE   H4X10120   1.618   6.476   5.568  0.9624  0.2502 -0.2039
  100SAPE   H4Y10121   1.571   6.650   5.578  0.1561  0.8075 -1.5067
  100SAPE   C3510122   1.495   6.566   5.402 -0.3088 -0.9797  0.2129
  100SAPE   H5X10123   1.589   6.595   5.349 -0.2969  2.7607  2.0956
  100SAPE   H5Y10124   1.428   6.655   5.406 -0.5535 -1.2038  1.2031
  100SAPE   C3610125   1.431   6.442   5.337 -0.0127  0.1739 -0.0866
  100SAPE   H6X10126   1.338   6.417   5.392 -0.6668 -2.1769 -2.1482
  100SAPE   H6Y10127   1.503   6.363   5.368 -0.5124  0.6246  2.2715
  100SAPE   C3710128   1.414   6.453   5.185 -0.1467 -0.2220 -0.7726
  100SAPE   H7X10129   1.505   6.511   5.158  0.8658 -0.8967  1.0560
  100SAPE   H7Y10130   1.326   6.517   5.164 -0.2366  0.2832  1.0208
  100SAPE   C3810131   1.407   6.319   5.108 -0.2175 -0.9522 -0.5447
  100SAPE   H8X10132   1.316   6.262   5.138  1.4117 -3.4105 -0.1645
  100SAPE   H8Y10133   1.495   6.254   5.127 -0.2384 -0.1689  2.6096
  100SAPE   C3910134   1.383   6.334   4.963  0.0118 -0.3731 -0.5960
  100SAPE   H9X10135   1.463   6.396   4.918  0.9500  2.1656  4.2385
  100SAPE   H9Y10136   1.290   6.395   4.953 -1.2681 -1.8879  1.5379
  100SAPE  C31010137   1.373   6.201   4.894 -0.0357  0.5317 -0.1025
  100SAPE  H10X10138   1.292   6.142   4.942  1.7230 -1.8646  0.0191
  100SAPE  H10Y10139   1.471   6.149   4.902 -1.0497 -1.1306  1.7930
  100SAPE  C31110140   1.340   6.203   4.742  0.5060  0.1895  1.0229
  100SAPE  H11X10141   1.428   6.253   4.697  2.0410 -3.0200  0.3045
  100SAPE  H11Y10142   1.242   6.252   4.722  0.3939 -1.0620 -1.5959
  100SAPE  C31210143   1.326   6.068   4.683 -0.1580 -0.0640 -0.2126
  100SAPE  H12X10144   1.414   6.004   4.706  0.3412  1.3775  2.0317
  100SAPE  H12Y10145   1.320   6.088   4.574 -0.5211  3.7529  0.4352
  100SAPE  C31310146   1.199   5.994   4.729 -0.5937  0.2290 -0.1891
  100SAPE  H13X10147   1.115   6.066   4.719 -1.4422 -0.6207  0.7806
  100SAPE  H13Y10148   1.206   5.964   4.836  0.2479 -2.0589 -0.8621
  100SAPE  C31410149   1.179   5.869   4.648 -0.5640  0.3741  0.1051
  100SAPE  H14X10150   1.086   5.817   4.679 -1.1007  0.9248 -0.5780
  100SAPE  H14Y10151   1.261   5.794   4.660 -1.8203 -1.0333  0.0207
  100SAPE  C31510152   1.162   5.897   4.500 -0.2909  0.1326  0.1694
  100SAPE  H15X10153   1.259   5.923   4.451 -1.1334  3.2408  0.0343
  100SAPE  H15Y10154   1.094   5.984   4.490 -2.9423 -1.6731  1.7519
  100SAPE  C31610155   1.096   5.772   4.423 -0.7161  0.0530  0.0924
  100SAPE  H16X10156   1.032   5.702   4.482 -0.7321  0.5553  0.6713
  100SAPE  H16Y10157   1.186   5.715   4.390 -0.1374 -0.8325  3.0411
  100SAPE  C31710158   1.018   5.822   4.304 -0.2024 -0.1287 -1.0690
  100SAPE  H17X10159   1.085   5.888   4.245 -1.0601  0.9756 -0.8340
  100SAPE  H17Y10160   0.927   5.873   4.343  1.0425  0.1586  1.5708
  100SAPE  C31810161   0.958   5.716   4.216 -0.5394 -0.3102 -0.0603
  100SAPE  H18X10162   0.941   5.762   4.116 -0.3598 -2.8736 -1.3194
  100SAPE  H18Y10163   0.870   5.672   4.266 -0.0500  1.0304  2.0181
  100SAPE  H18Z10164   1.038   5.640   4.200  1.2733  1.8966 -2.0174
  101SAPE     N10165   0.698   1.379   6.406 -0.0150  0.5109  0.9123
  101SAPE   HN110166   0.678   1.288   6.455 -3.6319 -1.0087 -3.0451
  101SAPE   HN210167   0.749   1.444   6.470  1.5727  2.9219 -2.6914
  101SAPE   HN310168   0.602   1.410   6.379  0.8906  1.8309 -0.8093
  101SAPE   C1210169   0.775   1.360   6.275  0.2178  0.6991  0.7422
  101SAPE  H12A10170   0.708   1.300   6.210 -3.5873  1.6604  3.5731
  101SAPE  H12B10171   0.869   1.307   6.299 -0.0190 -0.8645 -1.7431
  101SAPE   C1110172   0.806   1.498   6.228 -0.2801 -0.3990  0.3050
  101SAPE  H11A10173   0.713   1.559   6.216  1.6937  2.3570 -1.7470
  101SAPE  H11B10174   0.846   1.498   6.124 -0.5147  2.9554  0.1658
  101SAPE     P10175   1.039   1.599   6.307 -0.1016 -0.3696 -0.0905
  101SAPE   O1310176   1.090   1.687   6.412 -0.0527 -0.0164 -0.2133
  101SAPE   O1410177   1.116   1.479   6.295 -0.2911  0.6093 -0.3376
  101SAPE   O1210178   0.886   1.580   6.328  0.4666  0.2664 -0.3214
  101SAPE   O1110179   1.043   1.680   6.169  0.1164 -0.0487 -0.2580
  101SAPE    C110180   0.960   1.794   6.149 -0.1478 -0.2074 -0.4769
  101SAPE    HA10181   0.885   1.768   6.072 -0.6153  2.0813 -0.8301
  101SAPE    HB10182   0.916   1.834   6.243 -0.8379 -2.1678  0.0593
  101SAPE    C210183   1.037   1.898   6.073 -0.0186  1.0699 -0.8742
  101SAPE    HS10184   1.107   1.947   6.145 -0.6112 -0.9363  1.1145
  101SAPE   O2110185   0.943   1.991   6.021 -0.2589  0.4674 -0.1375
  101SAPE   C2110186   0.908   2.079   6.116 -0.3006  0.0759  0.6247
  101SAPE   O2210187   0.953   2.079   6.233 -0.6669 -0.0774 -0.0847
  101SAPE   C2210188   0.795   2.169   6.051 -0.2812  0.7977  0.5366
  101SAPE   H2R10189   0.770   2.243   6.131 -1.2998  2.1218 -0.9809
  101SAPE   H2S10190   0.845   2.213   5.962  0.6115 -2.0397 -0.3956
  101SAPE    C310191   1.127   1.850   5.969  0.1099 -0.7861  0.1922
  101SAPE    HX10192   1.080   1.778   5.898  0.7050  0.0120 -1.0387
  101SAPE    HY10193   1.206   1.783   6.011  1.1649  0.1032 -0.3323
  101SAPE   O3110194   1.187   1.958   5.892 -0.0823  0.1165  0.0772
  101SAPE   C3110195   1.305   1.996   5.936  0.0514 -0.7786  0.1701
  101SAPE   O3210196   1.365   1.970   6.038  0.6937  0.4363 -0.5944
  101SAPE   C3210197   1.371   2.094   5.836 -0.2168  0.0794  0.2907
  101SAPE   H2X10198   1.436   2.165   5.891  2.3869 -1.1995 -1.0379
  101SAPE   H2Y10199   1.291   2.144   5.778 -0.9932 -0.5902  0.7797
  101SAPE   C2310200   0.675   2.088   6.014 -0.4386  0.3099  0.3434
  101SAPE   H3R10201   0.696   1.996   5.955 -1.1029  0.7194 -0.5397
  101SAPE   H3S10202   0.611   2.139   5.939 -0.6935  0.1743  0.4660
  101SAPE   C2410203   0.584   2.057   6.132  0.0413  0.1368 -0.9075
  101SAPE   H4R10204   0.490   2.028   6.082  0.9195 -2.0643 -1.3465
  101SAPE   H4S10205   0.567   2.156   6.179 -1.4658 -0.2348 -0.6508
  101SAPE   C2510206   0.615   1.953   6.243 -0.2612 -0.0145  0.1633
  101SAPE   H5R10207   0.628   1.987   6.347  1.0289  2.4715 -0.7530
  101SAPE   C2610208   0.606   1.821   6.214 -0.5839  0.4750 -0.2203
  101SAPE   H6R10209   0.640   1.744   6.285 -0.2092  1.6474  0.8815
  101SAPE   C2710210   0.573   1.752   6.083 -0.1568  0.0072  0.1683
  101SAPE   H7R10211   0.670   1.711   6.046  1.3526 -0.1388  4.0600
  101SAPE   H7S10212   0.526   1.829   6.018  0.2760 -0.8893 -1.2249
  101SAPE   C2810213   0.478   1.633   6.088 -0.5600  0.0305 -1.3692
  101SAPE   H8R10214   0.399   1.643   6.163  0.0231  0.7697 -0.8432
  101SAPE   C2910215   0.471   1.515   6.017  0.3051  0.8896  0.4630
  101SAPE   H9R10216   0.394   1.440   6.043  0.0343  1.0795  0.2164
  101SAPE  C21010217   0.574   1.482   5.913 -0.0336 -0.8160  0.2073
  101SAPE  H10R10218   0.612   1.385   5.951  0.3284 -0.4361  0.8278
  101SAPE  H10S10219   0.656   1.556   5.926 -0.3174 -0.5076  0.2570
  101SAPE  C21110220   0.519   1.476   5.771  0.3733  0.1468  0.3599
  101SAPE  H11R10221   0.441   1.402   5.749 -0.1136  1.2767 -1.9500
  101SAPE  C21210222   0.563   1.559   5.667 -0.8220 -0.2443  0.4426
  101SAPE  H12R10223   0.515   1.545   5.569  1.4829  0.7402 -0.8739
  101SAPE  C21310224   0.667   1.667   5.659 -0.6048 -1.0098 -0.2048
  101SAPE  H13R10225   0.753   1.622   5.713  1.0483 -0.6319 -2.4907
  101SAPE  H13S10226   0.634   1.751   5.724 -0.3449 -1.9506  1.1608
  101SAPE  C21410227   0.710   1.720   5.519  0.6102 -0.7308  0.4197
  101SAPE  H14R10228   0.681   1.655   5.435  0.9315 -0.1652 -0.1313
  101SAPE  C21510229   0.768   1.841   5.499  0.2568 -0.1410  0.3440
  101SAPE  H15R10230   0.789   1.874   5.397 -0.7281 -2.6815 -0.7052
  101SAPE  C21610231   0.798   1.941   5.618 -0.2778 -0.5970  0.1747
  101SAPE  H16R10232   0.820   1.893   5.716  2.1793  0.7184  0.2837
  101SAPE  H16S10233   0.715   2.011   5.642 -0.5204 -1.4266  1.8266
  101SAPE  C21710234   0.926   2.027   5.588  0.4788  0.3768 -0.0602
  101SAPE  H17R10235   0.974   2.068   5.679  2.7020 -0.1503 -0.9637
  101SAPE  H17S10236   0.887   2.117   5.536  0.0437  1.1144  1.4943
  101SAPE  C21810237   1.041   1.956   5.505 -0.2439  0.0546 -0.1686
  101SAPE  H18R10238   1.133   2.018   5.495 -1.1410  1.6461  1.0990
  101SAPE  H18S10239   1.009   1.942   5.399  1.0757  2.4536 -0.9337
  101SAPE  C21910240   1.089   1.828   5.580 -0.2102 -0.8362  0.1590
  101SAPE  H19R10241   1.005   1.756   5.591 -2.4738  1.5609 -0.7063
  101SAPE  H19S10242   1.121   1.853   5.683  1.4840 -0.6928 -0.3990
  101SAPE  C22010243   1.203   1.766   5.506  0.1560 -0.7352 -0.1517
  101SAPE  H20R10244   1.187   1.740   5.399  0.1632  0.0508 -0.3430
  101SAPE  H20S10245   1.226   1.669   5.557  2.5288 -0.4473 -0.6273
  101SAPE  H20T10246   1.293   1.831   5.505  0.9979 -1.8550  0.6663
  101SAPE   C3310247   1.453   2.008   5.739  0.5419  0.3353  0.4232
  101SAPE   H3X10248   1.398   1.977   5.647  0.6677  1.0992  0.0873
  101SAPE   H3Y10249   1.499   1.919   5.787  2.3565  0.5632 -0.8708
  101SAPE   C3410250   1.574   2.098   5.696 -0.6618  0.2636  0.3750
  101SAPE   H4X10251   1.655   2.076   5.768 -0.3093  3.4868  1.0564
  101SAPE   H4Y10252   1.537   2.203   5.705 -1.5550  0.1261 -1.3620
  101SAPE   C3510253   1.617   2.081   5.549  0.9335  0.1423  0.1906
  101SAPE   H5X10254   1.666   2.176   5.519  2.0259 -0.9354 -1.4685
  101SAPE   H5Y10255   1.528   2.065   5.484  0.4633 -0.3356  0.9398
  101SAPE   C3610256   1.711   1.967   5.528 -0.3343 -0.3629 -0.3483
  101SAPE   H6X10257   1.656   1.874   5.555  0.5264 -1.2085 -1.4755
  101SAPE   H6Y10258   1.788   1.971   5.609  0.3868  0.5756 -1.0669
  101SAPE   C3710259   1.775   1.958   5.385  0.2435 -0.2233  0.3953
  101SAPE   H7X10260   1.848   2.041   5.373  0.5709 -0.8232 -2.1899
  101SAPE   H7Y10261   1.701   1.966   5.303  0.8830 -0.8926 -0.2513
  101SAPE   C3810262   1.847   1.823   5.367 -0.0712 -0.5438 -0.2957
  101SAPE   H8X10263   1.766   1.747   5.368 -0.3335 -0.2626  0.9070
  101SAPE   H8Y10264   1.923   1.807   5.447  1.5941  1.0160 -1.5153
  101SAPE   C3910265   1.913   1.817   5.226 -0.1017 -0.1395 -0.1587
  101SAPE   H9X10266   1.966   1.720   5.217  0.9753  0.4337 -0.0389
  101SAPE   H9Y10267   1.985   1.899   5.207 -0.3097  0.7194  2.5975
  101SAPE  C31010268   1.814   1.824   5.107  0.4406  0.0154 -0.0251
  101SAPE  H10X10269   1.752   1.916   5.107  1.1857  0.5899  2.8574
  101SAPE  H10Y10270   1.752   1.733   5.120 -0.2067  0.2053 -1.6322
  101SAPE  C31110271   1.892   1.807   4.973  0.6268  0.3956  0.7907
  101SAPE  H11X10272   1.961   1.720   4.988 -0.5093 -0.3879  1.5232
  101SAPE  H11Y10273   1.951   1.896   4.942  2.1131 -0.5015  0.9872
  101SAPE  C31210274   1.807   1.761   4.854  1.0029  0.8583  0.2235
  101SAPE  H12X10275   1.708   1.810   4.868  0.7343  0.0640  1.1557
  101SAPE  H12Y10276   1.799   1.650   4.847  1.1239  0.8242  0.5930
  101SAPE  C31310277   1.868   1.807   4.722  0.4831  0.0844 -0.1435
  101SAPE  H13X10278   1.956   1.747   4.691 -0.4453 -0.5231 -1.6436
  101SAPE  H13Y10279   1.906   1.911   4.733 -0.6001  0.3794  0.9424
  101SAPE  C31410280   1.750   1.800   4.621  1.1085 -0.0964  0.7784
  101SAPE  H14X10281   1.766   1.866   4.533 -1.6662 -0.8077 -0.3291
  101SAPE  H14Y10282   1.665   1.839   4.681  1.0001  0.7385  0.0941
  101SAPE  C31510283   1.713   1.654   4.569  0.1088 -0.8653  0.0681
  101SAPE  H15X10284   1.660   1.604   4.653  1.4156 -0.8833  0.9033
  101SAPE  H15Y10285   1.800   1.589   4.544  2.5829  1.6897  1.6695
  101SAPE  C31610286   1.624   1.660   4.445 -0.0178  0.4424 -0.0367
  101SAPE  H16X10287   1.591   1.559   4.412 -1.6634  0.4641  1.5142
  101SAPE  H16Y10288   1.695   1.694   4.366  1.9766 -3.6864 -0.1489
  101SAPE  C31710289   1.499   1.753   4.452  0.4960  0.2479  0.2385
  101SAPE  H17X10290   1.525   1.861   4.457 -1.1165  0.5886  1.8043
  101SAPE  H17Y10291   1.452   1.729   4.550  1.1766  0.9731  0.7554
  101SAPE  C31810292   1.404   1.750   4.335 -0.3984  0.2716 -0.0420
  101SAPE  H18X10293   1.339   1.661   4.345 -1.6666  1.1005 -0.7052
  101SAPE  H18Y10294   1.456   1.768   4.238  1.1310 -0.8398  0.5589
  101SAPE  H18Z10295   1.342   1.841   4.349  1.7159  1.9972 -1.4681
  102SAPE     N10296   6.769   1.675   6.210 -0.9067 -0.1502 -0.4450
  102SAPE   HN110297   6.754   1.627   6.302  0.5736  0.6906  0.2560
  102SAPE   HN210298   6.845   1.746   6.215 -0.8159 -0.1380 -1.9255
  102SAPE   HN310299   6.677   1.718   6.191 -0.5143  1.8855  1.9503
  102SAPE   C1210300   6.799   1.582   6.104  0.0615 -0.0832 -0.3571
  102SAPE  H12A10301   6.822   1.643   6.015  2.5763  1.4582  1.2642
  102SAPE  H12B10302   6.708   1.522   6.082 -0.6103  0.5173  0.7058
  102SAPE   C1110303   6.915   1.496   6.138 -0.0335 -0.3079 -0.8907
  102SAPE  H11A10304   6.995   1.570   6.161 -0.2780 -1.1021  2.7777
  102SAPE  H11B10305   6.942   1.425   6.056  1.7687  0.9378 -1.4022
  102SAPE     P10306   7.001   1.351   6.334 -0.0995  0.0130 -0.2943
  102SAPE   O1310307   7.105   1.454   6.364 -0.6175  0.0947 -0.0855
  102SAPE   O1410308   6.940   1.283   6.447 -0.0322  0.1319  0.5925
  102SAPE   O1210309   6.886   1.425   6.258 -0.1127 -0.5329  0.1031
  102SAPE   O1110310   7.058   1.244   6.232  0.1627 -0.1985  0.3941
  102SAPE    C110311   7.026   1.110   6.205 -0.2266 -0.1650 -0.7117
  102SAPE    HA10312   6.946   1.067   6.269 -0.9018  2.4154  0.2265
  102SAPE    HB10313   6.985   1.117   6.102  2.1470  2.4596 -1.5351
  102SAPE    C210314   7.159   1.026   6.219 -0.0019  0.2329 -0.6470
  102SAPE    HS10315   7.212   1.065   6.308 -1.6497 -2.0736  1.3950
  102SAPE   O2110316   7.236   1.065   6.101 -0.0461  0.6212 -0.4794
  102SAPE   C2110317   7.358   1.035   6.095  1.0562  0.3266  0.0956
  102SAPE   O2210318   7.420   0.962   6.173  0.2687 -0.2105  0.4466
  102SAPE   C2210319   7.419   1.090   5.967 -0.3136  0.2485 -0.2951
  102SAPE   H2R10320   7.375   1.028   5.887 -0.7635  1.0022 -0.6367
  102SAPE   H2S10321   7.381   1.194   5.960 -0.4592  0.1890 -0.3822
  102SAPE    C310322   7.129   0.872   6.227  0.2519 -0.2075  0.8171
  102SAPE    HX10323   7.092   0.868   6.332 -0.4491 -0.3020  0.5731
  102SAPE    HY10324   7.214   0.800   6.229 -0.8248 -1.5244  0.2918
  102SAPE   O3110325   7.028   0.829   6.129 -0.1241 -0.4167  0.1963
  102SAPE   C3110326   6.979   0.708   6.144  0.4741 -0.4317  0.2374
  102SAPE   O3210327   7.002   0.625   6.231 -0.3555 -0.3630 -0.2804
  102SAPE   C3210328   6.888   0.687   6.018  0.4871  0.2859 -0.1044
  102SAPE   H2X10329   6.926   0.601   5.959  1.4159  0.7911 -0.2412
  102SAPE   H2Y10330   6.894   0.777   5.953  1.3679  0.6066  0.4146
  102SAPE   C2310331   7.576   1.090   5.970  0.4144  0.5277 -0.1896
  102SAPE   H3R10332   7.616   0.986   5.970 -1.7684 -0.3508 -2.6222
  102SAPE   H3S10333   7.600   1.132   6.070 -0.8269 -1.2287  0.8554
  102SAPE   C2410334   7.644   1.188   5.873 -0.3900 -0.4142 -0.8146
  102SAPE   H4R10335   7.748   1.216   5.899 -0.6372 -1.3898  1.3872
  102SAPE   H4S10336   7.591   1.284   5.888  1.0405  0.0297  1.8092
  102SAPE   C2510337   7.634   1.127   5.735  0.1859 -0.1175 -0.0921
  102SAPE   H5R10338   7.533   1.115   5.693 -0.2118 -1.9299  1.3588
  102SAPE   C2610339   7.722   1.084   5.641 -0.1949 -0.2821 -0.8583
  102SAPE   H6R10340   7.686   1.035   5.550 -0.5166 -3.9718  1.1243
  102SAPE   C2710341   7.871   1.089   5.654  0.2766  0.1754 -0.1416
  102SAPE   H7R10342   7.906   1.144   5.744  1.9488  0.9626 -1.2452
  102SAPE   H7S10343   7.916   1.133   5.562  0.3689 -2.4810 -1.4151
  102SAPE   C2810344   7.923   0.946   5.664  0.4989 -0.0648  0.2277
  102SAPE   H8R10345   7.905   0.911   5.767 -1.8371  0.7992  0.1457
  102SAPE   C2910346   7.988   0.880   5.571 -0.0066  0.0880  0.1506
  102SAPE   H9R10347   8.017   0.777   5.596  1.5454  0.4565 -0.0731
  102SAPE  C21010348   8.029   0.925   5.434 -0.1333 -0.0506 -0.5717
  102SAPE  H10R10349   8.123   0.985   5.436 -0.6688  0.7649  2.0764
  102SAPE  H10S10350   7.953   1.001   5.405  1.1217  1.1562 -0.7692
  102SAPE  C21110351   8.034   0.810   5.335  0.7742  0.0549 -0.3457
  102SAPE  H11R10352   7.993   0.720   5.383 -0.4985  0.3839 -0.8039
  102SAPE  C21210353   8.070   0.817   5.209 -0.3790  0.1007 -0.3227
  102SAPE  H12R10354   8.079   0.722   5.154  1.0162  0.2026 -0.2909
  102SAPE  C21310355   8.118   0.944   5.137  0.4997 -0.0340 -0.5087
  102SAPE  H13R10356   8.196   0.921   5.062  0.2365  1.0029 -1.1144
  102SAPE  H13S10357   8.168   1.011   5.210  3.1665 -1.3177 -1.1031
  102SAPE  C21410358   8.002   1.007   5.067 -0.6942 -0.0301  0.0594
  102SAPE  H14R10359   7.923   1.022   5.142  0.5424  1.6560  1.0909
  102SAPE  C21510360   7.997   1.050   4.939 -0.3648  0.4583  0.0959
  102SAPE  H15R10361   7.899   1.070   4.892  0.0853 -3.5603 -2.7931
  102SAPE  C21610362   8.112   1.039   4.847  0.0602  0.2410  0.6153
  102SAPE  H16R10363   8.123   0.930   4.827  1.3780  0.2083  1.4413
  102SAPE  H16S10364   8.206   1.078   4.890  0.4311 -1.8229  1.7459
  102SAPE  C21710365   8.093   1.120   4.715  0.1844  0.4542  0.9483
  102SAPE  H17R10366   8.193   1.143   4.673  0.4499 -1.8685  0.2625
  102SAPE  H17S10367   8.036   1.213   4.735 -0.9883 -0.0247 -0.0880
  102SAPE  C21810368   8.022   1.022   4.612  0.1439  0.2443 -0.1616
  102SAPE  H18R10369   7.918   1.009   4.651 -0.4967  1.1579 -1.5381
  102SAPE  H18S10370   8.075   0.925   4.617 -0.4968 -0.1344 -0.6768
  102SAPE  C21910371   8.023   1.070   4.464  0.3579 -0.1032 -0.1989
  102SAPE  H19R10372   8.129   1.097   4.446 -0.0141  1.6825  0.2104
  102SAPE  H19S10373   7.971   1.168   4.456 -0.9779 -0.8683 -0.9981
  102SAPE  C22010374   7.970   0.968   4.362 -0.0723  0.1527 -0.9652
  102SAPE  H20R10375   7.963   1.001   4.256 -1.8309  1.0699 -0.5906
  102SAPE  H20S10376   7.870   0.931   4.392 -0.3054  1.7535  0.3414
  102SAPE  H20T10377   8.026   0.873   4.369 -1.7062 -0.9628 -2.7778
  102SAPE   C3310378   6.742   0.660   6.048  0.3909  0.3879  0.4057
  102SAPE   H3X10379   6.731   0.565   6.104 -0.4056 -1.2241 -2.3963
  102SAPE   H3Y10380   6.695   0.662   5.947  1.1368  2.0599  0.0792
  102SAPE   C3410381   6.678   0.777   6.131  0.3359 -0.0679  0.0549
  102SAPE   H4X10382   6.715   0.776   6.235 -0.0529 -0.9876  0.1965
  102SAPE   H4Y10383   6.570   0.748   6.128  0.3851 -0.2969  0.4361
  102SAPE   C3510384   6.699   0.923   6.077  0.4806  0.0501  0.7244
  102SAPE   H5X10385   6.809   0.939   6.073  0.4903 -0.1371  0.2298
  102SAPE   H5Y10386   6.656   0.986   6.158 -0.3123 -1.0194  1.1314
  102SAPE   C3610387   6.636   0.947   5.937 -0.0825  0.6112 -0.6744
  102SAPE   H6X10388   6.527   0.929   5.934  0.2654 -1.8683 -0.3419
  102SAPE   H6Y10389   6.670   0.860   5.876  0.3966  0.2976  0.0265
  102SAPE   C3710390   6.684   1.070   5.859  0.2391  0.3474 -0.4018
  102SAPE   H7X10391   6.672   1.152   5.934  0.5029 -0.4018  0.4645
  102SAPE   H7Y10392   6.624   1.099   5.771 -1.7637 -0.1320  0.7767
  102SAPE   C3810393   6.833   1.066   5.824  0.5858  0.0411  0.5960
  102SAPE   H8X10394   6.862   1.000   5.739  1.6303  1.1196  0.0832
  102SAPE   H8Y10395   6.892   1.023   5.908  0.2764  0.1962  0.8899
  102SAPE   C3910396   6.894   1.209   5.804 -0.5129  0.1011 -0.5409
  102SAPE   H9X10397   6.874   1.267   5.896  3.2038  1.2946 -0.3849
  102SAPE   H9Y10398   6.845   1.262   5.720 -1.6598  0.3888  0.3051
  102SAPE  C31010399   7.051   1.214   5.789 -0.1294 -0.0552 -0.8419
  102SAPE  H10X10400   7.086   1.141   5.865  1.4604 -0.5284 -1.9959
  102SAPE  H10Y10401   7.097   1.312   5.810  0.8034 -1.3200  3.3873
  102SAPE  C31110402   7.087   1.170   5.649 -0.1280 -0.3299 -0.3503
  102SAPE  H11X10403   7.053   1.238   5.568 -2.3349 -1.7545 -0.6648
  102SAPE  H11Y10404   7.031   1.077   5.625  0.1342 -0.2448 -1.3307
  102SAPE  C31210405   7.230   1.118   5.629 -0.4005 -0.3915  0.5049
  102SAPE  H12X10406   7.275   1.043   5.698  0.8580 -1.7696 -1.7654
  102SAPE  H12Y10407   7.297   1.206   5.638  0.6301 -0.8984 -1.8879
  102SAPE  C31310408   7.253   1.045   5.496  0.6648 -0.0498  1.3717
  102SAPE  H13X10409   7.213   1.108   5.414 -0.4246  0.6114  2.4011
  102SAPE  H13Y10410   7.199   0.948   5.498 -2.4112  1.5740  0.1183
  102SAPE  C31410411   7.407   1.037   5.461  0.4758 -0.1964 -0.3376
  102SAPE  H14X10412   7.444   0.959   5.531 -2.0955  1.5422  3.1124
  102SAPE  H14Y10413   7.447   1.140   5.475  1.5082 -0.7068  0.4567
  102SAPE  C31510414   7.431   0.992   5.315  0.6349  0.1151 -0.0822
  102SAPE  H15X10415   7.360   1.048   5.251  1.5173  2.2464  0.7541
  102SAPE  H15Y10416   7.388   0.890   5.309 -0.0028  0.4463 -1.3052
  102SAPE  C31610417   7.578   1.004   5.273 -0.6464 -0.2848  0.5664
  102SAPE  H16X10418   7.630   0.925   5.331 -0.1240  0.4135  1.0660
  102SAPE  H16Y10419   7.624   1.102   5.300 -0.0817 -0.2054 -0.6792
  102SAPE  C31710420   7.605   0.984   5.119 -0.0846 -0.1632 -0.3058
  102SAPE  H17X10421   7.715   0.971   5.105  0.2508  1.6434  0.5819
  102SAPE  H17Y10422   7.578   1.076   5.063  1.3760  1.1140  1.0436
  102SAPE  C31810423   7.528   0.867   5.048  0.1734  0.2208  0.4742
  102SAPE  H18X10424   7.419   0.888   5.045 -0.4679 -3.0411 -0.9046
  102SAPE  H18Y10425   7.548   0.774   5.105 -0.8256 -0.7165 -0.6764
  102SAPE  H18Z10426   7.547   0.854   4.939  0.8726 -0.5626  0.6904
  103SAPE     N10427   3.153   4.278   2.245  0.2823  0.4878 -0.0714
  103SAPE   HN110428   3.247   4.258   2.207  0.8765  1.5673  0.8347
  103SAPE   HN210429   3.165   4.357   2.310  1.1359 -0.3941  0.8552
  103SAPE   HN310430   3.130   4.188   2.293  0.5644 -0.1084 -1.0276
  103SAPE   C1210431   3.055   4.306   2.142 -0.1857 -0.3183 -0.0910
  103SAPE  H12A10432   3.044   4.214   2.081  0.8369  0.0462 -0.8477
  103SAPE  H12B10433   3.105   4.363   2.061  2.6068 -1.8902  0.4365
  103SAPE   C1110434   2.932   4.358   2.211 -0.3804 -0.6692 -0.2510
  103SAPE  H11A10435   2.858   4.401   2.140  0.3083 -0.5198 -0.8852
  103SAPE  H11B10436   2.962   4.452   2.263  2.3319 -1.8232  0.3186
  103SAPE     P10437   2.751   4.182   2.296  0.0053 -0.4713 -0.3690
  103SAPE   O1310438   2.643   4.269   2.246 -0.4874 -0.2092  0.2696
  103SAPE   O1410439   2.770   4.066   2.209  0.0701 -0.0034  0.1768
  103SAPE   O1210440   2.885   4.261   2.306 -0.0543  0.1707 -0.3675
  103SAPE   O1110441   2.719   4.130   2.437 -0.1120  0.0309 -0.4699
  103SAPE    C110442   2.798   4.155   2.556 -0.5677 -0.1687 -0.4192
  103SAPE    HA10443   2.907   4.140   2.540 -0.0298  3.9673 -1.0788
  103SAPE    HB10444   2.780   4.253   2.605  0.6747  0.3977 -1.0668
  103SAPE    C210445   2.768   4.048   2.668 -0.4636  0.5244  1.0421
  103SAPE    HS10446   2.775   3.947   2.623  2.5391  1.2584 -0.3017
  103SAPE   O2110447   2.643   4.072   2.726 -0.3828  0.5549 -0.2546
  103SAPE   C2110448   2.585   3.964   2.772  0.4835 -0.4777  1.1493
  103SAPE   O2210449   2.626   3.853   2.758  0.4945 -0.0778 -0.2151
  103SAPE   C2210450   2.442   3.988   2.822 -0.0293 -0.1668  0.1693
  103SAPE   H2R10451   2.402   4.088   2.797  1.5155 -0.1621 -2.4939
  103SAPE   H2S10452   2.377   3.914   2.770  2.5312 -1.7309 -0.9516
  103SAPE    C310453   2.882   4.047   2.770 -0.3005  0.5862 -0.1918
  103SAPE    HX10454   2.971   4.018   2.711  0.8948  2.9368  0.4177
  103SAPE    HY10455   2.853   3.968   2.843 -1.2644 -0.0918 -1.2779
  103SAPE   O3110456   2.915   4.176   2.831  0.1803 -0.1970 -0.0124
  103SAPE   C3110457   2.837   4.205   2.944 -0.3934  0.5002  0.4840
  103SAPE   O3210458   2.760   4.127   2.992  0.4253  0.0492 -0.1178
  103SAPE   C3210459   2.869   4.352   2.994 -0.6879 -0.8275 -0.8350
  103SAPE   H2X10460   2.786   4.409   2.946 -1.4714 -1.1653  0.1049
  103SAPE   H2Y10461   2.965   4.377   2.944  1.0957 -0.8551  2.4332
  103SAPE   C2310462   2.420   3.954   2.970  0.0783  0.1657 -0.2917
  103SAPE   H3R10463   2.436   4.045   3.031 -0.2677  0.8047 -1.1301
  103SAPE   H3S10464   2.472   3.863   3.007  0.3997  0.4948  0.0736
  103SAPE   C2410465   2.272   3.919   3.000  0.3513 -0.3149  0.3054
  103SAPE   H4R10466   2.241   3.825   2.950 -1.1122 -0.2880  1.1244
  103SAPE   H4S10467   2.200   3.997   2.967  0.8516  1.3971  3.0765
  103SAPE   C2510468   2.251   3.883   3.140 -0.0133  0.3425 -0.2100
  103SAPE   H5R10469   2.259   3.775   3.161 -2.0906  0.3751  0.8446
  103SAPE   C2610470   2.205   3.975   3.240 -0.4359 -0.1784 -0.5797
  103SAPE   H6R10471   2.204   3.946   3.346 -0.2285  0.1858 -0.4755
  103SAPE   C2710472   2.169   4.119   3.229  0.1470 -0.3831 -0.2092
  103SAPE   H7R10473   2.059   4.133   3.227  0.1729 -0.3773 -3.0715
  103SAPE   H7S10474   2.206   4.161   3.133 -2.8593  0.7515 -0.9230
  103SAPE   C2810475   2.234   4.199   3.336 -0.2366 -0.2872 -1.0981
  103SAPE   H8R10476   2.338   4.224   3.309  0.9739 -2.4755  1.2831
  103SAPE   C2910477   2.184   4.239   3.454 -0.2096 -0.1693  0.5829
  103SAPE   H9R10478   2.247   4.299   3.522 -0.0984 -0.7070  0.9616
  103SAPE  C21010479   2.042   4.211   3.505  0.3061 -0.6453 -0.4119
  103SAPE  H10R10480   2.065   4.134   3.582  1.7833 -0.1301 -0.3200
  103SAPE  H10S10481   1.974   4.169   3.427  0.7451 -1.6158 -0.2830
  103SAPE  C21110482   1.976   4.332   3.570  0.0254  0.3832 -0.4389
  103SAPE  H11R10483   1.949   4.424   3.517  0.0978  0.1182 -0.9405
  103SAPE  C21210484   1.928   4.328   3.696 -0.0157  0.0411 -0.3511
  103SAPE  H12R10485   1.877   4.417   3.734 -2.9116 -1.2139 -1.1029
  103SAPE  C21310486   1.928   4.210   3.799 -0.3982  0.2756 -0.0181
  103SAPE  H13R10487   1.929   4.257   3.899 -0.6424  1.0958 -0.3952
  103SAPE  H13S10488   2.025   4.158   3.789 -0.1902  0.2851  1.8471
  103SAPE  C21410489   1.815   4.111   3.779 -0.0741 -0.2469 -0.1232
  103SAPE  H14R10490   1.754   4.116   3.688 -0.8271  2.6356  0.5193
  103SAPE  C21510491   1.790   4.002   3.862 -0.4008  0.4149 -0.3663
  103SAPE  H15R10492   1.719   3.923   3.831 -2.7180  1.6050  1.7298
  103SAPE  C21610493   1.860   3.967   3.991 -0.2552  0.0573  0.2634
  103SAPE  H16R10494   1.922   4.047   4.037 -2.9391  1.4829  1.4595
  103SAPE  H16S10495   1.918   3.872   3.983 -0.5375 -0.2067  1.3376
  103SAPE  C21710496   1.759   3.933   4.104 -0.4518  0.5924 -0.3264
  103SAPE  H17R10497   1.820   3.911   4.194 -1.5718  3.0861  1.1191
  103SAPE  H17S10498   1.708   3.839   4.073  1.5599  0.2078 -2.6036
  103SAPE  C21810499   1.666   4.056   4.136  0.1981  0.1083  0.1957
  103SAPE  H18R10500   1.580   4.047   4.066  0.4980 -0.0006 -0.1608
  103SAPE  H18S10501   1.705   4.159   4.119 -0.1064  0.0150 -1.1330
  103SAPE  C21910502   1.628   4.050   4.283 -0.4018 -0.6829  0.2190
  103SAPE  H19R10503   1.575   4.145   4.305 -2.6115 -1.5173 -1.3254
  103SAPE  H19S10504   1.722   4.038   4.341 -1.1776 -0.4005  1.5470
  103SAPE  C22010505   1.518   3.940   4.304 -0.3489 -0.3886  0.7029
  103SAPE  H20R10506   1.421   3.991   4.325 -0.7346 -1.1529  0.7873
  103SAPE  H20S10507   1.543   3.869   4.385  0.5901 -1.4324 -0.4965
  103SAPE  H20T10508   1.504   3.871   4.218  2.5945  0.9417 -0.9246
  103SAPE   C3310509   2.886   4.361   3.151 -0.3352 -0.2843 -0.9519
  103SAPE   H3X10510   2.798   4.316   3.202  0.0023 -0.4576 -0.5166
  103SAPE   H3Y10511   2.880   4.470   3.172  0.7480 -0.1613 -1.2671
  103SAPE   C3410512   3.021   4.313   3.207 -0.4268  0.8498  0.0803
  103SAPE   H4X10513   3.101   4.359   3.145  0.9778 -0.0911  1.1880
  103SAPE   H4Y10514   3.020   4.203   3.191  3.1101  0.9084 -0.9425
  103SAPE   C3510515   3.038   4.351   3.357 -0.2887  1.1187 -0.4376
  103SAPE   H5X10516   2.941   4.358   3.410 -0.9737  0.5822 -1.6011
  103SAPE   H5Y10517   3.083   4.452   3.363  1.3950  0.4865 -1.9378
  103SAPE   C3610518   3.119   4.254   3.445  0.4362  0.9060  0.5165
  103SAPE   H6X10519   3.216   4.250   3.389 -1.7634  1.1077 -3.5124
  103SAPE   H6Y10520   3.074   4.154   3.432 -1.1686  1.7395 -0.5283
  103SAPE   C3710521   3.136   4.281   3.593  0.6459  0.7667 -0.5316
  103SAPE   H7X10522   3.037   4.307   3.636 -1.0346 -0.3024 -3.6322
  103SAPE   H7Y10523   3.194   4.373   3.616  0.4386  1.1223 -1.3913
  103SAPE   C3810524   3.213   4.162   3.663 -0.2533  0.5153 -0.0873
  103SAPE   H8X10525   3.308   4.157   3.606  1.4433  1.8921  2.5242
  103SAPE   H8Y10526   3.164   4.062   3.658 -0.3957  0.5864 -0.1499
  103SAPE   C3910527   3.249   4.181   3.815  0.3700 -0.0676 -0.4717
  103SAPE   H9X10528   3.305   4.092   3.850 -1.1683 -0.2907  1.4610
  103SAPE   H9Y10529   3.151   4.189   3.865  1.1672 -0.2347  1.1603
  103SAPE  C31010530   3.328   4.313   3.853  0.4799  0.1032  0.6589
  103SAPE  H10X10531   3.269   4.405   3.832  1.5348  1.0058  1.5361
  103SAPE  H10Y10532   3.425   4.316   3.798 -0.0596  1.5563 -0.2422
  103SAPE  C31110533   3.361   4.308   4.000 -1.5361  0.4369  0.4992
  103SAPE  H11X10534   3.431   4.393   4.011 -0.3940 -0.3710 -0.4442
  103SAPE  H11Y10535   3.422   4.218   4.025 -0.5702  1.4015  1.6808
  103SAPE  C31210536   3.237   4.319   4.100 -0.0930  0.0161  0.2182
  103SAPE  H12X10537   3.285   4.327   4.199  1.3564 -0.9457 -0.3920
  103SAPE  H12Y10538   3.164   4.237   4.083  0.8479 -0.8827  0.4544
  103SAPE  C31310539   3.159   4.446   4.073  0.0468 -0.1578  0.8638
  103SAPE  H13X10540   3.087   4.433   3.989  0.5110 -0.4829  0.5126
  103SAPE  H13Y10541   3.231   4.527   4.046 -1.7589  1.2530  0.1313
  103SAPE  C31410542   3.076   4.481   4.203  0.4846  0.4963 -0.3643
  103SAPE  H14X10543   3.030   4.583   4.206  1.5232  0.9558  0.5994
  103SAPE  H14Y10544   3.149   4.476   4.287 -0.9511  0.7334  0.9142
  103SAPE  C31510545   2.964   4.379   4.250 -0.6007 -0.0600 -0.0586
  103SAPE  H15X10546   2.989   4.272   4.264 -2.0553 -0.4008  0.0039
  103SAPE  H15Y10547   2.881   4.388   4.177  1.1076  2.0988 -1.7925
  103SAPE  C31610548   2.918   4.421   4.391 -0.4939 -0.7530  0.6803
  103SAPE  H16X10549   2.898   4.531   4.386  0.2926 -0.5724  1.3796
  103SAPE  H16Y10550   2.999   4.399   4.463  0.6973  0.1017 -0.3693
  103SAPE  C31710551   2.797   4.342   4.435 -0.0216 -0.0138  1.1323
  103SAPE  H17X10552   2.828   4.235   4.437  0.9058  0.1920 -0.7004
  103SAPE  H17Y10553   2.716   4.365   4.363 -0.8475  0.6236  2.2588
  103SAPE  C31810554   2.741   4.369   4.576  0.2907 -0.3377 -0.4267
  103SAPE  H18X10555   2.696   4.471   4.572  0.9652 -0.0553 -0.8228
  103SAPE  H18Y10556   2.824   4.376   4.650  0.7908 -0.8217 -0.9425
  103SAPE  H18Z10557   2.663   4.294   4.601  0.7422  0.2944  3.1900
  104SAPE     N10558   1.928   2.184   2.367  0.6844 -0.4090 -0.2553
  104SAPE   HN110559   1.924   2.259   2.439  1.5261  0.3595 -1.0001
  104SAPE   HN210560   1.839   2.134   2.348  1.8420 -2.3029 -0.8053
  104SAPE   HN310561   1.997   2.108   2.381  1.0483 -0.6520 -3.0220
  104SAPE   C1210562   1.967   2.240   2.234 -1.0147 -0.1039 -0.0185
  104SAPE  H12A10563   1.899   2.324   2.209 -1.6061 -1.1920 -2.2088
  104SAPE  H12B10564   1.961   2.161   2.156 -0.1493  0.5521 -0.7693
  104SAPE   C1110565   2.112   2.289   2.224  0.9654 -0.1341  0.1295
  104SAPE  H11A10566   2.125   2.317   2.117 -1.9612  2.4508  0.3885
  104SAPE  H11B10567   2.171   2.195   2.236 -0.6021 -1.4900 -2.3899
  104SAPE     P10568   2.289   2.449   2.295 -0.1229 -0.3543 -0.1129
  104SAPE   O1310569   2.387   2.340   2.298 -0.1394  0.1031  0.2273
  104SAPE   O1410570   2.294   2.538   2.176 -0.2925  0.0576 -0.5260
  104SAPE   O1210571   2.149   2.390   2.316 -0.0970 -0.3189 -0.4205
  104SAPE   O1110572   2.300   2.538   2.417 -0.1705 -0.1697  0.0803
  104SAPE    C110573   2.423   2.602   2.445 -0.6454 -0.3438 -0.2407
  104SAPE    HA10574   2.444   2.614   2.553 -2.1226  2.2577 -0.1703
  104SAPE    HB10575   2.506   2.567   2.381  0.7799 -1.5651  2.2489
  104SAPE    C210576   2.421   2.753   2.415 -0.1797 -0.1714  0.1544
  104SAPE    HS10577   2.402   2.761   2.305 -0.8535  0.0071  0.2806
  104SAPE   O2110578   2.549   2.818   2.456  0.2045  0.1586 -0.2547
  104SAPE   C2110579   2.556   2.938   2.391  0.0625  0.1301 -0.1053
  104SAPE   O2210580   2.479   2.978   2.307  0.3243 -0.3125 -0.1176
  104SAPE   C2210581   2.669   3.019   2.447 -0.1120  0.0062  0.5759
  104SAPE   H2R10582   2.716   2.976   2.537 -0.2819  1.2529  1.2736
  104SAPE   H2S10583   2.746   3.024   2.367 -0.5762  0.6896  0.1679
  104SAPE    C310584   2.302   2.831   2.485 -0.0469  0.5038  0.1046
  104SAPE    HX10585   2.203   2.795   2.450 -0.1555 -0.2718  1.1726
  104SAPE    HY10586   2.303   2.938   2.457  0.1080  0.9210  1.6496
  104SAPE   O3110587   2.315   2.837   2.627 -0.0135  0.6157 -0.8487
  104SAPE   C3110588   2.226   2.761   2.695 -0.0469 -0.0190  0.8004
  104SAPE   O3210589   2.149   2.678   2.651 -0.1424  0.1714 -0.1930
  104SAPE   C3210590   2.238   2.772   2.846  0.2420 -0.2069 -0.0977
  104SAPE   H2X10591   2.149   2.820   2.891 -0.4780 -1.5703 -0.0315
  104SAPE   H2Y10592   2.327   2.838   2.850  0.0270  0.1355 -0.7618
  104SAPE   C2310593   2.642   3.173   2.467 -0.7663 -0.0826  0.2999
  104SAPE   H3R10594   2.572   3.213   2.390  1.0545 -0.5822 -1.6699
  104SAPE   H3S10595   2.736   3.227   2.447 -1.2978  1.1538  1.1037
  104SAPE   C2410596   2.585   3.218   2.611  0.2078  0.0480 -0.1033
  104SAPE   H4R10597   2.601   3.328   2.620 -0.1812  0.3175 -2.3865
  104SAPE   H4S10598   2.666   3.173   2.673  0.3436  1.7725  1.0253
  104SAPE   C2510599   2.454   3.155   2.650  0.1414 -0.7892  0.9138
  104SAPE   H5R10600   2.377   3.155   2.572 -0.6583 -1.3568  1.6948
  104SAPE   C2610601   2.428   3.107   2.770 -0.0488 -0.1623  0.4876
  104SAPE   H6R10602   2.328   3.063   2.790  0.7174 -1.2493  2.0462
  104SAPE   C2710603   2.524   3.105   2.884  0.1493  0.7990  0.2060
  104SAPE   H7R10604   2.457   3.126   2.970 -0.2995 -0.3335  0.1482
  104SAPE   H7S10605   2.596   3.190   2.888  2.6541 -1.1996 -0.8024
  104SAPE   C2810606   2.597   2.972   2.901 -0.0974  0.4316  0.1126
  104SAPE   H8R10607   2.596   2.901   2.817  2.7194 -0.2254  0.5994
  104SAPE   C2910608   2.664   2.924   3.008  0.3777  0.5386 -0.1688
  104SAPE   H9R10609   2.688   2.818   2.990 -1.2811  0.2963 -1.0007
  104SAPE  C21010610   2.689   2.993   3.142  0.3268 -0.2267 -0.4707
  104SAPE  H10R10611   2.691   3.103   3.127  1.3160  0.0578  1.5803
  104SAPE  H10S10612   2.792   2.972   3.180  0.2581  1.4644  0.7068
  104SAPE  C21110613   2.607   2.945   3.257  0.0052  0.1512  0.1196
  104SAPE  H11R10614   2.605   2.835   3.263  0.9725  0.0452 -1.2699
  104SAPE  C21210615   2.535   3.020   3.343 -0.4255  0.3010  0.7475
  104SAPE  H12R10616   2.473   2.963   3.414 -1.2577 -1.0270 -1.0013
  104SAPE  C21310617   2.519   3.165   3.348  0.3264  0.0747 -0.7997
  104SAPE  H13R10618   2.522   3.221   3.252 -2.2547 -0.8024 -1.4483
  104SAPE  H13S10619   2.597   3.203   3.416  0.8313 -0.1674 -1.2351
  104SAPE  C21410620   2.387   3.210   3.403 -0.5348  0.4607 -0.1174
  104SAPE  H14R10621   2.319   3.228   3.318  1.5358 -1.1840 -2.1825
  104SAPE  C21510622   2.346   3.221   3.529  0.4964  0.1899 -0.9886
  104SAPE  H15R10623   2.237   3.234   3.534  0.6063  1.0723 -0.7172
  104SAPE  C21610624   2.415   3.196   3.665 -0.9145 -0.4030  0.0426
  104SAPE  H16R10625   2.390   3.279   3.735 -0.8890 -0.0040 -0.4216
  104SAPE  H16S10626   2.525   3.199   3.648 -0.8906 -2.2549 -0.1424
  104SAPE  C21710627   2.377   3.055   3.725  0.0987 -0.5478  0.4422
  104SAPE  H17R10628   2.395   2.981   3.645 -0.4264  0.4107 -0.5742
  104SAPE  H17S10629   2.269   3.056   3.751 -0.1939 -0.2108 -0.7925
  104SAPE  C21810630   2.465   3.018   3.838  0.3284  0.0401  0.1546
  104SAPE  H18R10631   2.564   2.992   3.795  0.0057 -1.2120  0.1675
  104SAPE  H18S10632   2.436   2.926   3.891 -1.7810  0.3758 -0.3900
  104SAPE  C21910633   2.470   3.130   3.948  0.1505  0.3214  0.3289
  104SAPE  H19R10634   2.512   3.221   3.902  1.0565 -0.2564 -0.0012
  104SAPE  H19S10635   2.541   3.096   4.026  0.8817  0.0493 -0.4527
  104SAPE  C22010636   2.341   3.147   4.025  0.5853 -0.1230  0.3400
  104SAPE  H20R10637   2.270   3.207   3.964  0.2384  1.1061  1.9108
  104SAPE  H20S10638   2.341   3.206   4.119 -0.3616  0.5547 -0.0762
  104SAPE  H20T10639   2.294   3.048   4.045 -1.9338  1.3037  1.7235
  104SAPE   C3310640   2.259   2.640   2.926  0.6032 -0.2509 -0.0512
  104SAPE   H3X10641   2.336   2.583   2.870  0.2607 -1.1358  0.3716
  104SAPE   H3Y10642   2.166   2.580   2.920 -0.7030  1.8194 -1.3231
  104SAPE   C3410643   2.309   2.657   3.070  0.5325 -0.9608 -0.4338
  104SAPE   H4X10644   2.240   2.724   3.125 -0.6149 -1.7956 -0.8151
  104SAPE   H4Y10645   2.413   2.693   3.057 -0.8764  4.2369  1.7055
  104SAPE   C3510646   2.335   2.524   3.141  0.8779  0.0733  0.7889
  104SAPE   H5X10647   2.394   2.457   3.074 -0.5199 -0.2136 -0.1753
  104SAPE   H5Y10648   2.236   2.479   3.164  0.8233  0.3803  1.1578
  104SAPE   C3610649   2.405   2.537   3.274 -0.3725  0.0180 -0.0020
  104SAPE   H6X10650   2.492   2.605   3.269  1.4691 -2.3862 -2.0332
  104SAPE   H6Y10651   2.456   2.440   3.295  0.6634  0.2802 -1.2843
  104SAPE   C3710652   2.320   2.583   3.389 -0.3946 -0.5127  0.3687
  104SAPE   H7X10653   2.239   2.509   3.406  0.7102 -1.8082  0.1138
  104SAPE   H7Y10654   2.271   2.680   3.366 -1.9321 -0.9064  1.9053
  104SAPE   C3810655   2.395   2.588   3.518  0.1484 -0.3454  0.2443
  104SAPE   H8X10656   2.458   2.497   3.528  1.9791  0.4669 -3.1482
  104SAPE   H8Y10657   2.337   2.586   3.612 -1.0394  0.9763 -0.4294
  104SAPE   C3910658   2.486   2.714   3.513  0.1521 -0.1906 -0.3487
  104SAPE   H9X10659   2.414   2.797   3.495 -0.6594 -0.3524  1.9338
  104SAPE   H9Y10660   2.556   2.698   3.429  0.7625 -1.1558  0.3238
  104SAPE  C31010661   2.565   2.743   3.640 -0.0526 -0.7818 -0.6692
  104SAPE  H10X10662   2.505   2.748   3.734  1.0780 -2.4409  0.1689
  104SAPE  H10Y10663   2.616   2.839   3.624 -0.4014 -0.4499  0.1450
  104SAPE  C31110664   2.676   2.638   3.671 -0.3127 -0.3402 -0.8107
  104SAPE  H11X10665   2.753   2.635   3.591  0.0474  0.2415 -0.4866
  104SAPE  H11Y10666   2.633   2.536   3.682 -0.6917 -0.0937 -0.0065
  104SAPE  C31210667   2.753   2.672   3.796  0.0703  0.6381 -0.4066
  104SAPE  H12X10668   2.666   2.679   3.866  0.2616 -3.5737  0.3871
  104SAPE  H12Y10669   2.802   2.771   3.801 -0.3925  0.8990 -0.8691
  104SAPE  C31310670   2.849   2.564   3.845  0.6468  0.0990 -0.5611
  104SAPE  H13X10671   2.926   2.561   3.765 -1.1512 -1.1090 -2.3108
  104SAPE  H13Y10672   2.796   2.467   3.858 -0.1615  0.5591 -0.3520
  104SAPE  C31410673   2.922   2.612   3.970 -0.1481 -0.0447 -0.6557
  104SAPE  H14X10674   2.971   2.709   3.948  0.1374 -0.2959 -1.1287
  104SAPE  H14Y10675   3.004   2.543   3.998 -0.2221 -0.1767 -0.7629
  104SAPE  C31510676   2.832   2.647   4.102 -0.3554 -0.1340  0.1936
  104SAPE  H15X10677   2.776   2.558   4.138 -1.4364  1.3571  2.3190
  104SAPE  H15Y10678   2.755   2.724   4.082  0.0871 -0.2053 -1.9331
  104SAPE  C31610679   2.917   2.702   4.214  0.0451 -0.3063  0.8538
  104SAPE  H16X10680   2.850   2.747   4.291 -1.7896  0.6235 -1.2394
  104SAPE  H16Y10681   2.974   2.791   4.180 -0.0203 -0.7369 -0.3769
  104SAPE  C31710682   3.013   2.610   4.281 -0.2160  0.3105 -0.6874
  104SAPE  H17X10683   3.103   2.597   4.218  1.3089  0.1162  1.4734
  104SAPE  H17Y10684   2.954   2.516   4.294 -0.4440  0.8729  2.7045
  104SAPE  C31810685   3.061   2.657   4.420  1.0228 -0.6318 -0.1473
  104SAPE  H18X10686   3.148   2.602   4.461  0.7441 -1.5805 -0.8015
  104SAPE  H18Y10687   2.975   2.644   4.489  0.4987 -2.0409 -1.0524
  104SAPE  H18Z10688   3.086   2.765   4.413 -0.8105 -0.2424 -0.8585
  105SAPE     N10689   5.686   2.349   2.358 -0.1329 -0.8198 -0.4424
  105SAPE   HN110690   5.587   2.318   2.362  0.4055 -2.4040  1.0753
  105SAPE   HN210691   5.724   2.347   2.261  0.1336 -0.3475 -0.3495
  105SAPE   HN310692   5.743   2.285   2.417 -3.2260 -2.6583  0.7063
  105SAPE   C1210693   5.711   2.486   2.406 -0.5686  0.3069  1.3422
  105SAPE  H12A10694   5.814   2.491   2.445  0.7272 -0.3787 -1.8495
  105SAPE  H12B10695   5.641   2.508   2.489 -3.6727 -0.8940 -0.8558
  105SAPE   C1110696   5.683   2.586   2.287  0.2192  0.1271 -0.7832
  105SAPE  H11A10697   5.740   2.560   2.195  4.2992  1.6609  1.1565
  105SAPE  H11B10698   5.733   2.683   2.312  1.9994 -1.1821  0.9890
  105SAPE     P10699   5.460   2.704   2.324  0.4096 -0.1449 -0.0638
  105SAPE   O1310700   5.542   2.826   2.326  0.3333  0.4481  0.4092
  105SAPE   O1410701   5.334   2.711   2.250  0.2668 -0.0647  0.4879
  105SAPE   O1210702   5.545   2.589   2.261  0.3039 -0.3259  0.0452
  105SAPE   O1110703   5.449   2.669   2.473  0.1287  0.1445 -0.3916
  105SAPE    C110704   5.333   2.592   2.525  0.1978 -1.1327 -0.7886
  105SAPE    HA10705   5.314   2.501   2.464  0.4845 -1.8902  0.2392
  105SAPE    HB10706   5.353   2.544   2.623 -1.9307  0.8876  0.6702
  105SAPE    C210707   5.211   2.688   2.562 -0.0644 -0.0234  0.2752
  105SAPE    HS10708   5.184   2.735   2.465 -2.4887 -0.3862  0.7361
  105SAPE   O2110709   5.242   2.775   2.672  0.1024 -0.5045  0.6827
  105SAPE   C2110710   5.171   2.885   2.683  0.2679 -0.2150  0.5791
  105SAPE   O2210711   5.069   2.912   2.624  0.0019  0.0459 -0.1015
  105SAPE   C2210712   5.251   2.995   2.757  0.7925 -0.0566 -1.1698
  105SAPE   H2R10713   5.340   2.957   2.813 -0.8014  1.7651  2.8322
  105SAPE   H2S10714   5.297   3.056   2.677  2.4658  0.0454 -0.1518
  105SAPE    C310715   5.082   2.610   2.587 -0.0705  0.5121  0.7194
  105SAPE    HX10716   5.062   2.531   2.512  2.0760  0.5334  0.0976
  105SAPE    HY10717   4.993   2.675   2.572 -0.6360  0.3982  3.3461
  105SAPE   O3110718   5.077   2.529   2.704  0.0128  0.1854 -0.3380
  105SAPE   C3110719   4.999   2.572   2.791 -0.3562  0.0252 -0.1851
  105SAPE   O3210720   4.916   2.658   2.774 -0.6270  0.5339 -0.6519
  105SAPE   C3210721   5.031   2.507   2.922  0.2577 -0.3443  1.0694
  105SAPE   H2X10722   5.141   2.495   2.927  0.1811 -2.6428 -1.7101
  105SAPE   H2Y10723   4.972   2.413   2.919 -1.0443  0.4129  2.2148
  105SAPE   C2310724   5.168   3.080   2.850 -0.7599 -0.1654 -0.8388
  105SAPE   H3R10725   5.064   3.097   2.814 -0.9665  0.5255  0.0389
  105SAPE   H3S10726   5.201   3.186   2.855 -1.5843  0.0121  2.3652
  105SAPE   C2410727   5.167   3.025   2.992  0.5242  0.3418 -0.3853
  105SAPE   H4R10728   5.262   2.994   3.041 -0.5666 -0.4231  1.2926
  105SAPE   H4S10729   5.118   2.925   2.992 -0.3997  0.7852  1.4028
  105SAPE   C2510730   5.110   3.118   3.089 -0.1263 -0.2708 -0.4197
  105SAPE   H5R10731   5.160   3.216   3.089 -1.6965  0.5618  0.8709
  105SAPE   C2610732   5.009   3.105   3.173  0.0054  0.6792 -0.4710
  105SAPE   H6R10733   4.978   3.187   3.239  0.9013 -0.1013  0.9478
  105SAPE   C2710734   4.928   2.974   3.188 -0.5774  0.0386 -0.8799
  105SAPE   H7R10735   4.870   2.972   3.282  1.8263 -0.1924  0.6598
  105SAPE   H7S10736   4.994   2.885   3.201  0.8107  1.2736  0.8703
  105SAPE   C2810737   4.833   2.952   3.074  0.4921  0.0929 -0.2389
  105SAPE   H8R10738   4.874   2.976   2.975  0.6673 -0.3144 -0.2660
  105SAPE   C2910739   4.710   2.894   3.080 -0.1059  0.6824  0.7075
  105SAPE   H9R10740   4.662   2.897   2.981  0.9846  2.4965  0.2222
  105SAPE  C21010741   4.633   2.834   3.196  0.5259 -1.2882 -1.0444
  105SAPE  H10R10742   4.706   2.797   3.271  1.0093  0.2935 -0.7118
  105SAPE  H10S10743   4.586   2.743   3.153  0.1471 -1.3259 -0.5403
  105SAPE  C21110744   4.535   2.930   3.259 -0.8470  0.7593 -0.1631
  105SAPE  H11R10745   4.496   3.003   3.186 -1.2677  1.9884  1.2557
  105SAPE  C21210746   4.506   2.932   3.389 -0.5208  0.4957  0.0043
  105SAPE  H12R10747   4.453   3.024   3.420 -0.6907  0.0193  1.1548
  105SAPE  C21310748   4.568   2.840   3.493 -0.4469  0.9532 -0.1868
  105SAPE  H13R10749   4.676   2.862   3.511 -0.0993 -0.1305 -0.9089
  105SAPE  H13S10750   4.562   2.739   3.447 -0.3356 -1.4392  4.7219
  105SAPE  C21410751   4.493   2.853   3.621 -0.2236 -0.2929  0.4099
  105SAPE  H14R10752   4.400   2.796   3.617 -1.5677  1.8907 -0.2388
  105SAPE  C21510753   4.534   2.934   3.725  0.7817 -0.0757 -0.2869
  105SAPE  H15R10754   4.467   2.943   3.812  1.3841  3.0783 -0.0965
  105SAPE  C21610755   4.652   3.023   3.725 -0.0161  0.4159  0.0188
  105SAPE  H16R10756   4.676   3.063   3.624 -1.1182  1.5845  0.2088
  105SAPE  H16S10757   4.735   2.958   3.761 -0.5557 -1.3901 -1.8700
  105SAPE  C21710758   4.641   3.155   3.798 -0.0982  0.7002 -0.7523
  105SAPE  H17R10759   4.544   3.196   3.763  0.2213  1.4832 -0.7167
  105SAPE  H17S10760   4.724   3.221   3.766  0.6493  1.3065  2.3058
  105SAPE  C21810761   4.664   3.161   3.947  0.0634 -0.2323 -0.4048
  105SAPE  H18R10762   4.752   3.109   3.992 -0.8207 -0.3881  1.2006
  105SAPE  H18S10763   4.579   3.113   3.999 -0.0609  1.3600  0.9305
  105SAPE  C21910764   4.662   3.306   4.007 -0.8359  0.2240  0.4443
  105SAPE  H19R10765   4.622   3.366   3.922 -2.6938  0.7623  1.6604
  105SAPE  H19S10766   4.764   3.345   4.028 -0.1016 -1.7805  0.6429
  105SAPE  C22010767   4.574   3.325   4.124 -0.2638 -0.2438  0.0025
  105SAPE  H20R10768   4.467   3.329   4.094 -0.2636 -1.9348 -0.2522
  105SAPE  H20S10769   4.593   3.424   4.171  1.3216  0.4466 -2.0157
  105SAPE  H20T10770   4.596   3.240   4.191  0.2710 -0.0416  0.0878
  105SAPE   C3310771   4.979   2.579   3.048  0.4790 -0.7574 -0.0522
  105SAPE   H3X10772   4.869   2.589   3.033  0.1199 -4.3479 -0.3402
  105SAPE   H3Y10773   5.032   2.673   3.073  1.5642 -1.7547  1.4595
  105SAPE   C3410774   4.987   2.502   3.185  0.8787 -0.3614  0.1492
  105SAPE   H4X10775   5.092   2.503   3.223  0.1325  1.9055  2.2957
  105SAPE   H4Y10776   4.967   2.394   3.169 -1.4046 -0.1616  1.4659
  105SAPE   C3510777   4.894   2.556   3.292 -0.5869  1.4391 -0.4998
  105SAPE   H5X10778   4.786   2.555   3.263 -1.0988 -1.0240  1.2949
  105SAPE   H5Y10779   4.919   2.663   3.305  0.4129  1.2472 -0.8183
  105SAPE   C3610780   4.924   2.490   3.429 -0.3001 -0.6637  0.0309
  105SAPE   H6X10781   4.889   2.385   3.430 -0.9554 -0.4678 -1.0709
  105SAPE   H6Y10782   4.858   2.543   3.500  0.7499  0.7871 -0.0315
  105SAPE   C3710783   5.071   2.492   3.491 -0.5089  0.3702  0.9049
  105SAPE   H7X10784   5.124   2.589   3.475 -0.9445  0.1815 -1.8114
  105SAPE   H7Y10785   5.122   2.412   3.433 -1.5729 -0.5320  1.2029
  105SAPE   C3810786   5.057   2.464   3.645 -0.0865 -0.2672 -0.1100
  105SAPE   H8X10787   5.147   2.410   3.679 -0.4524 -1.0289 -0.3481
  105SAPE   H8Y10788   4.977   2.388   3.657  0.8200 -0.8856  2.3335
  105SAPE   C3910789   5.023   2.591   3.728  0.3354  0.3709 -0.2527
  105SAPE   H9X10790   4.933   2.637   3.684 -0.4520  0.6983  1.6407
  105SAPE   H9Y10791   5.110   2.658   3.713  0.3299  0.1767 -1.1760
  105SAPE  C31010792   4.990   2.563   3.879  0.5353  0.1297  0.1928
  105SAPE  H10X10793   5.088   2.544   3.928  0.0034 -0.5250  1.0251
  105SAPE  H10Y10794   4.917   2.479   3.877 -2.1244  2.3288  1.0045
  105SAPE  C31110795   4.920   2.679   3.951  0.4205  0.9046  0.4056
  105SAPE  H11X10796   4.822   2.691   3.899  0.6329  0.1473 -0.1750
  105SAPE  H11Y10797   4.974   2.772   3.922 -0.9862  1.1601 -1.5493
  105SAPE  C31210798   4.883   2.670   4.093 -0.0503 -0.1003  0.0066
  105SAPE  H12X10799   4.972   2.676   4.159 -0.9593  1.3142  1.1183
  105SAPE  H12Y10800   4.822   2.579   4.114  1.2758 -1.1737 -0.7206
  105SAPE  C31310801   4.791   2.791   4.128  0.2377  0.2414 -0.1721
  105SAPE  H13X10802   4.692   2.769   4.082  0.9863  0.2590 -1.8344
  105SAPE  H13Y10803   4.836   2.877   4.074 -0.4081  1.2668  0.9227
  105SAPE  C31410804   4.774   2.794   4.278  0.4029 -0.2356  0.0628
  105SAPE  H14X10805   4.719   2.882   4.317  1.4891  0.2608  0.4930
  105SAPE  H14Y10806   4.873   2.809   4.325  0.7803 -0.1267 -0.7660
  105SAPE  C31510807   4.708   2.665   4.338 -0.4428  0.5579  0.3779
  105SAPE  H15X10808   4.758   2.571   4.306 -1.3278  0.2994 -0.2684
  105SAPE  H15Y10809   4.607   2.671   4.292 -0.2993 -0.7806 -0.1368
  105SAPE  C31610810   4.725   2.667   4.489 -0.1746 -0.0554  0.2537
  105SAPE  H16X10811   4.634   2.613   4.525  0.8407 -0.9323  1.5384
  105SAPE  H16Y10812   4.724   2.771   4.527  0.6349  1.1439 -2.8365
  105SAPE  C31710813   4.852   2.596   4.542  0.4524  0.3080 -0.8525
  105SAPE  H17X10814   4.933   2.655   4.494  1.5666 -0.5555 -0.0460
  105SAPE  H17Y10815   4.856   2.494   4.500  0.0768  0.7147 -1.8988
  105SAPE  C31810816   4.873   2.597   4.693 -0.4139 -0.7721  0.2609
  105SAPE  H18X10817   4.967   2.545   4.719 -0.1969 -0.2422  0.5541
  105SAPE  H18Y10818   4.784   2.551   4.741 -1.2584  1.8668  1.3063
  105SAPE  H18Z10819   4.885   2.702   4.728  1.6103 -0.7768 -0.3449
  106SAPE     N10820   5.873   3.763   1.981 -0.1181  0.1992 -0.0758
  106SAPE   HN110821   5.893   3.689   1.912 -1.4551  1.3622 -1.7626
  106SAPE   HN210822   5.792   3.725   2.032 -0.2141  0.1889 -0.2360
  106SAPE   HN310823   5.853   3.854   1.935  3.4110  2.4974  2.5784
  106SAPE   C1210824   5.987   3.775   2.073 -0.0082  0.3726 -0.1634
  106SAPE  H12A10825   6.079   3.772   2.011  0.9539  4.1145  0.9395
  106SAPE  H12B10826   5.990   3.687   2.141 -1.6085  0.3142 -0.1356
  106SAPE   C1110827   5.989   3.905   2.150 -0.8602  0.8266 -0.3100
  106SAPE  H11A10828   6.011   3.986   2.078  0.3761  2.2926  1.6806
  106SAPE  H11B10829   6.073   3.898   2.222 -0.3801  0.0619 -0.9313
  106SAPE     P10830   5.854   4.036   2.332  0.4433  0.1472  0.1651
  106SAPE   O1310831   5.709   4.060   2.357  0.6730 -0.0610  0.3824
  106SAPE   O1410832   5.946   4.001   2.445 -0.4725  0.2476  0.3360
  106SAPE   O1210833   5.869   3.922   2.221 -0.6520  0.2835 -0.3005
  106SAPE   O1110834   5.916   4.163   2.268 -0.1011 -0.1924  0.6224
  106SAPE    C110835   5.908   4.299   2.321  0.3861 -0.0116 -0.1453
  106SAPE    HA10836   5.831   4.355   2.264 -0.0639 -0.3134  0.1686
  106SAPE    HB10837   5.877   4.299   2.427 -1.3924 -2.7847 -0.6308
  106SAPE    C210838   6.041   4.373   2.312  0.0303 -0.2456 -0.3230
  106SAPE    HS10839   6.064   4.399   2.207 -1.5015 -0.6733 -0.7714
  106SAPE   O2110840   6.147   4.292   2.364  0.1832  0.4296 -0.1081
  106SAPE   C2110841   6.209   4.209   2.282 -0.1227 -0.8856  0.0941
  106SAPE   O2210842   6.213   4.208   2.160  0.3639  0.5387  0.6373
  106SAPE   C2210843   6.297   4.117   2.371 -0.1608  0.2107  0.6861
  106SAPE   H2R10844   6.270   4.119   2.479  1.8811 -1.2549  1.2494
  106SAPE   H2S10845   6.267   4.018   2.331 -0.7247  0.4269  0.5728
  106SAPE    C310846   6.045   4.509   2.379 -0.2959 -0.1811  0.1241
  106SAPE    HX10847   5.964   4.573   2.338 -0.6832  0.9967  2.6072
  106SAPE    HY10848   6.142   4.554   2.348  1.2326 -3.3558  0.1470
  106SAPE   O3110849   6.036   4.506   2.526 -0.0826  0.3169  0.1401
  106SAPE   C3110850   6.147   4.542   2.592 -0.3287 -0.2385 -0.4109
  106SAPE   O3210851   6.240   4.605   2.543 -0.1763 -0.0593  0.0447
  106SAPE   C3210852   6.148   4.510   2.743  0.3708 -0.1157 -0.2872
  106SAPE   H2X10853   6.064   4.563   2.792 -1.2943 -0.2023 -2.9271
  106SAPE   H2Y10854   6.236   4.555   2.794 -0.1413  0.0186  0.4814
  106SAPE   C2310855   6.446   4.140   2.336 -0.4254 -0.1958 -0.0306
  106SAPE   H3R10856   6.458   4.177   2.232  1.4719  2.7237  1.1595
  106SAPE   H3S10857   6.497   4.041   2.331 -2.7991 -1.4894  0.9363
  106SAPE   C2410858   6.525   4.225   2.440 -0.6486 -0.0786  0.7644
  106SAPE   H4R10859   6.629   4.205   2.405 -1.0697 -0.0765 -0.4977
  106SAPE   H4S10860   6.498   4.178   2.537  2.4441 -0.9189  1.2768
  106SAPE   C2510861   6.500   4.375   2.432 -0.4606 -0.0782  0.1773
  106SAPE   H5R10862   6.473   4.421   2.336  1.4658  2.1642  0.6769
  106SAPE   C2610863   6.504   4.460   2.534  0.0262  0.1854 -0.0856
  106SAPE   H6R10864   6.484   4.565   2.508  0.5886  0.3610  0.1772
  106SAPE   C2710865   6.542   4.425   2.678 -0.3805 -1.1515  0.2147
  106SAPE   H7R10866   6.617   4.343   2.681  1.9194  0.8801  0.4045
  106SAPE   H7S10867   6.452   4.386   2.731 -0.5998 -0.1387  0.6115
  106SAPE   C2810868   6.587   4.539   2.770 -0.8780 -0.3801  0.6385
  106SAPE   H8R10869   6.614   4.630   2.714  0.3085 -1.1324 -0.0463
  106SAPE   C2910870   6.595   4.544   2.903  0.3274 -0.1398  0.3473
  106SAPE   H9R10871   6.607   4.639   2.957 -0.6380 -0.4641  1.1485
  106SAPE  C21010872   6.561   4.429   2.997 -0.1718  0.7516 -0.4570
  106SAPE  H10R10873   6.588   4.333   2.947 -2.2873 -1.6325  2.7885
  106SAPE  H10S10874   6.451   4.430   3.012 -0.2683 -0.4837 -0.9981
  106SAPE  C21110875   6.623   4.437   3.132 -0.1360 -0.2714  0.1498
  106SAPE  H11R10876   6.732   4.449   3.129 -0.2698  1.0612  0.2553
  106SAPE  C21210877   6.563   4.443   3.249  0.0547  0.5128 -0.0210
  106SAPE  H12R10878   6.628   4.448   3.337 -0.2708  2.2741  0.1304
  106SAPE  C21310879   6.417   4.441   3.274 -0.1698  0.5163 -0.2777
  106SAPE  H13R10880   6.394   4.354   3.339  0.2278  0.2122 -0.5371
  106SAPE  H13S10881   6.353   4.423   3.185 -3.1697 -0.5192  2.0057
  106SAPE  C21410882   6.369   4.563   3.345  0.1520  0.3589 -0.1501
  106SAPE  H14R10883   6.441   4.645   3.336  1.0962 -0.4381  0.0899
  106SAPE  C21510884   6.266   4.588   3.431  0.3456  0.4606 -0.5345
  106SAPE  H15R10885   6.242   4.681   3.487  0.7339 -0.2900  0.9171
  106SAPE  C21610886   6.170   4.488   3.477 -0.1513  0.3055 -0.5733
  106SAPE  H16R10887   6.159   4.398   3.412 -0.5975 -0.2915  0.3245
  106SAPE  H16S10888   6.073   4.540   3.489  0.7278  1.2410  2.8024
  106SAPE  C21710889   6.208   4.424   3.614  0.0505  0.1257 -0.1251
  106SAPE  H17R10890   6.222   4.498   3.696  2.3153 -0.2497 -0.1268
  106SAPE  H17S10891   6.303   4.368   3.599  0.0875 -0.2205  1.3552
  106SAPE  C21810892   6.101   4.328   3.671 -0.1959 -0.1607  0.2317
  106SAPE  H18R10893   6.061   4.256   3.597  1.3884 -0.3727 -0.4425
  106SAPE  H18S10894   6.005   4.381   3.684  0.4950  1.5319 -1.3205
  106SAPE  C21910895   6.130   4.289   3.816 -0.5796 -0.2208 -0.1220
  106SAPE  H19R10896   6.045   4.260   3.881 -0.6487 -1.9021 -0.9350
  106SAPE  H19S10897   6.187   4.372   3.864  0.1821  1.4312 -3.7185
  106SAPE  C22010898   6.235   4.176   3.825 -0.7725 -0.0079 -0.5150
  106SAPE  H20R10899   6.203   4.083   3.773 -0.4867 -0.4951  0.1816
  106SAPE  H20S10900   6.256   4.155   3.932 -1.5333 -0.2849 -0.4159
  106SAPE  H20T10901   6.331   4.209   3.779  0.7607 -0.1460  2.4577
  106SAPE   C3310902   6.144   4.357   2.770 -0.8928 -0.2877  0.7588
  106SAPE   H3X10903   6.236   4.317   2.722 -1.3420  2.1640 -2.3820
  106SAPE   H3Y10904   6.056   4.305   2.727 -0.9868  1.5500 -1.3634
  106SAPE   C3410905   6.163   4.337   2.921  0.7690  0.2469  0.2884
  106SAPE   H4X10906   6.073   4.386   2.965 -0.2191  0.6140 -2.0743
  106SAPE   H4Y10907   6.255   4.393   2.948 -0.1576  2.2565 -0.5962
  106SAPE   C3510908   6.151   4.192   2.963 -0.2202 -0.4585 -0.1295
  106SAPE   H5X10909   6.225   4.131   2.905 -0.4617 -0.5726 -0.3173
  106SAPE   H5Y10910   6.051   4.148   2.943 -2.2224  2.9138  2.0629
  106SAPE   C3610911   6.164   4.192   3.118 -0.6396 -0.0790 -0.2641
  106SAPE   H6X10912   6.105   4.271   3.169 -0.5402 -0.7020  0.8344
  106SAPE   H6Y10913   6.269   4.210   3.153 -1.0217 -0.1304  0.9504
  106SAPE   C3710914   6.098   4.072   3.180  0.0254  1.0301 -0.9707
  106SAPE   H7X10915   6.133   3.974   3.141  2.5579  1.6502 -0.3420
  106SAPE   H7Y10916   5.988   4.079   3.161 -0.1033 -0.8890 -0.9424
  106SAPE   C3810917   6.122   4.058   3.333  0.0034  0.4020 -0.0975
  106SAPE   H8X10918   6.117   4.156   3.385  0.6408  0.3654  0.0343
  106SAPE   H8Y10919   6.227   4.030   3.353  0.1357  0.5903 -0.5275
  106SAPE   C3910920   6.033   3.947   3.394  0.4992  0.1917  0.7209
  106SAPE   H9X10921   6.070   3.848   3.360 -0.8174  0.1825 -0.7406
  106SAPE   H9Y10922   5.932   3.945   3.349  0.1956  0.2532  1.3913
  106SAPE  C31010923   6.020   3.959   3.551 -0.2333 -0.3713  0.0897
  106SAPE  H10X10924   5.969   4.056   3.571  1.1381  0.6156 -1.0803
  106SAPE  H10Y10925   6.125   3.969   3.585 -0.1806 -0.0344 -0.1581
  106SAPE  C31110926   5.936   3.845   3.611 -0.0430  0.0406  0.3985
  106SAPE  H11X10927   5.964   3.743   3.578  0.7889 -0.3586  2.2560
  106SAPE  H11Y10928   5.832   3.860   3.575  1.0696  1.3559 -2.3717
  106SAPE  C31210929   5.935   3.844   3.764  0.4242  0.3235 -0.6420
  106SAPE  H12X10930   6.041   3.840   3.800  0.4417 -0.0244 -0.7304
  106SAPE  H12Y10931   5.890   3.752   3.808  0.7653  1.6032  2.5567
  106SAPE  C31310932   5.862   3.961   3.821  0.6299  0.1950  0.1889
  106SAPE  H13X10933   5.883   4.053   3.763 -1.8923  1.2149  0.8374
  106SAPE  H13Y10934   5.903   3.982   3.922  0.6948  1.9109 -0.1854
  106SAPE  C31410935   5.712   3.949   3.826  0.4028  0.2039 -0.7074
  106SAPE  H14X10936   5.678   3.883   3.909 -0.6160  0.9431 -0.5229
  106SAPE  H14Y10937   5.687   3.905   3.727 -2.2073  0.2228 -0.1065
  106SAPE  C31510938   5.657   4.086   3.847  0.4956  0.7041 -0.6508
  106SAPE  H15X10939   5.549   4.093   3.821  0.8674  0.7365 -2.2861
  106SAPE  H15Y10940   5.704   4.159   3.777  1.7874  0.1866 -0.3359
  106SAPE  C31610941   5.666   4.130   3.993 -0.1347  0.5554  0.0719
  106SAPE  H16X10942   5.766   4.176   4.005 -0.2725  0.8366  0.1347
  106SAPE  H16Y10943   5.646   4.039   4.055 -0.7341 -0.7485 -1.9822
  106SAPE  C31710944   5.553   4.228   4.034 -0.7860 -0.7553 -0.8187
  106SAPE  H17X10945   5.461   4.178   3.998 -0.2166 -1.8069 -0.8225
  106SAPE  H17Y10946   5.554   4.318   3.968  0.4972  0.1795  0.4536
  106SAPE  C31810947   5.554   4.267   4.186 -0.2492  0.3156 -0.0043
  106SAPE  H18X10948   5.468   4.331   4.214 -0.3685  0.4586 -0.6877
  106SAPE  H18Y10949   5.648   4.323   4.207  0.1347 -0.3492  0.0681
  106SAPE  H18Z10950   5.555   4.174   4.247 -1.5592 -0.3659 -1.0007
  107SAPE     N10951   0.797   3.541   2.235 -0.9650 -0.9643 -0.0397
  107SAPE   HN110952   0.829   3.450   2.274  0.7008  0.2977  1.5979
  107SAPE   HN210953   0.740   3.519   2.151 -0.7118 -2.1495  0.0932
  107SAPE   HN310954   0.880   3.601   2.218 -0.2167 -1.6929  1.0181
  107SAPE   C1210955   0.715   3.602   2.346 -0.3140 -0.1083  0.2585
  107SAPE  H12A10956   0.667   3.695   2.309 -0.9887  0.2120  1.8961
  107SAPE  H12B10957   0.787   3.635   2.423 -0.5013 -1.1642  0.9006
  107SAPE   C1110958   0.594   3.521   2.400  0.3649 -0.5717  0.5564
  107SAPE  H11A10959   0.535   3.579   2.475  0.9394  0.1365  0.4701
  107SAPE  H11B10960   0.637   3.438   2.461  2.6654 -1.5632 -2.2827
  107SAPE     P10961   0.372   3.400   2.336 -0.2025 -0.1601 -0.7328
  107SAPE   O1310962   0.254   3.481   2.302 -0.0734 -0.1596 -0.0194
  107SAPE   O1410963   0.377   3.267   2.273  0.1051  0.7470 -0.7687
  107SAPE   O1210964   0.500   3.480   2.303  0.4299  0.1921 -0.0031
  107SAPE   O1110965   0.376   3.391   2.495 -0.2643  0.2061  0.5947
  107SAPE    C110966   0.438   3.280   2.570  0.4841 -0.0058  0.6943
  107SAPE    HA10967   0.477   3.197   2.508 -3.0942 -1.0398 -0.2818
  107SAPE    HB10968   0.515   3.318   2.641  1.4182 -1.3568  0.4293
  107SAPE    C210969   0.326   3.217   2.658  0.0206 -0.3202 -0.6173
  107SAPE    HS10970   0.249   3.184   2.585  0.4942  1.7321 -2.1032
  107SAPE   O2110971   0.274   3.315   2.754  0.0494 -0.1452 -0.7799
  107SAPE   C2110972   0.146   3.309   2.783  0.2051  0.4649 -0.0614
  107SAPE   O2210973   0.066   3.242   2.726 -0.4809 -0.1580  1.1325
  107SAPE   C2210974   0.120   3.415   2.901  0.2391 -0.3254  0.0822
  107SAPE   H2R10975   0.163   3.389   3.000 -0.2644  0.2089  0.4451
  107SAPE   H2S10976   0.167   3.508   2.864 -0.4284  0.2976  0.7824
  107SAPE    C310977   0.362   3.087   2.726  0.1822 -0.0172  0.5321
  107SAPE    HX10978   0.414   3.012   2.661 -0.7065 -0.3882  0.2413
  107SAPE    HY10979   0.263   3.038   2.729 -0.2847  0.7654 -1.3720
  107SAPE   O3110980   0.427   3.098   2.855  0.5642  0.1503  0.2047
  107SAPE   C3110981   0.554   3.109   2.848 -0.0629  0.0245  0.1210
  107SAPE   O3210982   0.624   3.097   2.746 -0.5655 -0.7539  0.6812
  107SAPE   C3210983   0.606   3.132   2.995  0.3460 -0.0684  0.6377
  107SAPE   H2X10984   0.565   3.051   3.059  2.8100 -0.6676  1.5202
  107SAPE   H2Y10985   0.590   3.239   3.022 -0.6386 -0.0517  0.0172
  107SAPE   C2310986  -0.036   3.442   2.917  0.2670  0.4225 -0.1507
  107SAPE   H3R10987  -0.088   3.452   2.820 -1.4024 -1.2493  0.5390
  107SAPE   H3S10988  -0.033   3.545   2.959  2.2728 -0.2237  1.3709
  107SAPE   C2410989  -0.113   3.340   3.012 -0.2573 -0.2077  0.3892
  107SAPE   H4R10990  -0.084   3.237   2.983  2.2568  0.5639  0.0186
  107SAPE   H4S10991  -0.220   3.342   2.982 -1.6173 -2.0150  4.7697
  107SAPE   C2510992  -0.105   3.360   3.160 -0.1444  0.5667 -0.2630
  107SAPE   H5R10993  -0.148   3.451   3.205 -0.2478  1.7988 -2.7461
  107SAPE   C2610994  -0.032   3.282   3.244 -0.4814  0.8138 -0.7094
  107SAPE   H6R10995  -0.019   3.317   3.347 -0.3294  1.0469 -0.8070
  107SAPE   C2710996   0.057   3.163   3.206 -0.3979  0.1236 -0.2303
  107SAPE   H7R10997   0.077   3.163   3.097  1.9938 -0.9133  0.1863
  107SAPE   H7S10998   0.005   3.068   3.231 -1.3916  0.5758 -0.5656
  107SAPE   C2810999   0.193   3.171   3.275  0.0885  0.3145 -0.4385
  107SAPE   H8R11000   0.238   3.271   3.284  0.8132  0.0245 -0.7944
  107SAPE   C2911001   0.271   3.063   3.305 -0.5570  0.0521 -0.0936
  107SAPE   H9R11002   0.371   3.088   3.343  0.4641 -1.5130 -1.6844
  107SAPE  C21011003   0.244   2.913   3.275 -0.0728  0.1087  0.0908
  107SAPE  H10R11004   0.148   2.909   3.219  1.0503 -0.3184 -1.8672
  107SAPE  H10S11005   0.233   2.847   3.364  1.3662 -0.0828  0.1410
  107SAPE  C21111006   0.346   2.861   3.180 -0.5972  0.7414  0.9473
  107SAPE  H11R11007   0.362   2.924   3.091 -0.2078 -1.4049 -0.5503
  107SAPE  C21211008   0.420   2.745   3.196  0.2694 -0.0743  0.4811
  107SAPE  H12R11009   0.491   2.711   3.118 -0.3492  0.3797 -0.2869
  107SAPE  C21311010   0.413   2.653   3.310  0.3349 -0.5400  0.1524
  107SAPE  H13R11011   0.429   2.554   3.261  0.3717  0.0678 -1.0748
  107SAPE  H13S11012   0.315   2.651   3.362  1.5091  1.5955  2.5067
  107SAPE  C21411013   0.525   2.667   3.402 -0.1701 -0.0616 -0.3892
  107SAPE  H14R11014   0.619   2.656   3.346 -0.6387 -2.6910 -0.6874
  107SAPE  C21511015   0.518   2.695   3.538 -0.3458  0.2288  0.5081
  107SAPE  H15R11016   0.601   2.665   3.603 -1.4031 -0.3969  1.6089
  107SAPE  C21611017   0.386   2.718   3.610  0.4431 -0.3220  0.2044
  107SAPE  H16R11018   0.400   2.664   3.706  3.2535  0.7359  0.4473
  107SAPE  H16S11019   0.304   2.680   3.546  1.1302  0.6453 -1.2819
  107SAPE  C21711020   0.364   2.874   3.631  0.3247 -0.3386 -0.3013
  107SAPE  H17R11021   0.255   2.895   3.636  0.8642  2.6985 -0.5619
  107SAPE  H17S11022   0.405   2.924   3.541 -0.7187  3.9964  1.5246
  107SAPE  C21811023   0.416   2.938   3.760  0.3684 -0.4391  0.2121
  107SAPE  H18R11024   0.454   3.039   3.732 -3.1645  0.5880 -1.1398
  107SAPE  H18S11025   0.498   2.876   3.801  1.3467  0.4038 -0.4411
  107SAPE  C21911026   0.317   2.974   3.873  0.2341 -0.4177  0.0828
  107SAPE  H19R11027   0.267   2.883   3.912 -1.5015 -0.0109 -1.1061
  107SAPE  H19S11028   0.234   3.032   3.828 -2.4365 -3.7414  0.5532
  107SAPE  C22011029   0.384   3.062   3.984  0.2861 -0.1797 -0.9038
  107SAPE  H20R11030   0.494   3.068   3.996 -0.0278  0.1978  2.1699
  107SAPE  H20S11031   0.337   3.052   4.084  0.2265 -1.3185 -1.0279
  107SAPE  H20T11032   0.353   3.166   3.963  1.1181  0.4343  0.8775
  107SAPE   C3311033   0.763   3.118   3.010 -0.1852 -0.6239  0.0090
  107SAPE   H3X11034   0.804   3.176   3.095  0.0697 -1.9378  0.7977
  107SAPE   H3Y11035   0.823   3.156   2.924 -1.2129 -2.5075 -1.5960
  107SAPE   C3411036   0.806   2.973   3.029  0.2694  0.2540 -0.3473
  107SAPE   H4X11037   0.912   2.965   2.997  0.9733  0.7363  1.7893
  107SAPE   H4Y11038   0.746   2.907   2.963  1.1939  0.5625 -1.5131
  107SAPE   C3511039   0.793   2.921   3.171 -0.3561  0.2407 -0.5080
  107SAPE   H5X11040   0.818   2.813   3.177  0.2268  0.5058  1.9912
  107SAPE   H5Y11041   0.689   2.935   3.207 -0.2102 -2.3134  0.9977
  107SAPE   C3611042   0.887   2.988   3.268 -0.5006  0.1347  0.1391
  107SAPE   H6X11043   0.867   3.098   3.267 -2.4070 -0.1901 -1.5000
  107SAPE   H6Y11044   0.991   2.968   3.237  0.1929  1.3050  1.6351
  107SAPE   C3711045   0.858   2.950   3.411 -0.7256 -0.1985 -0.1817
  107SAPE   H7X11046   0.898   2.850   3.437  2.3316  0.8508 -0.7417
  107SAPE   H7Y11047   0.749   2.958   3.433 -0.2577  1.7734  1.5597
  107SAPE   C3811048   0.928   3.040   3.515  0.2553 -0.2255 -0.1748
  107SAPE   H8X11049   0.876   3.138   3.515  0.0576 -0.3296 -1.8132
  107SAPE   H8Y11050   1.033   3.070   3.496  0.3659 -0.2953  0.3246
  107SAPE   C3911051   0.927   2.991   3.663 -0.5033 -0.4119  0.4364
  107SAPE   H9X11052   0.999   3.055   3.718  0.7232 -0.0982 -1.4945
  107SAPE   H9Y11053   0.980   2.894   3.676  0.6641  0.2371  0.5567
  107SAPE  C31011054   0.790   2.971   3.722  0.5321 -0.3557 -0.0078
  107SAPE  H10X11055   0.751   2.876   3.680 -0.0808 -0.1788  0.1504
  107SAPE  H10Y11056   0.727   3.056   3.690 -0.9289 -1.6656 -0.6823
  107SAPE  C31111057   0.778   2.976   3.874  0.6553  0.7653  0.3935
  107SAPE  H11X11058   0.672   2.964   3.905  0.2822  1.5521 -0.5738
  107SAPE  H11Y11059   0.816   3.074   3.910  2.0703  0.3950 -0.0592
  107SAPE  C31211060   0.876   2.882   3.953 -0.6690  0.0069 -0.1525
  107SAPE  H12X11061   0.973   2.887   3.899 -0.8035 -1.7954 -0.6072
  107SAPE  H12Y11062   0.841   2.778   3.934 -0.3393 -0.3670  1.2365
  107SAPE  C31311063   0.898   2.918   4.100 -0.2070  0.3456  0.8753
  107SAPE  H13X11064   0.804   2.908   4.158 -0.9664 -2.3010 -0.7368
  107SAPE  H13Y11065   0.921   3.027   4.102  0.5283  0.2879 -1.7990
  107SAPE  C31411066   1.022   2.850   4.162  0.0432 -0.1887  0.0723
  107SAPE  H14X11067   1.099   2.851   4.082  0.0041 -0.2330  0.0335
  107SAPE  H14Y11068   1.008   2.740   4.173  0.6148 -0.2424  0.2634
  107SAPE  C31511069   1.059   2.922   4.296 -0.1716  0.0232  0.5507
  107SAPE  H15X11070   0.993   2.881   4.375  0.6423 -1.2705  0.5844
  107SAPE  H15Y11071   1.056   3.032   4.281  1.8962  0.3027  2.0858
  107SAPE  C31611072   1.199   2.887   4.355  0.6767 -0.3433 -0.1892
  107SAPE  H16X11073   1.286   2.902   4.287  0.4526 -2.0758 -0.8957
  107SAPE  H16Y11074   1.208   2.778   4.375 -0.1530 -0.0389  1.9112
  107SAPE  C31711075   1.227   2.963   4.488 -0.1672  0.1137  0.3901
  107SAPE  H17X11076   1.166   2.924   4.572  1.2009 -0.4090  1.1689
  107SAPE  H17Y11077   1.200   3.067   4.463 -1.1833 -0.3758 -0.6125
  107SAPE  C31811078   1.377   2.972   4.536 -0.1007 -0.2284  0.8122
  107SAPE  H18X11079   1.414   2.868   4.542 -2.1841 -1.2098 -2.4010
  107SAPE  H18Y11080   1.382   3.021   4.636 -0.8366  4.0295 -1.1148
  107SAPE  H18Z11081   1.442   3.024   4.462 -0.3450  2.1410  2.2109
  108SAPE     N11082   0.223   3.731   2.150  0.0751 -0.5653 -0.0873
  108SAPE   HN111083   0.123   3.755   2.158 -0.0106 -1.0612  0.3515
  108SAPE   HN211084   0.242   3.751   2.049 -2.1483  0.4368 -0.3297
  108SAPE   HN311085   0.226   3.627   2.157  1.0593 -0.6694 -1.6696
  108SAPE   C1211086   0.308   3.808   2.251 -0.0651 -1.0095  0.2403
  108SAPE  H12A11087   0.412   3.778   2.227 -0.2420 -1.4032 -0.0424
  108SAPE  H12B11088   0.283   3.780   2.355  0.9418  1.0759  1.0696
  108SAPE   C1111089   0.296   3.963   2.236  0.3208 -0.2423 -0.5881
  108SAPE  H11A11090   0.353   3.989   2.145  0.0797 -2.1826 -1.3135
  108SAPE  H11B11091   0.362   4.010   2.311  1.6929 -3.7046  0.4699
  108SAPE     P11092   0.074   4.069   2.342  0.0209 -0.1273  0.0779
  108SAPE   O1311093   0.036   4.205   2.293 -0.3653  0.0359 -0.1171
  108SAPE   O1411094  -0.033   3.971   2.373  0.9741  0.6319 -0.5666
  108SAPE   O1211095   0.161   4.008   2.220  0.1332  0.4841 -0.1612
  108SAPE   O1111096   0.177   4.087   2.465  0.1538  0.3460  0.1472
  108SAPE    C111097   0.163   4.188   2.563  0.6430  0.6829  0.3063
  108SAPE    HA11098   0.077   4.256   2.546  0.1354  0.0665  0.4020
  108SAPE    HB11099   0.150   4.131   2.658 -1.0539 -0.4409 -0.5795
  108SAPE    C211100   0.282   4.284   2.572 -0.0290 -0.2943  0.8407
  108SAPE    HS11101   0.300   4.341   2.478  0.5781 -0.3625  0.9185
  108SAPE   O2111102   0.400   4.217   2.623  0.4141 -0.3962 -0.5012
  108SAPE   C2111103   0.478   4.172   2.530  0.7951 -0.1100  0.3506
  108SAPE   O2211104   0.479   4.208   2.413  0.7797  0.1413  0.3854
  108SAPE   C2211105   0.581   4.079   2.593 -0.1897 -0.2764  0.1465
  108SAPE   H2R11106   0.664   4.091   2.521  0.4806 -2.6936  0.4834
  108SAPE   H2S11107   0.617   4.121   2.689 -0.1452 -0.4182  0.1906
  108SAPE    C311108   0.249   4.380   2.680  0.3787 -0.0914 -0.5527
  108SAPE    HX11109   0.336   4.448   2.694 -0.0343  0.4861 -0.7734
  108SAPE    HY11110   0.249   4.314   2.769 -1.5935  1.8333  0.9414
  108SAPE   O3111111   0.129   4.452   2.653 -0.3905 -0.2798  0.1119
  108SAPE   C3111112   0.040   4.464   2.759  0.1773 -0.2673  0.0975
  108SAPE   O3211113   0.054   4.420   2.869 -0.1530  0.9874 -0.1900
  108SAPE   C3211114  -0.080   4.539   2.715  0.1069 -0.2333 -0.1381
  108SAPE   H2X11115  -0.112   4.522   2.610 -2.1939  2.1625  0.1310
  108SAPE   H2Y11116  -0.062   4.648   2.724  2.5900 -0.4883 -1.6513
  108SAPE   C2311117   0.548   3.927   2.596 -0.6407  0.1723  0.1586
  108SAPE   H3R11118   0.632   3.875   2.647 -1.0465  0.5426  1.2216
  108SAPE   H3S11119   0.550   3.894   2.490  0.6853 -2.2910  0.9266
  108SAPE   C2411120   0.414   3.912   2.675  0.1641 -0.2302 -0.7488
  108SAPE   H4R11121   0.337   3.960   2.612 -1.8800 -3.0038 -0.4584
  108SAPE   H4S11122   0.407   3.958   2.776 -1.3859 -0.9263 -0.5180
  108SAPE   C2511123   0.387   3.758   2.674  0.8840  0.5929  0.0671
  108SAPE   H5R11124   0.324   3.725   2.590 -1.8170  2.6208  1.1872
  108SAPE   C2611125   0.430   3.663   2.762 -0.1005 -0.3438 -0.0833
  108SAPE   H6R11126   0.416   3.556   2.742  3.3638 -1.0553  1.0649
  108SAPE   C2711127   0.512   3.695   2.881 -0.3796  0.2330  0.6434
  108SAPE   H7R11128   0.576   3.786   2.872 -0.7208  0.6219  1.9921
  108SAPE   H7S11129   0.585   3.612   2.888 -0.6149 -0.3813 -2.9924
  108SAPE   C2811130   0.434   3.709   3.009  0.2102 -0.5503 -0.0923
  108SAPE   H8R11131   0.390   3.809   3.017  1.5559  0.1825 -1.4855
  108SAPE   C2911132   0.443   3.640   3.119  0.1310  0.3440  0.5575
  108SAPE   H9R11133   0.367   3.664   3.195  0.4496 -0.6262  1.1905
  108SAPE  C21011134   0.534   3.530   3.134 -0.0695  0.2252 -0.2033
  108SAPE  H10R11135   0.635   3.572   3.147 -0.3336 -0.0203  2.8460
  108SAPE  H10S11136   0.540   3.475   3.037 -0.2363  3.0592 -1.8952
  108SAPE  C21111137   0.495   3.441   3.250  0.3257  0.6228 -0.4305
  108SAPE  H11R11138   0.386   3.423   3.259  0.3413  1.9490  3.0236
  108SAPE  C21211139   0.576   3.393   3.347 -0.0663 -0.5900 -0.3357
  108SAPE  H12R11140   0.522   3.328   3.419 -0.2691 -0.1714 -0.1096
  108SAPE  C21311141   0.725   3.420   3.361  0.2511  0.2504  0.5388
  108SAPE  H13R11142   0.775   3.451   3.267 -0.9466  2.2664  0.5466
  108SAPE  H13S11143   0.767   3.325   3.400  1.5366  0.5629 -0.0733
  108SAPE  C21411144   0.747   3.532   3.456  0.1361 -0.1374  0.2457
  108SAPE  H14R11145   0.776   3.628   3.412 -1.6730 -0.7249 -2.3460
  108SAPE  C21511146   0.738   3.533   3.587  0.6711  0.7606 -0.1806
  108SAPE  H15R11147   0.762   3.626   3.639  1.2145  0.7226 -0.3614
  108SAPE  C21611148   0.704   3.422   3.682 -0.2240  0.6277 -0.1180
  108SAPE  H16R11149   0.787   3.360   3.722 -0.1600  0.6227 -0.2582
  108SAPE  H16S11150   0.639   3.345   3.635 -0.8336 -0.9858  3.2087
  108SAPE  C21711151   0.634   3.478   3.805  0.0705 -0.8261  0.6939
  108SAPE  H17R11152   0.555   3.551   3.779  0.3235 -1.7698 -3.0190
  108SAPE  H17S11153   0.710   3.530   3.866  2.2030 -0.9986 -1.7147
  108SAPE  C21811154   0.555   3.372   3.887 -0.8648 -0.0842  0.6609
  108SAPE  H18R11155   0.612   3.282   3.921 -0.8702  0.3228  1.7791
  108SAPE  H18S11156   0.476   3.328   3.822 -0.4846  2.1729 -1.3592
  108SAPE  C21911157   0.488   3.442   4.009 -0.1940 -0.3782 -0.2019
  108SAPE  H19R11158   0.433   3.362   4.064  1.2038 -2.1039 -1.2713
  108SAPE  H19S11159   0.411   3.518   3.983  2.2155  2.2875  0.1765
  108SAPE  C22011160   0.588   3.485   4.113  0.1769 -0.0008  0.2071
  108SAPE  H20R11161   0.653   3.570   4.086 -0.2197  1.0045  2.2852
  108SAPE  H20S11162   0.647   3.398   4.149  4.6638  2.7675 -0.0502
  108SAPE  H20T11163   0.527   3.510   4.203 -0.7722 -0.6938 -0.2293
  108SAPE   C3311164  -0.207   4.509   2.798  0.1026  0.5805 -0.5943
  108SAPE   H3X11165  -0.275   4.592   2.771  0.6758  1.5647  0.9522
  108SAPE   H3Y11166  -0.175   4.507   2.905  1.7183  1.3055 -1.0611
  108SAPE   C3411167  -0.277   4.374   2.761 -0.3608 -0.5869  0.0963
  108SAPE   H4X11168  -0.192   4.303   2.776 -1.6514 -1.7986  1.8515
  108SAPE   H4Y11169  -0.296   4.374   2.652  1.3421  1.4139 -0.2500
  108SAPE   C3511170  -0.401   4.342   2.840  0.0751  0.9735 -0.0855
  108SAPE   H5X11171  -0.392   4.361   2.949 -1.4372  3.2405 -0.3197
  108SAPE   H5Y11172  -0.484   4.404   2.799 -0.8437 -0.8482 -1.0641
  108SAPE   C3611173  -0.433   4.190   2.823  0.1401  0.5977  0.3168
  108SAPE   H6X11174  -0.442   4.157   2.717 -1.3799 -0.6544  0.8005
  108SAPE   H6Y11175  -0.537   4.169   2.857  0.0379 -1.5605 -1.2340
  108SAPE   C3711176  -0.359   4.098   2.910  0.3728 -0.4460 -0.3099
  108SAPE   H7X11177  -0.347   4.137   3.014 -1.2620  0.8278 -0.5843
  108SAPE   H7Y11178  -0.253   4.080   2.882  0.9885  1.4042  0.7747
  108SAPE   C3811179  -0.412   3.950   2.914  0.9089 -0.8056 -0.6074
  108SAPE   H8X11180  -0.427   3.915   2.810  0.7547 -0.4977 -0.6896
  108SAPE   H8Y11181  -0.513   3.943   2.961 -0.0966  2.0915 -2.2065
  108SAPE   C3911182  -0.330   3.850   2.985  0.4595 -0.1431  0.0176
  108SAPE   H9X11183  -0.230   3.858   2.937  0.2439 -2.3882 -0.8841
  108SAPE   H9Y11184  -0.371   3.749   2.964 -1.3641  0.1170  2.1494
  108SAPE  C31011185  -0.330   3.867   3.138 -0.3058  0.2554  0.4805
  108SAPE  H10X11186  -0.434   3.860   3.176 -0.8755  0.9279 -0.9495
  108SAPE  H10Y11187  -0.303   3.972   3.160 -0.7071  0.1007  1.7705
  108SAPE  C31111188  -0.235   3.767   3.210 -0.4371  0.5099 -0.3517
  108SAPE  H11X11189  -0.136   3.781   3.162  0.2808 -2.1288  0.2940
  108SAPE  H11Y11190  -0.277   3.669   3.179 -1.6227  1.0244 -0.3990
  108SAPE  C31211191  -0.230   3.786   3.360  0.5854  0.2551 -0.3967
  108SAPE  H12X11192  -0.329   3.786   3.410  1.5554  3.6500  1.7130
  108SAPE  H12Y11193  -0.176   3.877   3.394 -1.5352  1.1605  0.6456
  108SAPE  C31311194  -0.149   3.682   3.428  0.2755 -0.8039  0.0254
  108SAPE  H13X11195  -0.199   3.591   3.388  0.6840  0.5574 -3.7490
  108SAPE  H13Y11196  -0.168   3.698   3.537 -1.1646 -0.6785 -0.2347
  108SAPE  C31411197   0.007   3.711   3.410  0.0475  0.3003  0.4418
  108SAPE  H14X11198   0.038   3.817   3.409  2.1124 -0.2883 -0.8320
  108SAPE  H14Y11199   0.031   3.670   3.310 -2.8649 -3.1404  1.0102
  108SAPE  C31511200   0.080   3.627   3.517 -0.2859  0.1025  0.1878
  108SAPE  H15X11201   0.044   3.526   3.485 -2.2915  0.7378  0.3792
  108SAPE  H15Y11202   0.044   3.651   3.619 -1.9231 -1.1570 -0.0593
  108SAPE  C31611203   0.235   3.630   3.502 -0.1790  0.5981  0.5753
  108SAPE  H16X11204   0.265   3.737   3.498  2.4067 -0.1376 -0.6066
  108SAPE  H16Y11205   0.259   3.605   3.397 -1.5129  0.9731  0.1711
  108SAPE  C31711206   0.323   3.537   3.589 -0.6027 -0.3724  0.5346
  108SAPE  H17X11207   0.308   3.569   3.694 -1.1491 -0.8629  0.6130
  108SAPE  H17Y11208   0.428   3.548   3.555 -1.0947  1.6274 -0.4214
  108SAPE  C31811209   0.276   3.391   3.586 -0.5317  0.4313  0.1751
  108SAPE  H18X11210   0.184   3.373   3.646 -0.5154  0.5570  0.2381
  108SAPE  H18Y11211   0.354   3.321   3.622 -1.2415  0.0116  0.9232
  108SAPE  H18Z11212   0.255   3.350   3.484  0.8849  2.1954 -0.8459
  109SAPE     N11213   5.153   0.820   1.896 -0.3641 -0.2081  0.0806
  109SAPE   HN111214   5.165   0.727   1.851  0.5850 -0.7088  1.3316
  109SAPE   HN211215   5.078   0.815   1.969 -1.3022  0.9501 -0.7660
  109SAPE   HN311216   5.122   0.896   1.832  0.6968 -1.9837 -2.6264
  109SAPE   C1211217   5.281   0.857   1.970  0.8799 -0.3190 -0.2284
  109SAPE  H12A11218   5.288   0.967   1.978 -1.5215 -0.0936 -0.7514
  109SAPE  H12B11219   5.373   0.824   1.918  1.7024  1.3090  0.1742
  109SAPE   C1111220   5.292   0.795   2.112 -0.3826 -0.2302 -0.0020
  109SAPE  H11A11221   5.400   0.792   2.138  0.1116  0.8049 -1.8388
  109SAPE  H11B11222   5.272   0.688   2.093  0.6995 -0.2376 -1.1578
  109SAPE     P11223   5.240   0.990   2.290  0.0197 -0.3041  0.3421
  109SAPE   O1311224   5.221   0.972   2.438 -0.7053  0.3221  0.4250
  109SAPE   O1411225   5.369   1.036   2.240  0.2649  0.3713 -0.0535
  109SAPE   O1211226   5.208   0.849   2.219 -0.6806  0.2484 -0.0228
  109SAPE   O1111227   5.125   1.089   2.253 -0.2845  0.5628  0.3929
  109SAPE    C111228   4.991   1.049   2.273  0.5601  0.2306  0.3316
  109SAPE    HA11229   4.934   1.040   2.178  1.6133 -1.6982 -0.1349
  109SAPE    HB11230   4.983   0.956   2.332  1.2038 -1.3388 -2.0114
  109SAPE    C211231   4.918   1.159   2.357  0.2431  0.5761  0.1900
  109SAPE    HS11232   4.930   1.260   2.312 -0.3888 -0.2112 -1.8209
  109SAPE   O2111233   4.964   1.152   2.495 -0.5843 -0.3857  0.0151
  109SAPE   C2111234   5.040   1.246   2.536  0.0842 -0.7731  0.4622
  109SAPE   O2211235   5.073   1.347   2.469  0.2895  0.0189 -0.0602
  109SAPE   C2211236   5.075   1.215   2.679 -0.5657  0.0181  0.0152
  109SAPE   H2R11237   4.985   1.221   2.745 -0.9574 -0.6997 -0.4473
  109SAPE   H2S11238   5.095   1.106   2.685 -3.1756 -0.4696  0.5172
  109SAPE    C311239   4.766   1.117   2.364  0.6876  0.2050 -0.2774
  109SAPE    HX11240   4.780   1.013   2.401  1.5690  0.5545  0.4071
  109SAPE    HY11241   4.715   1.101   2.267  1.3827 -3.4486 -0.1099
  109SAPE   O3111242   4.685   1.195   2.457  0.3223  0.1310  0.2553
  109SAPE   C3111243   4.564   1.136   2.482 -0.1153 -0.9996  0.0397
  109SAPE   O3211244   4.528   1.030   2.434 -0.1827 -0.2861  0.5024
  109SAPE   C3211245   4.490   1.210   2.593  0.2252 -0.1086  0.1223
  109SAPE   H2X11246   4.382   1.199   2.568  0.2975 -1.3933  0.3436
  109SAPE   H2Y11247   4.514   1.319   2.592 -1.7433  0.3354 -1.4941
  109SAPE   C2311248   5.194   1.307   2.734  0.3137  0.8183  0.7041
  109SAPE   H3R11249   5.186   1.294   2.845 -1.6193  0.4107  0.5327
  109SAPE   H3S11250   5.176   1.410   2.697 -3.6584 -0.5753 -1.4139
  109SAPE   C2411251   5.331   1.240   2.699 -0.1970  0.6181  0.0961
  109SAPE   H4R11252   5.324   1.219   2.590 -3.3760 -0.7001  0.4745
  109SAPE   H4S11253   5.326   1.144   2.755 -2.7612  0.5965 -0.0726
  109SAPE   C2511254   5.444   1.320   2.736 -0.2153  0.8114  0.2610
  109SAPE   H5R11255   5.442   1.423   2.697 -1.6569  0.9037  0.5763
  109SAPE   C2611256   5.546   1.296   2.816  0.2327 -0.5600 -0.4787
  109SAPE   H6R11257   5.626   1.371   2.824  1.1113 -1.4712 -0.6286
  109SAPE   C2711258   5.574   1.164   2.883 -0.4307 -0.4472  0.7110
  109SAPE   H7R11259   5.491   1.092   2.867  1.0410 -1.3463 -3.5688
  109SAPE   H7S11260   5.587   1.187   2.991  0.7492  0.9735  0.2984
  109SAPE   C2811261   5.707   1.099   2.850  0.0332  0.2055  0.8060
  109SAPE   H8R11262   5.762   1.138   2.763 -0.3578 -0.1301  0.4057
  109SAPE   C2911263   5.752   0.985   2.906 -0.5313 -0.4569  0.5112
  109SAPE   H9R11264   5.848   0.944   2.871 -0.5281 -0.2947  0.3255
  109SAPE  C21011265   5.665   0.908   3.005  0.1542 -0.1487 -0.3126
  109SAPE  H10R11266   5.559   0.941   3.002 -0.5279 -2.3546 -0.9315
  109SAPE  H10S11267   5.698   0.925   3.110 -0.4990  1.5522 -0.3667
  109SAPE  C21111268   5.664   0.763   2.987  0.7604 -0.2455  0.2239
  109SAPE  H11R11269   5.724   0.730   2.900  1.1946 -0.9937  0.8027
  109SAPE  C21211270   5.628   0.669   3.080  0.7272 -0.1524 -0.0563
  109SAPE  H12R11271   5.634   0.563   3.050  1.7842  0.0825 -0.7320
  109SAPE  C21311272   5.578   0.693   3.217  0.0870 -0.5598  0.4203
  109SAPE  H13R11273   5.614   0.788   3.261  3.7704 -0.6156 -2.1869
  109SAPE  H13S11274   5.625   0.625   3.290 -0.3361  0.5689  1.7635
  109SAPE  C21411275   5.427   0.696   3.225 -0.1875 -0.0711 -0.1504
  109SAPE  H14R11276   5.385   0.783   3.172 -0.7714  0.2745  0.8758
  109SAPE  C21511277   5.353   0.607   3.284  0.9498  0.2904  0.2133
  109SAPE  H15R11278   5.247   0.632   3.297  0.9312 -1.1079  3.1257
  109SAPE  C21611279   5.394   0.479   3.361  0.3876 -0.6626  0.7495
  109SAPE  H16R11280   5.504   0.468   3.373  0.4009 -2.0948 -0.5639
  109SAPE  H16S11281   5.363   0.388   3.305  1.5028 -0.4779 -0.1738
  109SAPE  C21711282   5.340   0.474   3.503 -0.2899  0.1584 -0.0414
  109SAPE  H17R11283   5.345   0.370   3.543  0.9882  0.7471  1.3819
  109SAPE  H17S11284   5.231   0.485   3.484 -0.4090 -1.5454 -0.4494
  109SAPE  C21811285   5.387   0.583   3.601 -0.3443  1.2205  0.0181
  109SAPE  H18R11286   5.307   0.590   3.678  0.6859  1.1545  1.1007
  109SAPE  H18S11287   5.398   0.676   3.541 -0.4424  1.8349  0.9449
  109SAPE  C21911288   5.526   0.550   3.655 -0.6569 -0.0268  0.1610
  109SAPE  H19R11289   5.568   0.640   3.704  0.6713  0.8023 -2.3818
  109SAPE  H19S11290   5.590   0.531   3.566 -0.3462  0.6288  0.2449
  109SAPE  C22011291   5.526   0.437   3.761  0.0442  0.0330  0.3751
  109SAPE  H20R11292   5.456   0.457   3.845 -1.4506  3.6225 -1.6384
  109SAPE  H20S11293   5.625   0.433   3.812  1.8138 -0.5971 -2.9869
  109SAPE  H20T11294   5.498   0.338   3.719 -0.0085  0.1858  0.0499
  109SAPE   C3311295   4.511   1.135   2.731 -0.1525 -0.1973  0.0905
  109SAPE   H3X11296   4.617   1.143   2.762 -0.4785 -3.0951  2.2100
  109SAPE   H3Y11297   4.470   1.031   2.726 -0.1228 -0.1664 -1.0679
  109SAPE   C3411298   4.444   1.204   2.850 -0.6002  0.1410  0.2519
  109SAPE   H4X11299   4.336   1.230   2.837  0.5463  3.9961 -2.2625
  109SAPE   H4Y11300   4.484   1.307   2.860 -0.1149 -0.3103  3.3291
  109SAPE   C3511301   4.466   1.135   2.989  0.3094 -0.0624  0.2334
  109SAPE   H5X11302   4.575   1.121   3.006  0.0173 -1.3168  1.1121
  109SAPE   H5Y11303   4.417   1.036   2.984  0.1129 -0.2636  4.7766
  109SAPE   C3611304   4.410   1.227   3.093 -0.0661  0.1667 -0.7000
  109SAPE   H6X11305   4.301   1.235   3.077 -0.2887 -1.6697 -0.2363
  109SAPE   H6Y11306   4.475   1.316   3.108  1.1757 -1.1319  1.9231
  109SAPE   C3711307   4.404   1.160   3.235  0.3522  0.1603 -0.3671
  109SAPE   H7X11308   4.507   1.161   3.277 -0.2219 -0.3960  1.0902
  109SAPE   H7Y11309   4.388   1.051   3.218  0.2770 -0.0521  0.9555
  109SAPE   C3811310   4.294   1.215   3.326 -0.3774 -0.3211 -0.3693
  109SAPE   H8X11311   4.290   1.161   3.423  0.7522  0.1653 -0.0516
  109SAPE   H8Y11312   4.193   1.191   3.286 -0.1646 -1.2561 -0.3756
  109SAPE   C3911313   4.287   1.368   3.341 -0.0550  0.2189 -0.6574
  109SAPE   H9X11314   4.270   1.409   3.240 -0.4229 -0.1780 -0.7588
  109SAPE   H9Y11315   4.388   1.404   3.369 -0.1221 -0.5531  0.6786
  109SAPE  C31011316   4.174   1.423   3.427  0.0952  0.1386  0.1684
  109SAPE  H10X11317   4.077   1.399   3.379 -0.6226  0.0038  1.6335
  109SAPE  H10Y11318   4.187   1.532   3.444 -0.5820  0.4343 -1.1984
  109SAPE  C31111319   4.165   1.348   3.564  0.2439 -0.0487  0.9205
  109SAPE  H11X11320   4.161   1.237   3.552  1.1190 -0.0549  0.6220
  109SAPE  H11Y11321   4.067   1.378   3.607 -0.5874 -1.3286 -0.0244
  109SAPE  C31211322   4.280   1.380   3.657 -0.4458 -0.0386  0.0530
  109SAPE  H12X11323   4.285   1.491   3.663  1.5390 -0.1776  1.3817
  109SAPE  H12Y11324   4.371   1.338   3.608  0.1650 -0.0702  1.2157
  109SAPE  C31311325   4.275   1.322   3.795 -0.4464 -0.0780 -0.1044
  109SAPE  H13X11326   4.248   1.216   3.779  4.0724 -1.0860 -1.6864
  109SAPE  H13Y11327   4.193   1.374   3.850  1.4419  0.3734  2.3147
  109SAPE  C31411328   4.398   1.327   3.879  0.0832  0.5452  0.6273
  109SAPE  H14X11329   4.482   1.287   3.818 -0.7856 -0.0657 -0.1785
  109SAPE  H14Y11330   4.389   1.257   3.965 -1.1100  0.3748  0.3693
  109SAPE  C31511331   4.428   1.468   3.934 -0.6156  0.1280 -0.3026
  109SAPE  H15X11332   4.444   1.544   3.854  2.6392 -0.3790 -0.1976
  109SAPE  H15Y11333   4.514   1.452   4.002 -0.6388 -1.6671 -0.6706
  109SAPE  C31611334   4.316   1.532   4.023 -0.8907  0.3430 -0.5207
  109SAPE  H16X11335   4.341   1.481   4.119 -1.0256 -0.2936 -0.8198
  109SAPE  H16Y11336   4.209   1.514   3.999 -0.9166 -1.0955  0.5583
  109SAPE  C31711337   4.338   1.679   4.030  0.5520 -1.1020 -0.0085
  109SAPE  H17X11338   4.443   1.705   4.053  0.3551 -1.8749  1.8918
  109SAPE  H17Y11339   4.287   1.711   4.124 -0.9557 -0.8025 -0.9066
  109SAPE  C31811340   4.289   1.770   3.917 -0.3866 -0.5030  0.3730
  109SAPE  H18X11341   4.190   1.733   3.885 -0.9115  0.6487  0.6536
  109SAPE  H18Y11342   4.348   1.755   3.824  0.2951  2.8907  0.2049
  109SAPE  H18Z11343   4.292   1.875   3.953  0.6946 -0.1799 -0.6271
  110SAPE     N11344   3.990   6.839   2.098  0.6372 -0.1505 -0.0830
  110SAPE   HN111345   3.953   6.901   2.024 -2.4748 -1.1545  0.5653
  110SAPE   HN211346   4.061   6.888   2.156 -0.2631  2.5804 -1.2277
  110SAPE   HN311347   4.044   6.764   2.049  0.6677  0.9181 -1.7522
  110SAPE   C1211348   3.884   6.780   2.186 -0.3560  0.1018 -0.6920
  110SAPE  H12A11349   3.879   6.832   2.283  0.2174  1.3679 -1.3278
  110SAPE  H12B11350   3.902   6.671   2.199 -1.0998  0.3119  2.4502
  110SAPE   C1111351   3.751   6.796   2.119 -0.0656  0.4112 -0.3948
  110SAPE  H11A11352   3.732   6.729   2.033 -2.9727 -0.1999  0.6467
  110SAPE  H11B11353   3.741   6.899   2.079 -2.9767 -0.7092 -2.7776
  110SAPE     P11354   3.496   6.783   2.216  0.0014 -0.0460  0.1037
  110SAPE   O1311355   3.461   6.931   2.232 -0.2029 -0.1184 -0.1295
  110SAPE   O1411356   3.442   6.720   2.093 -0.1623 -0.2977 -0.0243
  110SAPE   O1211357   3.660   6.759   2.224  0.9477  0.2620 -0.1307
  110SAPE   O1111358   3.454   6.696   2.339 -0.2870  0.7168  0.2668
  110SAPE    C111359   3.467   6.753   2.472  0.0570 -0.1342 -0.1567
  110SAPE    HA11360   3.446   6.661   2.531 -0.6028  0.6317  0.8142
  110SAPE    HB11361   3.568   6.793   2.494 -0.9364  1.1079  2.2888
  110SAPE    C211362   3.354   6.856   2.509 -0.6168 -0.7711 -0.0977
  110SAPE    HS11363   3.363   6.942   2.439  3.1242 -1.4793 -0.5966
  110SAPE   O2111364   3.368   6.902   2.647  0.4269  0.3015 -0.5983
  110SAPE   C2111365   3.449   6.999   2.668 -0.1679  0.5442 -0.0753
  110SAPE   O2211366   3.512   7.055   2.583 -0.0730 -0.2600 -0.2234
  110SAPE   C2211367   3.459   7.035   2.816  0.5664 -0.3616  0.0130
  110SAPE   H2R11368   3.560   7.081   2.820  0.9916 -0.8132 -3.7224
  110SAPE   H2S11369   3.393   7.122   2.837  2.5403  1.0866  0.3765
  110SAPE    C311370   3.218   6.795   2.503  0.0398  0.2335 -0.5431
  110SAPE    HX11371   3.136   6.869   2.517 -0.2028 -0.2149  0.4423
  110SAPE    HY11372   3.208   6.749   2.402 -0.6278  0.2846 -0.5061
  110SAPE   O3111373   3.195   6.695   2.606 -0.2157  0.1141 -0.1249
  110SAPE   C3111374   3.146   6.577   2.585  0.4292 -0.2124 -0.0285
  110SAPE   O3211375   3.109   6.528   2.477 -0.3555 -0.3019 -0.0318
  110SAPE   C3211376   3.134   6.510   2.717 -0.1260  0.6034  0.8045
  110SAPE   H2X11377   3.050   6.550   2.778  0.2076 -0.5375  2.0237
  110SAPE   H2Y11378   3.227   6.519   2.776 -0.2751  5.0790  0.5426
  110SAPE   C2311379   3.437   6.922   2.918 -0.0657  0.2343  0.3983
  110SAPE   H3R11380   3.518   6.846   2.915  0.2078  0.5585 -0.5161
  110SAPE   H3S11381   3.343   6.864   2.912 -0.0796  0.0955  1.6859
  110SAPE   C2411382   3.449   6.985   3.063  0.4854 -0.0113  0.5379
  110SAPE   H4R11383   3.383   7.075   3.066 -2.1886 -1.8780 -0.6763
  110SAPE   H4S11384   3.554   7.019   3.081  1.1899 -1.5215 -0.6114
  110SAPE   C2511385   3.402   6.890   3.168 -0.1126 -0.3321  0.0322
  110SAPE   H5R11386   3.425   6.784   3.145  1.1802  0.1788 -1.1109
  110SAPE   C2611387   3.365   6.924   3.290  0.2376  0.3897  0.0617
  110SAPE   H6R11388   3.323   6.838   3.345  0.4121 -1.1116 -2.0625
  110SAPE   C2711389   3.363   7.066   3.347  0.5930  0.8406 -0.0391
  110SAPE   H7R11390   3.372   7.149   3.274 -0.6330  4.1667  3.4222
  110SAPE   H7S11391   3.450   7.070   3.416  1.9411 -2.6360 -1.4078
  110SAPE   C2811392   3.230   7.072   3.415 -0.3671 -0.0877 -1.1349
  110SAPE   H8R11393   3.140   7.088   3.353 -0.8995 -0.5979 -0.4972
  110SAPE   C2911394   3.205   7.082   3.544 -0.0603 -0.5053 -0.7052
  110SAPE   H9R11395   3.115   7.135   3.579  0.5582  0.3820 -0.4168
  110SAPE  C21011396   3.313   7.085   3.652  1.0566 -0.1538  0.4599
  110SAPE  H10R11397   3.414   7.054   3.616  0.7744 -0.8395  0.2562
  110SAPE  H10S11398   3.287   7.019   3.737  1.0365 -1.7392 -0.7497
  110SAPE  C21111399   3.321   7.227   3.693  0.3516  0.8334 -0.4055
  110SAPE  H11R11400   3.381   7.289   3.625  1.4404  0.2436  0.0065
  110SAPE  C21211401   3.251   7.287   3.794 -0.1512  0.8766  0.6387
  110SAPE  H12R11402   3.268   7.394   3.815 -0.8414  0.4712  3.4490
  110SAPE  C21311403   3.152   7.225   3.887 -0.1116 -0.1801  0.0475
  110SAPE  H13R11404   3.164   7.115   3.894 -2.0598 -0.4535 -0.6747
  110SAPE  H13S11405   3.052   7.239   3.842  0.1113  0.8146 -0.1407
  110SAPE  C21411406   3.176   7.285   4.025  1.1365 -0.4879 -0.0069
  110SAPE  H14R11407   3.277   7.262   4.063  2.4865  1.7639 -2.0487
  110SAPE  C21511408   3.087   7.353   4.097  0.5470 -0.3457 -0.3518
  110SAPE  H15R11409   3.125   7.417   4.178 -1.4086  0.0419  0.2929
  110SAPE  C21611410   2.949   7.396   4.064  0.6164  0.1625 -0.5474
  110SAPE  H16R11411   2.937   7.422   3.956 -0.0455 -1.5811 -0.9087
  110SAPE  H16S11412   2.931   7.493   4.116 -0.4707 -1.4724  2.2293
  110SAPE  C21711413   2.839   7.295   4.111 -0.0905  0.0312 -0.1030
  110SAPE  H17R11414   2.819   7.273   4.218 -0.6290 -0.8944 -0.3883
  110SAPE  H17S11415   2.875   7.204   4.059  1.8093 -0.1785  1.5321
  110SAPE  C21811416   2.697   7.323   4.059  0.3303 -0.2235  0.0528
  110SAPE  H18R11417   2.647   7.413   4.102  0.2898 -0.2854  0.1360
  110SAPE  H18S11418   2.621   7.250   4.095 -1.7503  2.7454  1.8840
  110SAPE  C21911419   2.691   7.336   3.909 -0.3527 -0.1332 -0.4413
  110SAPE  H19R11420   2.769   7.273   3.861  0.6438 -1.9644  3.3975
  110SAPE  H19S11421   2.706   7.441   3.877  0.0351  0.0210  0.2414
  110SAPE  C22011422   2.560   7.295   3.854  0.2294  0.1545 -0.1020
  110SAPE  H20R11423   2.560   7.185   3.869 -0.2760 -0.0766 -1.6955
  110SAPE  H20S11424   2.554   7.319   3.746  1.5383 -1.4540 -0.5500
  110SAPE  H20T11425   2.477   7.345   3.909  0.6865  1.3852 -0.5051
  110SAPE   C3311426   3.088   6.358   2.707 -0.1624 -0.1485 -0.6515
  110SAPE   H3X11427   3.185   6.304   2.694 -0.5143 -0.6118 -1.4516
  110SAPE   H3Y11428   3.030   6.321   2.619  2.3191 -2.6456 -1.3442
  110SAPE   C3411429   3.006   6.308   2.828  0.0765  0.7001 -0.7461
  110SAPE   H4X11430   3.040   6.350   2.925 -2.1260 -0.3467  0.5054
  110SAPE   H4Y11431   3.009   6.197   2.829 -0.4994  0.6778  0.7781
  110SAPE   C3511432   2.857   6.332   2.806 -0.2926  0.1336 -0.2519
  110SAPE   H5X11433   2.807   6.247   2.754  0.7933 -0.9686  0.5119
  110SAPE   H5Y11434   2.852   6.420   2.738 -0.1824  0.6964  0.4644
  110SAPE   C3611435   2.780   6.368   2.930 -0.4748 -0.1818 -0.0624
  110SAPE   H6X11436   2.678   6.406   2.908  0.2767  1.3275 -1.0409
  110SAPE   H6Y11437   2.825   6.460   2.974 -1.2754  0.0961  0.1789
  110SAPE   C3711438   2.780   6.260   3.038  0.0872 -1.1666  0.2881
  110SAPE   H7X11439   2.887   6.229   3.042  0.3862 -0.0410  1.4577
  110SAPE   H7Y11440   2.707   6.182   3.006  1.5635 -2.8121  0.8699
  110SAPE   C3811441   2.763   6.308   3.189  0.2793  0.2627 -0.0601
  110SAPE   H8X11442   2.778   6.218   3.252 -0.0301  1.5822  1.9223
  110SAPE   H8Y11443   2.660   6.344   3.207  0.5159  0.7839  0.2431
  110SAPE   C3911444   2.866   6.412   3.233 -0.1537 -0.1232 -0.4787
  110SAPE   H9X11445   2.815   6.511   3.233  2.9638  1.5446  1.1822
  110SAPE   H9Y11446   2.949   6.432   3.162  0.5343  0.4053  0.4530
  110SAPE  C31011447   2.928   6.400   3.376 -0.6910  0.1458  0.4792
  110SAPE  H10X11448   2.988   6.493   3.387 -0.9499  0.3019  0.5651
  110SAPE  H10Y11449   3.001   6.316   3.382 -0.7845  0.1204  1.3131
  110SAPE  C31111450   2.822   6.381   3.490 -0.3718  0.1234  0.8425
  110SAPE  H11X11451   2.758   6.291   3.476  3.0031 -2.1829 -0.2392
  110SAPE  H11Y11452   2.753   6.468   3.479 -0.8776 -0.4804 -0.9567
  110SAPE  C31211453   2.890   6.375   3.627 -0.1529  0.5133  0.8115
  110SAPE  H12X11454   2.961   6.459   3.640 -0.0052  0.6509 -0.7542
  110SAPE  H12Y11455   2.953   6.284   3.633 -1.1505 -0.2039  0.5792
  110SAPE  C31311456   2.788   6.376   3.736  0.5819  0.5243  0.0909
  110SAPE  H13X11457   2.719   6.291   3.721  1.7041 -0.1262 -1.5723
  110SAPE  H13Y11458   2.726   6.469   3.738 -1.3273 -0.7027  4.4619
  110SAPE  C31411459   2.844   6.368   3.883  0.7047  0.2148  1.4385
  110SAPE  H14X11460   2.914   6.454   3.885  0.8669  0.0692  1.8784
  110SAPE  H14Y11461   2.900   6.272   3.887  0.0551 -0.1183  2.8625
  110SAPE  C31511462   2.732   6.395   3.988 -0.3730  0.5907 -0.0266
  110SAPE  H15X11463   2.638   6.342   3.962 -0.9834  2.0554 -0.8914
  110SAPE  H15Y11464   2.700   6.499   3.969 -0.3164  0.8287  1.1709
  110SAPE  C31611465   2.780   6.359   4.127 -0.8949 -0.1743 -0.0365
  110SAPE  H16X11466   2.882   6.402   4.130 -0.2792 -1.6350 -0.0804
  110SAPE  H16Y11467   2.791   6.250   4.142 -1.7717 -0.0770  1.4127
  110SAPE  C31711468   2.701   6.430   4.232  0.3946 -0.1365 -0.4212
  110SAPE  H17X11469   2.599   6.450   4.194  0.3367  1.4183  0.5119
  110SAPE  H17Y11470   2.742   6.530   4.257 -0.1401  0.4561 -1.8827
  110SAPE  C31811471   2.687   6.364   4.367 -0.6057 -0.2047 -0.0971
  110SAPE  H18X11472   2.639   6.264   4.353  0.9790 -0.6373 -2.9540
  110SAPE  H18Y11473   2.634   6.428   4.439 -1.2604  0.6276 -1.3007
  110SAPE  H18Z11474   2.787   6.346   4.412 -0.7908 -1.2333 -0.0855
  111SAPE     N11475   1.684   0.087   1.976  0.2416 -0.5589 -0.2304
  111SAPE   HN111476   1.783   0.081   1.947  0.9927 -0.3858  2.1394
  111SAPE   HN211477   1.634   0.005   1.934  0.3904  1.0837 -3.7693
  111SAPE   HN311478   1.642   0.171   1.932  1.5726 -0.2589 -0.9443
  111SAPE   C1211479   1.669   0.099   2.127 -0.2229  0.7138 -0.2326
  111SAPE  H12A11480   1.717   0.008   2.167  1.9038  1.2096 -1.5675
  111SAPE  H12B11481   1.565   0.103   2.166  0.1401  0.9686  0.7287
  111SAPE   C1111482   1.735   0.226   2.190  0.7679 -1.0839 -0.0923
  111SAPE  H11A11483   1.758   0.212   2.297  0.9040 -1.0953 -0.1227
  111SAPE  H11B11484   1.668   0.311   2.162  0.2467 -1.6191 -0.4943
  111SAPE     P11485   2.008   0.256   2.162 -0.5149 -0.1447 -0.1569
  111SAPE   O1311486   2.045   0.111   2.161 -0.3272  0.5150 -0.3763
  111SAPE   O1411487   2.074   0.351   2.065  0.1137  0.3896 -0.1269
  111SAPE   O1211488   1.856   0.258   2.125  0.2465  0.0455  0.3917
  111SAPE   O1111489   2.015   0.318   2.307 -0.1299  0.3788 -0.5034
  111SAPE    C111490   2.134   0.288   2.388 -0.5092  0.1930 -0.4332
  111SAPE    HA11491   2.117   0.305   2.497  1.4023  2.4874 -0.4501
  111SAPE    HB11492   2.152   0.179   2.390  0.6357  0.3502 -1.4558
  111SAPE    C211493   2.261   0.370   2.347 -0.5540 -1.0125  0.3691
  111SAPE    HS11494   2.287   0.341   2.242  0.3729 -1.1099  0.6170
  111SAPE   O2111495   2.370   0.341   2.433 -0.5195  0.2569  0.0596
  111SAPE   C2111496   2.430   0.228   2.413  0.2761  0.1064 -0.2584
  111SAPE   O2211497   2.403   0.146   2.326  0.1749  0.0127 -0.1650
  111SAPE   C2211498   2.531   0.204   2.518 -0.0615 -0.1284  0.4089
  111SAPE   H2R11499   2.635   0.205   2.479 -0.0472  0.5577  0.4690
  111SAPE   H2S11500   2.528   0.288   2.591 -0.7280 -1.7409  2.2868
  111SAPE    C311501   2.240   0.530   2.345 -0.1443 -0.4259 -0.3316
  111SAPE    HX11502   2.171   0.557   2.262 -0.1473  0.0758 -0.1681
  111SAPE    HY11503   2.333   0.581   2.312 -1.0678  0.9911 -0.8183
  111SAPE   O3111504   2.223   0.582   2.478 -0.2501  0.1198  0.5322
  111SAPE   C3111505   2.140   0.682   2.477  0.6796 -0.4342  0.5120
  111SAPE   O3211506   2.092   0.736   2.380  0.2221  0.0461  0.5715
  111SAPE   C3211507   2.122   0.737   2.623 -0.3107 -0.3210  0.3001
  111SAPE   H2X11508   2.097   0.661   2.699  1.1633 -0.2187  0.9017
  111SAPE   H2Y11509   2.050   0.822   2.626  1.0147  0.7732  2.5249
  111SAPE   C2311510   2.512   0.066   2.588 -0.5668 -0.1642 -0.5570
  111SAPE   H3R11511   2.601   0.046   2.651 -1.9969 -2.0362  0.9240
  111SAPE   H3S11512   2.505  -0.020   2.518  1.6316  0.1702 -1.2451
  111SAPE   C2411513   2.389   0.056   2.686 -0.4954  0.2666 -0.4480
  111SAPE   H4R11514   2.359  -0.049   2.705  2.3434 -0.3789  0.7145
  111SAPE   H4S11515   2.303   0.093   2.625 -2.1346 -1.7125  0.6179
  111SAPE   C2511516   2.397   0.126   2.816 -0.5287 -0.0953  0.3875
  111SAPE   H5R11517   2.343   0.221   2.828 -0.7637 -0.2279  0.3839
  111SAPE   C2611518   2.464   0.072   2.921  0.8214  0.5658  0.0303
  111SAPE   H6R11519   2.474   0.130   3.013  1.8873  4.5709 -2.4991
  111SAPE   C2711520   2.536  -0.062   2.925 -0.1206 -0.3802  0.8044
  111SAPE   H7R11521   2.612  -0.063   2.844 -0.8600  1.0300  0.0680
  111SAPE   H7S11522   2.457  -0.137   2.903 -0.6277  0.0671  1.0821
  111SAPE   C2811523   2.610  -0.097   3.051  0.6897  0.0919  1.0803
  111SAPE   H8R11524   2.720  -0.092   3.042  0.4228  1.0274 -2.4018
  111SAPE   C2911525   2.556  -0.145   3.167  0.5928  0.3376  0.5141
  111SAPE   H9R11526   2.623  -0.158   3.254  1.2560  0.1253 -0.0277
  111SAPE  C21011527   2.411  -0.166   3.207  0.0153  0.6782 -0.3632
  111SAPE  H10R11528   2.351  -0.136   3.119  1.0479  2.1690 -0.5757
  111SAPE  H10S11529   2.388  -0.090   3.285 -1.1280  0.2527 -0.2809
  111SAPE  C21111530   2.384  -0.296   3.272 -0.2995  0.3140 -0.1789
  111SAPE  H11R11531   2.363  -0.370   3.195 -1.3765 -0.6415  1.0146
  111SAPE  C21211532   2.368  -0.315   3.411  0.5791 -0.1567  0.1315
  111SAPE  H12R11533   2.357  -0.417   3.450 -0.6031  0.1597  0.6543
  111SAPE  C21311534   2.375  -0.203   3.518  0.0914  0.4022  0.9604
  111SAPE  H13R11535   2.444  -0.121   3.490 -0.7794  1.1367  0.9433
  111SAPE  H13S11536   2.411  -0.243   3.615 -0.5552 -0.9310  0.6727
  111SAPE  C21411537   2.235  -0.157   3.538  0.4956 -0.4984 -0.0071
  111SAPE  H14R11538   2.177  -0.153   3.445 -0.6062  3.0950  0.7505
  111SAPE  C21511539   2.158  -0.143   3.646 -0.0417  0.7392  0.0033
  111SAPE  H15R11540   2.052  -0.124   3.621 -0.8580 -1.1915  1.7981
  111SAPE  C21611541   2.201  -0.171   3.790  0.3962 -0.3687  0.1579
  111SAPE  H16R11542   2.310  -0.185   3.805  0.7392  0.1976 -1.6707
  111SAPE  H16S11543   2.148  -0.264   3.822  0.9813 -0.6266  0.3761
  111SAPE  C21711544   2.168  -0.059   3.888 -0.6847  0.1401 -0.2188
  111SAPE  H17R11545   2.063  -0.025   3.872 -0.3104  1.0549 -0.7143
  111SAPE  H17S11546   2.231   0.031   3.876 -1.1548  0.7462  1.6666
  111SAPE  C21811547   2.181  -0.114   4.032 -0.3643 -0.2357  1.0634
  111SAPE  H18R11548   2.285  -0.106   4.070  0.0302  0.9070 -0.2176
  111SAPE  H18S11549   2.149  -0.221   4.036  0.0805 -0.4141  0.0559
  111SAPE  C21911550   2.103  -0.038   4.131 -0.2918  0.1748 -0.4272
  111SAPE  H19R11551   2.127  -0.079   4.231  0.1131  0.1657 -0.5294
  111SAPE  H19S11552   1.992  -0.034   4.120 -0.2973  0.7500 -0.1783
  111SAPE  C22011553   2.150   0.110   4.133  0.2203  1.0254 -0.7392
  111SAPE  H20R11554   2.260   0.102   4.128  0.2895  1.9284 -0.7339
  111SAPE  H20S11555   2.130   0.159   4.231  1.2983 -0.1814  0.1063
  111SAPE  H20T11556   2.112   0.174   4.051  0.0922  2.0143  0.0793
  111SAPE   C3311557   2.264   0.797   2.660 -0.4820 -0.3074 -1.2441
  111SAPE   H3X11558   2.302   0.857   2.575  1.5266  0.3405  0.0995
  111SAPE   H3Y11559   2.343   0.720   2.675  0.2961  0.8679  0.7951
  111SAPE   C3411560   2.268   0.882   2.783  0.2384 -0.2637 -0.1221
  111SAPE   H4X11561   2.198   0.969   2.788 -1.0406 -1.3122  0.6886
  111SAPE   H4Y11562   2.371   0.923   2.783  0.7999 -1.5879 -1.9336
  111SAPE   C3511563   2.226   0.803   2.911  0.0906  1.4441 -0.9717
  111SAPE   H5X11564   2.123   0.762   2.908  0.9443 -0.8713  0.1833
  111SAPE   H5Y11565   2.219   0.870   2.999  1.6862  1.0462 -0.5294
  111SAPE   C3611566   2.332   0.693   2.949  0.2134  0.5388 -0.0681
  111SAPE   H6X11567   2.429   0.738   2.918  0.6600 -0.4344 -0.1059
  111SAPE   H6Y11568   2.307   0.607   2.883  0.2692  0.9242 -0.5995
  111SAPE   C3711569   2.319   0.626   3.080  0.1916  0.6975 -0.9885
  111SAPE   H7X11570   2.370   0.695   3.150 -0.1380 -0.2703  0.2313
  111SAPE   H7Y11571   2.378   0.532   3.091  0.0286  0.4921 -1.8130
  111SAPE   C3811572   2.177   0.603   3.139 -0.0071  0.0584  0.1043
  111SAPE   H8X11573   2.125   0.525   3.080 -1.7714 -0.3901  2.1720
  111SAPE   H8Y11574   2.117   0.696   3.125  1.0513  0.4041 -2.3698
  111SAPE   C3911575   2.174   0.571   3.284 -0.1698 -0.8622  0.4343
  111SAPE   H9X11576   2.075   0.530   3.314 -0.0847 -0.6401  1.0229
  111SAPE   H9Y11577   2.207   0.653   3.351 -0.0325 -1.7692  1.4835
  111SAPE  C31011578   2.264   0.452   3.324  0.9200 -0.9648  0.5888
  111SAPE  H10X11579   2.370   0.480   3.310  0.1462  1.0067 -1.9859
  111SAPE  H10Y11580   2.240   0.370   3.252 -2.0017 -1.1364  1.6984
  111SAPE  C31111581   2.248   0.398   3.472 -0.3655  0.1192 -0.5002
  111SAPE  H11X11582   2.148   0.351   3.485 -0.7534  0.2674 -2.7146
  111SAPE  H11Y11583   2.263   0.487   3.536  2.5674  0.4973 -1.6594
  111SAPE  C31211584   2.350   0.293   3.517  0.0999  0.4936  0.0592
  111SAPE  H12X11585   2.451   0.338   3.510  0.4228 -0.2662 -0.1979
  111SAPE  H12Y11586   2.340   0.209   3.445  0.2731 -0.1898  0.8200
  111SAPE  C31311587   2.325   0.235   3.662 -0.4223 -0.6910 -0.2860
  111SAPE  H13X11588   2.399   0.152   3.666 -0.8464 -1.0584  0.0178
  111SAPE  H13Y11589   2.221   0.194   3.658 -0.7646 -0.2011  2.3045
  111SAPE  C31411590   2.337   0.345   3.764 -0.7752  0.1254 -0.6148
  111SAPE  H14X11591   2.300   0.298   3.858  2.0521 -0.0235  0.4709
  111SAPE  H14Y11592   2.282   0.439   3.744 -0.9188  0.1155 -0.2750
  111SAPE  C31511593   2.479   0.388   3.792 -0.2519 -0.6451  0.3102
  111SAPE  H15X11594   2.548   0.372   3.707  0.9143 -0.4214  1.1966
  111SAPE  H15Y11595   2.524   0.332   3.877  1.7747 -2.5619 -1.9518
  111SAPE  C31611596   2.483   0.544   3.825  0.1936  1.2327 -0.1818
  111SAPE  H16X11597   2.410   0.590   3.755  1.3060  3.3667  0.0096
  111SAPE  H16Y11598   2.582   0.576   3.784  1.1858 -0.7088  0.6423
  111SAPE  C31711599   2.447   0.585   3.963 -0.3879 -0.7010  0.4318
  111SAPE  H17X11600   2.494   0.684   3.978 -2.6203  0.6996 -1.4031
  111SAPE  H17Y11601   2.498   0.513   4.030 -1.0905 -1.5213  0.1008
  111SAPE  C31811602   2.299   0.601   4.003  0.1650  0.2960 -0.1644
  111SAPE  H18X11603   2.248   0.503   3.994  1.5566 -0.3345 -1.4150
  111SAPE  H18Y11604   2.242   0.668   3.935 -2.0835 -1.2265  0.1899
  111SAPE  H18Z11605   2.284   0.624   4.110 -0.2296 -0.7452  0.0066
  112SAPE     N11606   6.448   5.023   2.201 -0.3143  0.9080 -0.4685
  112SAPE   HN111607   6.494   4.995   2.112  0.3179  0.7081 -0.0837
  112SAPE   HN211608   6.398   4.942   2.243 -2.4642  2.7944  0.7416
  112SAPE   HN311609   6.375   5.092   2.174  0.5182  2.2110  0.5904
  112SAPE   C1211610   6.537   5.113   2.283  0.2748 -0.1036 -0.4361
  112SAPE  H12A11611   6.567   5.200   2.221  0.8061 -0.1278 -0.2190
  112SAPE  H12B11612   6.627   5.050   2.302 -1.6436 -2.8517 -0.0932
  112SAPE   C1111613   6.460   5.172   2.403 -0.2903 -0.3615  0.3684
  112SAPE  H11A11614   6.528   5.213   2.481 -1.4560  1.2882  0.5432
  112SAPE  H11B11615   6.410   5.092   2.461 -1.6388  0.8658  0.9333
  112SAPE     P11616   6.339   5.410   2.395  0.2969  0.2619 -0.0890
  112SAPE   O1311617   6.443   5.491   2.327 -0.0196 -0.1122 -0.3944
  112SAPE   O1411618   6.196   5.444   2.363  0.0181 -0.3262 -0.2781
  112SAPE   O1211619   6.360   5.264   2.355  0.4603  0.4150  0.4945
  112SAPE   O1111620   6.362   5.400   2.552 -0.0499  0.3882 -0.3542
  112SAPE    C111621   6.473   5.475   2.610 -0.0295  0.0005 -0.1138
  112SAPE    HA11622   6.573   5.436   2.582  0.3220  0.4284  0.5383
  112SAPE    HB11623   6.464   5.585   2.594 -1.4856  0.0227  0.7994
  112SAPE    C211624   6.461   5.457   2.764 -0.0413 -0.1334  0.0563
  112SAPE    HS11625   6.361   5.503   2.782 -0.5209 -1.1951  0.1025
  112SAPE   O2111626   6.569   5.527   2.821  0.1101  0.4775  0.0753
  112SAPE   C2111627   6.550   5.637   2.888  0.1582 -0.6624  0.2837
  112SAPE   O2211628   6.446   5.698   2.892  0.7565  0.2325  0.8762
  112SAPE   C2211629   6.677   5.686   2.958 -0.4797 -0.6773 -0.2548
  112SAPE   H2R11630   6.737   5.593   2.964  1.5123  0.6594  1.3327
  112SAPE   H2S11631   6.730   5.760   2.894  0.9059  1.0677  2.7968
  112SAPE    C311632   6.463   5.307   2.807  0.0868  0.6207 -0.1192
  112SAPE    HX11633   6.567   5.274   2.788  0.1149 -0.0509  1.1036
  112SAPE    HY11634   6.396   5.253   2.737  1.1566 -0.2156 -0.5197
  112SAPE   O3111635   6.410   5.293   2.939 -0.1302  0.2527 -0.0123
  112SAPE   C3111636   6.489   5.317   3.044  1.0092 -0.8567  0.1281
  112SAPE   O3211637   6.607   5.343   3.039 -0.4981 -0.0283 -0.3428
  112SAPE   C3211638   6.400   5.331   3.162 -0.5133  0.0061  0.5592
  112SAPE   H2X11639   6.373   5.227   3.192 -0.6115  0.1536  0.9779
  112SAPE   H2Y11640   6.315   5.395   3.131 -1.5590 -1.1609  0.9646
  112SAPE   C2311641   6.638   5.756   3.093  0.4159 -0.2788 -0.2435
  112SAPE   H3R11642   6.566   5.699   3.157  0.5610 -1.4366 -1.1014
  112SAPE   H3S11643   6.594   5.855   3.068 -1.6543 -1.0145  0.3502
  112SAPE   C2411644   6.759   5.792   3.179 -0.1124 -0.1844  0.2316
  112SAPE   H4R11645   6.738   5.856   3.267  0.7530  0.3025  0.0951
  112SAPE   H4S11646   6.846   5.847   3.136  2.2415 -2.0703  2.3997
  112SAPE   C2511647   6.801   5.662   3.234  0.5206 -0.4858 -0.5287
  112SAPE   H5R11648   6.824   5.580   3.164  0.9283  0.4414 -1.4895
  112SAPE   C2611649   6.846   5.638   3.360 -0.0865  0.6756  0.3158
  112SAPE   H6R11650   6.870   5.534   3.388  0.9330  1.0933  1.0273
  112SAPE   C2711651   6.868   5.739   3.465 -0.1501  0.2640 -0.2990
  112SAPE   H7R11652   6.816   5.835   3.443 -0.2121  0.8256  2.1588
  112SAPE   H7S11653   6.974   5.774   3.467 -0.0401 -0.0942  0.2164
  112SAPE   C2811654   6.830   5.682   3.604  0.0504  0.8437  0.2807
  112SAPE   H8R11655   6.722   5.684   3.621 -0.0779 -0.0778 -0.3941
  112SAPE   C2911656   6.916   5.622   3.690  0.4741  0.5550  0.5767
  112SAPE   H9R11657   6.886   5.584   3.788 -2.3053  1.5832  0.1532
  112SAPE  C21011658   7.065   5.608   3.661  1.7882 -0.3524 -0.4748
  112SAPE  H10R11659   7.125   5.702   3.674  0.5212  0.1945  1.5993
  112SAPE  H10S11660   7.074   5.581   3.553  0.2695 -1.5311 -0.3135
  112SAPE  C21111661   7.129   5.508   3.750 -0.0214 -0.1255  0.3958
  112SAPE  H11R11662   7.126   5.406   3.709 -0.4957  0.2686 -0.5461
  112SAPE  C21211663   7.187   5.517   3.870  0.1237  0.6980  0.4108
  112SAPE  H12R11664   7.227   5.430   3.924  0.3565  0.6716  0.1961
  112SAPE  C21311665   7.203   5.640   3.945 -0.4621 -0.4246 -0.2818
  112SAPE  H13R11666   7.133   5.720   3.911 -1.2122 -1.0037 -0.1039
  112SAPE  H13S11667   7.303   5.686   3.931 -0.3132 -0.7152 -0.1677
  112SAPE  C21411668   7.177   5.627   4.097 -0.9041  0.3634  0.2542
  112SAPE  H14R11669   7.134   5.531   4.129  0.3777 -0.5464 -0.6580
  112SAPE  C21511670   7.211   5.710   4.196  0.4689  0.2108 -0.0320
  112SAPE  H15R11671   7.190   5.669   4.296  1.5414 -0.8885 -0.2424
  112SAPE  C21611672   7.277   5.847   4.173  0.0056 -0.4375  0.2364
  112SAPE  H16R11673   7.211   5.935   4.186  0.9081  0.3246 -0.2648
  112SAPE  H16S11674   7.282   5.869   4.064  2.6081  0.4745  0.5009
  112SAPE  C21711675   7.404   5.885   4.256  0.1973 -0.1899 -0.8399
  112SAPE  H17R11676   7.385   5.859   4.362 -0.8542  1.7644 -0.5374
  112SAPE  H17S11677   7.426   5.994   4.250  1.4654 -0.3515  0.5610
  112SAPE  C21811678   7.531   5.805   4.207 -0.4165  0.1175  0.5422
  112SAPE  H18R11679   7.534   5.806   4.096  0.5268  1.4860  0.5707
  112SAPE  H18S11680   7.517   5.697   4.231 -0.3357 -0.0775 -0.2959
  112SAPE  C21911681   7.660   5.859   4.274  0.6787  0.0025  0.4338
  112SAPE  H19R11682   7.662   5.833   4.382 -1.2265 -1.7442  0.0825
  112SAPE  H19S11683   7.649   5.969   4.268  0.4113  0.0279  1.3836
  112SAPE  C22011684   7.782   5.827   4.189 -0.1609 -0.0296 -0.3949
  112SAPE  H20R11685   7.740   5.827   4.086 -1.2972  0.2334  0.0580
  112SAPE  H20S11686   7.820   5.725   4.209  0.3963  0.3651  0.5470
  112SAPE  H20T11687   7.858   5.901   4.221  1.2919 -2.5482  2.1895
  112SAPE   C3311688   6.483   5.392   3.280  0.1839  0.2122  0.7141
  112SAPE   H3X11689   6.530   5.490   3.258  0.5246  0.3876  2.1805
  112SAPE   H3Y11690   6.564   5.327   3.318 -1.8187 -2.6347  0.2267
  112SAPE   C3411691   6.392   5.409   3.404  0.5222 -0.2110  0.1258
  112SAPE   H4X11692   6.389   5.313   3.460 -1.6946 -1.5131 -2.1340
  112SAPE   H4Y11693   6.293   5.427   3.356  0.0688 -1.4254  0.6047
  112SAPE   C3511694   6.432   5.536   3.488  0.5713  0.2474  0.4039
  112SAPE   H5X11695   6.428   5.625   3.421 -2.8312 -0.1097  0.0457
  112SAPE   H5Y11696   6.535   5.521   3.526  1.2041  4.1492  0.4619
  112SAPE   C3611697   6.338   5.568   3.610  0.8591 -0.8819  0.4295
  112SAPE   H6X11698   6.231   5.573   3.580  0.7139 -1.0622  0.9031
  112SAPE   H6Y11699   6.365   5.674   3.633  0.7439  0.3149 -4.3844
  112SAPE   C3711700   6.360   5.483   3.732 -0.1467  0.3951  0.1920
  112SAPE   H7X11701   6.466   5.477   3.766 -0.5408 -3.2035  0.9780
  112SAPE   H7Y11702   6.314   5.382   3.735 -0.1192  0.4240  1.9245
  112SAPE   C3811703   6.300   5.542   3.864 -0.2914  0.1261  0.6951
  112SAPE   H8X11704   6.191   5.559   3.847 -0.3697 -2.1176 -1.3561
  112SAPE   H8Y11705   6.352   5.639   3.877 -1.1330  0.5389  1.0399
  112SAPE   C3911706   6.332   5.433   3.974 -0.5781 -0.7752  0.4343
  112SAPE   H9X11707   6.439   5.402   3.978  0.3474  2.2958  0.6223
  112SAPE   H9Y11708   6.269   5.341   3.969 -1.3985 -0.1118 -2.1445
  112SAPE  C31011709   6.305   5.503   4.115  0.1268  0.2237  0.0885
  112SAPE  H10X11710   6.196   5.494   4.138  0.1254  0.6054  0.2291
  112SAPE  H10Y11711   6.327   5.611   4.104  2.3519 -0.2022  0.1131
  112SAPE  C31111712   6.381   5.448   4.235 -0.5112  0.1454 -0.3557
  112SAPE  H11X11713   6.486   5.482   4.236 -0.8693  1.4193 -2.6132
  112SAPE  H11Y11714   6.379   5.337   4.229 -1.3058  0.1004  0.5937
  112SAPE  C31211715   6.330   5.489   4.380 -0.5093  0.2922 -0.5940
  112SAPE  H12X11716   6.370   5.438   4.471  1.2893  0.3752 -1.3265
  112SAPE  H12Y11717   6.222   5.465   4.372 -0.3713 -0.5659  0.0361
  112SAPE  C31311718   6.331   5.642   4.398  0.0761  0.2646 -0.0388
  112SAPE  H13X11719   6.281   5.654   4.497  0.1134  0.5711 -0.0588
  112SAPE  H13Y11720   6.261   5.680   4.322 -0.0348 -0.5824 -0.3605
  112SAPE  C31411721   6.466   5.705   4.397  0.3784  0.0818  0.0698
  112SAPE  H14X11722   6.506   5.725   4.296  1.9657 -1.2177  0.4051
  112SAPE  H14Y11723   6.538   5.633   4.441  2.3078  1.0536 -1.4325
  112SAPE  C31511724   6.480   5.827   4.488  0.2865  0.4666 -0.0292
  112SAPE  H15X11725   6.588   5.840   4.511 -0.2270  0.0962  2.7376
  112SAPE  H15Y11726   6.440   5.808   4.590 -0.9792  2.5816 -0.0930
  112SAPE  C31611727   6.438   5.963   4.423  0.3421  0.5151 -0.3338
  112SAPE  H16X11728   6.329   5.949   4.407  0.4819 -0.3874 -0.5027
  112SAPE  H16Y11729   6.500   5.971   4.331  2.1106  1.7062  0.9104
  112SAPE  C31711730   6.460   6.088   4.511 -0.8918 -0.0900 -0.7081
  112SAPE  H17X11731   6.567   6.090   4.543 -1.0601 -2.9994  0.2040
  112SAPE  H17Y11732   6.409   6.078   4.609  2.4385 -3.4833  0.8228
  112SAPE  C31811733   6.410   6.220   4.445 -0.5195 -0.1081 -0.1643
  112SAPE  H18X11734   6.438   6.209   4.338  0.4630  5.2060 -0.5543
  112SAPE  H18Y11735   6.466   6.312   4.471 -1.4683  0.0588  1.3187
  112SAPE  H18Z11736   6.303   6.238   4.468 -0.4982  2.4549 -1.8952
  113SAPE     N11737   0.151   4.361   2.109  0.5240  0.3951 -0.1464
  113SAPE   HN111738   0.187   4.302   2.032  1.3108  1.4368 -0.5896
  113SAPE   HN211739   0.098   4.304   2.178 -0.2785  0.6815 -0.5116
  113SAPE   HN311740   0.088   4.435   2.070  0.8279  0.4862 -0.4630
  113SAPE   C1211741   0.269   4.429   2.173 -0.1354 -0.1338 -0.4590
  113SAPE  H12A11742   0.335   4.473   2.095  0.2469  0.1276  0.0050
  113SAPE  H12B11743   0.343   4.363   2.225  1.5582  3.1203  1.3852
  113SAPE   C1111744   0.219   4.538   2.268 -0.9377 -0.0704  0.0910
  113SAPE  H11A11745   0.309   4.598   2.294  0.0288 -0.9533 -1.1584
  113SAPE  H11B11746   0.176   4.495   2.361  0.6780  0.0187  0.8885
  113SAPE     P11747   0.168   4.754   2.129  0.3066 -0.2279 -0.4364
  113SAPE   O1311748   0.264   4.721   2.026 -0.2201  0.3240 -0.0405
  113SAPE   O1411749   0.046   4.829   2.083 -0.8675  0.2925 -0.7073
  113SAPE   O1211750   0.126   4.618   2.207 -0.1088 -0.0306 -0.0229
  113SAPE   O1111751   0.252   4.831   2.244 -0.0060 -0.7131  0.6617
  113SAPE    C111752   0.185   4.902   2.348  0.2595 -0.3434 -0.5314
  113SAPE    HA11753   0.155   5.001   2.307  1.8957  0.4685  0.1947
  113SAPE    HB11754   0.086   4.859   2.374  0.8791 -2.3461 -1.4158
  113SAPE    C211755   0.257   4.911   2.482  0.2460  0.5696  0.1653
  113SAPE    HS11756   0.199   4.986   2.541 -3.0448 -1.0195 -0.9187
  113SAPE   O2111757   0.398   4.946   2.454  0.0954  0.4083 -0.2442
  113SAPE   C2111758   0.450   5.019   2.555  0.1859 -0.8925  0.3772
  113SAPE   O2211759   0.394   5.046   2.659 -0.5850  0.2262 -0.2147
  113SAPE   C2211760   0.597   5.049   2.522 -0.3686  0.2685 -0.1244
  113SAPE   H2R11761   0.646   4.950   2.516 -1.9969 -0.6143  0.6931
  113SAPE   H2S11762   0.594   5.098   2.423 -3.0713 -1.0713 -0.7528
  113SAPE    C311763   0.256   4.772   2.562  0.2462 -1.0963 -0.6156
  113SAPE    HX11764   0.343   4.710   2.529 -0.5316 -2.2300 -0.5525
  113SAPE    HY11765   0.169   4.718   2.520 -0.3613 -0.7671  0.2110
  113SAPE   O3111766   0.260   4.788   2.706 -0.2108 -0.0147  0.2084
  113SAPE   C3111767   0.373   4.748   2.771 -0.6166  0.0735 -0.1854
  113SAPE   O3211768   0.476   4.711   2.721 -0.8962 -0.0571 -0.4054
  113SAPE   C3211769   0.361   4.796   2.911 -0.8583 -0.0622 -0.2480
  113SAPE   H2X11770   0.303   4.891   2.916 -1.2052 -0.1668 -2.2076
  113SAPE   H2Y11771   0.465   4.810   2.949 -0.1132 -2.7156 -1.2067
  113SAPE   C2311772   0.662   5.152   2.620 -0.1191 -0.0856  0.7573
  113SAPE   H3R11773   0.773   5.154   2.612 -0.0964 -1.6262  0.4991
  113SAPE   H3S11774   0.635   5.114   2.721 -2.0342 -0.5869  0.0787
  113SAPE   C2411775   0.604   5.295   2.600 -0.0235  0.4071 -0.7138
  113SAPE   H4R11776   0.493   5.293   2.611 -0.1803  0.7383 -2.1212
  113SAPE   H4S11777   0.608   5.332   2.495 -0.6852  1.7386 -0.2864
  113SAPE   C2511778   0.671   5.386   2.703  0.5870  0.2329 -0.3742
  113SAPE   H5R11779   0.763   5.426   2.659  2.6802 -1.0095  2.7611
  113SAPE   C2611780   0.645   5.399   2.838 -0.8250  1.1143  0.3303
  113SAPE   H6R11781   0.720   5.454   2.898  0.3262 -1.4416  1.2963
  113SAPE   C2711782   0.535   5.324   2.908  0.1889  0.2383  0.2729
  113SAPE   H7R11783   0.569   5.220   2.928 -1.3614 -0.3793 -0.2150
  113SAPE   H7S11784   0.459   5.309   2.828  1.2288  0.1501 -0.7055
  113SAPE   C2811785   0.464   5.394   3.029 -0.1416  0.4902 -0.0013
  113SAPE   H8R11786   0.420   5.488   2.993  1.0469  1.0179 -0.0966
  113SAPE   C2911787   0.445   5.346   3.153  0.2489  0.1136  0.7087
  113SAPE   H9R11788   0.395   5.401   3.235 -1.2403 -1.2732  0.7467
  113SAPE  C21011789   0.490   5.212   3.202 -0.0880 -0.5119  0.1487
  113SAPE  H10R11790   0.501   5.219   3.312  2.5596 -1.1504 -0.0384
  113SAPE  H10S11791   0.586   5.183   3.154  0.6638  0.1942  1.2018
  113SAPE  C21111792   0.398   5.095   3.176  0.2325  0.4334  0.3836
  113SAPE  H11R11793   0.322   5.102   3.097  0.6248  1.1247  0.0630
  113SAPE  C21211794   0.392   4.983   3.251  0.5927 -0.3395  0.9434
  113SAPE  H12R11795   0.317   4.910   3.217 -0.8646  1.5471  0.0417
  113SAPE  C21311796   0.470   4.935   3.375 -0.8893  0.4949  0.2331
  113SAPE  H13R11797   0.531   5.019   3.412  2.5190 -0.9511 -1.8425
  113SAPE  H13S11798   0.548   4.863   3.343 -0.2649  1.9191 -1.4920
  113SAPE  C21411799   0.380   4.870   3.475 -0.5649  0.2460 -0.7472
  113SAPE  H14R11800   0.277   4.850   3.442 -1.3858  1.2912  1.1358
  113SAPE  C21511801   0.414   4.837   3.599  0.4102 -0.0478  0.3123
  113SAPE  H15R11802   0.344   4.780   3.662 -0.0372 -0.0385 -0.1776
  113SAPE  C21611803   0.549   4.859   3.666 -0.2698 -0.3129 -0.4622
  113SAPE  H16R11804   0.550   4.934   3.748 -1.5395 -0.6804 -0.1045
  113SAPE  H16S11805   0.628   4.884   3.592 -1.0201  0.9593 -0.8410
  113SAPE  C21711806   0.614   4.740   3.748  0.2602  0.0638  0.1587
  113SAPE  H17R11807   0.704   4.776   3.803  1.7752 -0.7214 -1.7554
  113SAPE  H17S11808   0.638   4.661   3.674 -1.5061 -1.2878  1.0101
  113SAPE  C21811809   0.524   4.681   3.864 -0.2157  0.0171 -0.7081
  113SAPE  H18R11810   0.439   4.636   3.808 -0.5438 -1.3699  0.8578
  113SAPE  H18S11811   0.496   4.756   3.940  1.2510 -1.3146  1.2147
  113SAPE  C21911812   0.591   4.559   3.919 -0.2816 -0.2760  0.0085
  113SAPE  H19R11813   0.537   4.520   4.008  0.3968 -0.3476  0.3926
  113SAPE  H19S11814   0.691   4.580   3.963 -0.4449 -4.0672  2.4142
  113SAPE  C22011815   0.617   4.443   3.818 -0.9172 -0.2788 -0.4398
  113SAPE  H20R11816   0.524   4.397   3.778 -0.9599 -2.1633  1.7198
  113SAPE  H20S11817   0.677   4.364   3.869  1.6359  0.2869 -2.4319
  113SAPE  H20T11818   0.676   4.473   3.729 -1.3481  1.0695 -0.2783
  113SAPE   C3311819   0.283   4.685   2.995 -0.5670 -0.5818  0.1496
  113SAPE   H3X11820   0.178   4.680   2.958 -1.1729  4.2591  0.8874
  113SAPE   H3Y11821   0.268   4.724   3.098 -0.6217 -0.1040 -0.0366
  113SAPE   C3411822   0.360   4.546   3.015 -0.0733  0.6080 -0.2459
  113SAPE   H4X11823   0.367   4.477   2.928  2.1318 -0.0717  0.4192
  113SAPE   H4Y11824   0.300   4.501   3.096 -2.1354  1.9151 -1.0151
  113SAPE   C3511825   0.501   4.565   3.080  0.4760 -0.1057  0.0371
  113SAPE   H5X11826   0.473   4.645   3.151  0.7335 -1.2636  1.4786
  113SAPE   H5Y11827   0.564   4.615   3.004 -0.8101 -0.0459 -1.0176
  113SAPE   C3611828   0.559   4.436   3.138 -0.7483  0.9260 -0.0343
  113SAPE   H6X11829   0.495   4.381   3.210 -0.3490 -0.5733 -0.8131
  113SAPE   H6Y11830   0.651   4.466   3.192  0.0311 -2.4910  0.6096
  113SAPE   C3711831   0.613   4.353   3.026 -0.0713 -0.0701 -0.0753
  113SAPE   H7X11832   0.663   4.424   2.956  2.6629  0.8727  2.7302
  113SAPE   H7Y11833   0.524   4.317   2.970  0.3004  0.1664 -0.8239
  113SAPE   C3811834   0.720   4.244   3.050  0.2088 -0.4289  0.0065
  113SAPE   H8X11835   0.744   4.187   2.958 -1.5477 -1.9987  0.4820
  113SAPE   H8Y11836   0.815   4.293   3.081 -0.3978  0.5807  0.2830
  113SAPE   C3911837   0.694   4.149   3.168  0.6197 -0.0542 -0.5457
  113SAPE   H9X11838   0.720   4.213   3.255  2.2856  0.1401 -1.1691
  113SAPE   H9Y11839   0.768   4.066   3.163 -0.6501 -1.1532 -1.3805
  113SAPE  C31011840   0.546   4.086   3.168 -0.8800  0.0366  0.2261
  113SAPE  H10X11841   0.543   4.020   3.078 -0.5247  2.0371 -1.3084
  113SAPE  H10Y11842   0.472   4.166   3.145  0.0949  1.2850  1.3407
  113SAPE  C31111843   0.522   4.036   3.309 -0.7056 -0.5346 -0.1738
  113SAPE  H11X11844   0.605   3.978   3.355 -0.3034 -1.0145 -1.4718
  113SAPE  H11Y11845   0.444   3.958   3.297 -0.2385 -1.1120  0.5072
  113SAPE  C31211846   0.473   4.148   3.406  0.3229  0.0068 -0.4802
  113SAPE  H12X11847   0.494   4.243   3.353  0.4084 -0.7762 -1.8544
  113SAPE  H12Y11848   0.535   4.150   3.499 -0.7695  2.8685  0.2339
  113SAPE  C31311849   0.325   4.145   3.444 -0.1485 -0.2048  0.3490
  113SAPE  H13X11850   0.303   4.044   3.487  1.9429 -0.0474  1.8738
  113SAPE  H13Y11851   0.272   4.148   3.347  2.2445  0.9696 -0.9709
  113SAPE  C31411852   0.277   4.261   3.532 -0.4037  0.5795  0.5623
  113SAPE  H14X11853   0.330   4.259   3.629  1.6330 -2.8001 -0.5311
  113SAPE  H14Y11854   0.171   4.239   3.559 -0.7262 -0.3156 -1.3261
  113SAPE  C31511855   0.293   4.401   3.474  0.3854  0.4757  0.3699
  113SAPE  H15X11856   0.257   4.411   3.369  0.5914  0.8711  0.3353
  113SAPE  H15Y11857   0.402   4.422   3.470  0.6225 -0.9829 -2.5071
  113SAPE  C31611858   0.219   4.511   3.555  0.8283  0.1975  0.4206
  113SAPE  H16X11859   0.109   4.506   3.541  0.7578  1.0576  0.6654
  113SAPE  H16Y11860   0.251   4.615   3.534 -1.6406  0.9684  0.2739
  113SAPE  C31711861   0.224   4.481   3.711 -0.2797  0.6602 -0.6420
  113SAPE  H17X11862   0.329   4.475   3.748 -0.0747  0.3166 -1.2710
  113SAPE  H17Y11863   0.168   4.389   3.738  0.1979  0.4624 -0.3159
  113SAPE  C31811864   0.147   4.591   3.787 -0.4391  0.4160 -0.2196
  113SAPE  H18X11865   0.144   4.553   3.891  3.7158  1.8183  0.5413
  113SAPE  H18Y11866   0.047   4.605   3.741 -1.2942 -2.1659  0.7853
  113SAPE  H18Z11867   0.201   4.689   3.788  0.8840 -0.2847 -1.9404
  114SAPE     N11868   2.941   6.654   2.028  0.4169 -0.6457 -0.0194
  114SAPE   HN111869   3.026   6.671   1.972 -0.4650 -2.3430 -1.9205
  114SAPE   HN211870   2.915   6.554   2.018  1.0600 -0.9179  0.9355
  114SAPE   HN311871   2.859   6.710   1.998  0.0877 -2.6011 -2.9973
  114SAPE   C1211872   2.979   6.685   2.168  0.1748  0.0559  0.3265
  114SAPE  H12A11873   3.010   6.792   2.175  1.4711 -0.2486 -0.5399
  114SAPE  H12B11874   3.062   6.615   2.193 -1.1877 -1.4073  0.8798
  114SAPE   C1111875   2.858   6.658   2.266 -0.1364  0.6572  0.0372
  114SAPE  H11A11876   2.881   6.685   2.371 -0.0752 -1.4844  0.5989
  114SAPE  H11B11877   2.839   6.549   2.269  0.8418  0.4478 -0.9220
  114SAPE     P11878   2.603   6.704   2.258 -0.0505  0.1552 -0.1131
  114SAPE   O1311879   2.542   6.838   2.295  0.0672  0.3322 -0.4180
  114SAPE   O1411880   2.550   6.636   2.134 -0.1708 -0.0309 -0.0812
  114SAPE   O1211881   2.750   6.737   2.229  0.2450  0.1083  0.1500
  114SAPE   O1111882   2.607   6.605   2.388  0.3731 -0.2389  0.0869
  114SAPE    C111883   2.486   6.523   2.403  0.2260 -0.4709 -0.4710
  114SAPE    HA11884   2.474   6.460   2.312  0.2379 -0.7817 -0.2593
  114SAPE    HB11885   2.493   6.450   2.486  0.4963  1.0126  0.8470
  114SAPE    C211886   2.346   6.586   2.433 -0.1018 -0.0045 -0.1280
  114SAPE    HS11887   2.305   6.624   2.337  0.4084  0.4239 -0.1795
  114SAPE   O2111888   2.370   6.692   2.527  0.2702 -0.6087  0.4456
  114SAPE   C2111889   2.283   6.790   2.515  0.1785  0.2387 -0.9449
  114SAPE   O2211890   2.180   6.785   2.451 -0.1564 -0.1625 -0.1899
  114SAPE   C2211891   2.321   6.923   2.589  0.3632  0.2494  0.6893
  114SAPE   H2R11892   2.346   6.984   2.501  1.8183 -1.7515 -0.3326
  114SAPE   H2S11893   2.222   6.955   2.629  1.7971  3.3087  1.9626
  114SAPE    C311894   2.247   6.494   2.488  0.0131 -0.2414 -0.2101
  114SAPE    HX11895   2.216   6.420   2.412  0.8629  0.4694 -1.2571
  114SAPE    HY11896   2.151   6.548   2.503  0.1633 -0.6852  2.7162
  114SAPE   O3111897   2.289   6.428   2.604  0.1178  0.3842  0.0394
  114SAPE   C3111898   2.198   6.380   2.687 -0.1471  0.3465 -0.2839
  114SAPE   O3211899   2.078   6.394   2.680  0.6693 -0.3348 -0.5721
  114SAPE   C3211900   2.271   6.309   2.799  0.0904 -0.5436  0.2193
  114SAPE   H2X11901   2.378   6.321   2.774  0.7876 -3.5662  1.5453
  114SAPE   H2Y11902   2.236   6.204   2.810  0.2923 -0.5124  1.1909
  114SAPE   C2311903   2.437   6.901   2.690  0.6215 -0.2274  0.1583
  114SAPE   H3R11904   2.466   7.003   2.724  0.5912 -0.5074  1.0390
  114SAPE   H3S11905   2.521   6.855   2.634  0.8670  0.4474 -0.0274
  114SAPE   C2411906   2.403   6.817   2.820 -0.3467  0.4555  0.1409
  114SAPE   H4R11907   2.501   6.795   2.868 -1.1921 -1.4050  1.0725
  114SAPE   H4S11908   2.349   6.722   2.798 -0.9688  0.9551 -0.4811
  114SAPE   C2511909   2.330   6.902   2.919  0.1031  0.1328 -0.6930
  114SAPE   H5R11910   2.390   6.986   2.958  2.7070 -1.6396 -0.7866
  114SAPE   C2611911   2.202   6.881   2.960  0.5215  0.0861  0.0982
  114SAPE   H6R11912   2.163   6.961   3.024 -1.2434 -0.5343 -0.1908
  114SAPE   C2711913   2.104   6.776   2.916 -0.2376  0.4295 -0.0988
  114SAPE   H7R11914   2.157   6.680   2.933 -0.6089  0.0840 -0.8867
  114SAPE   H7S11915   2.076   6.774   2.808  3.4348  0.9553 -1.1649
  114SAPE   C2811916   1.979   6.797   2.992  0.1106 -0.5031  0.1569
  114SAPE   H8R11917   1.910   6.875   2.956 -2.1660 -2.2234  0.7333
  114SAPE   C2911918   1.954   6.754   3.117  0.0440  0.7750 -0.3114
  114SAPE   H9R11919   1.865   6.788   3.173 -0.9396 -1.5328 -0.4044
  114SAPE  C21011920   2.053   6.667   3.200  0.1297  0.2533  0.1913
  114SAPE  H10R11921   2.153   6.713   3.207 -0.2431  1.6885 -3.2708
  114SAPE  H10S11922   2.055   6.569   3.147  1.5953  1.2363 -1.5926
  114SAPE  C21111923   2.006   6.640   3.336  0.2674 -0.9493 -0.7307
  114SAPE  H11R11924   1.979   6.535   3.352 -1.2732 -0.5067 -0.2459
  114SAPE  C21211925   2.000   6.721   3.446  0.8787  0.2191  0.2667
  114SAPE  H12R11926   1.965   6.671   3.537 -0.8758 -1.8505 -1.4947
  114SAPE  C21311927   2.043   6.864   3.454  0.2624  0.7415  0.2310
  114SAPE  H13R11928   2.118   6.881   3.373 -2.7583  2.4517 -2.3457
  114SAPE  H13S11929   2.104   6.865   3.546  0.4259  0.5348  0.1242
  114SAPE  C21411930   1.936   6.967   3.430 -0.2878 -0.0418 -0.2943
  114SAPE  H14R11931   1.948   7.032   3.342 -1.6752 -0.6539 -0.9540
  114SAPE  C21511932   1.825   6.983   3.509  0.3678 -0.3702  0.0761
  114SAPE  H15R11933   1.739   7.041   3.473  0.8501  0.3860  0.1259
  114SAPE  C21611934   1.787   6.897   3.631 -0.3298  0.7103  0.2820
  114SAPE  H16R11935   1.876   6.845   3.670 -1.0678 -0.6954  0.1196
  114SAPE  H16S11936   1.707   6.830   3.592 -0.4352  0.6904  0.5336
  114SAPE  C21711937   1.734   6.980   3.752 -0.5498  0.0201 -0.6322
  114SAPE  H17R11938   1.700   6.906   3.827  1.9561  1.8405  2.4432
  114SAPE  H17S11939   1.645   7.037   3.717 -1.2485 -1.2486 -0.9465
  114SAPE  C21811940   1.846   7.067   3.827 -0.2838 -0.4288 -0.7949
  114SAPE  H18R11941   1.895   7.142   3.761 -1.7524  2.3411  1.1312
  114SAPE  H18S11942   1.915   6.992   3.871 -1.8949 -1.4843  0.0013
  114SAPE  C21911943   1.789   7.145   3.942 -0.2965  0.5791 -0.7971
  114SAPE  H19R11944   1.689   7.185   3.915 -1.3317 -0.3862  1.4618
  114SAPE  H19S11945   1.853   7.231   3.970  1.4467 -1.3984  1.6231
  114SAPE  C22011946   1.780   7.068   4.070  0.4151  0.0518  0.1937
  114SAPE  H20R11947   1.725   7.133   4.142 -0.6337 -0.5703 -0.0258
  114SAPE  H20S11948   1.879   7.045   4.113  0.5597 -1.8609 -1.1205
  114SAPE  H20T11949   1.734   6.967   4.056  0.3159 -0.0061  0.8876
  114SAPE   C3311950   2.245   6.377   2.934 -0.8242  0.8293 -0.3693
  114SAPE   H3X11951   2.138   6.374   2.965 -0.7342  0.4271 -0.0895
  114SAPE   H3Y11952   2.275   6.484   2.925 -0.5968  0.7729 -0.2984
  114SAPE   C3411953   2.325   6.315   3.051 -0.6690 -0.1785  0.1637
  114SAPE   H4X11954   2.429   6.309   3.012 -1.1543 -0.4548 -1.1124
  114SAPE   H4Y11955   2.285   6.215   3.079  2.7144 -1.5293  0.4484
  114SAPE   C3511956   2.324   6.412   3.176 -0.5483 -0.1819  0.2541
  114SAPE   H5X11957   2.361   6.353   3.263 -1.2258  0.2012  0.8104
  114SAPE   H5Y11958   2.217   6.435   3.194 -0.0993  4.1543 -2.0100
  114SAPE   C3611959   2.410   6.536   3.156 -0.2493 -0.2311  0.3220
  114SAPE   H6X11960   2.343   6.615   3.114 -1.6850 -1.1610  0.8021
  114SAPE   H6Y11961   2.483   6.522   3.073 -0.9255  0.6944 -0.4500
  114SAPE   C3711962   2.499   6.567   3.282  0.7319  0.2672 -0.0015
  114SAPE   H7X11963   2.565   6.656   3.276  2.2916 -0.7131  2.0333
  114SAPE   H7Y11964   2.565   6.484   3.316 -1.6031  0.1398  4.7481
  114SAPE   C3811965   2.406   6.601   3.404 -0.4696 -0.1681  0.4042
  114SAPE   H8X11966   2.329   6.521   3.416 -1.0116  0.0081 -1.7220
  114SAPE   H8Y11967   2.361   6.700   3.382 -1.3709 -0.4532  0.9225
  114SAPE   C3911968   2.487   6.615   3.533 -0.6776 -0.1251 -0.8876
  114SAPE   H9X11969   2.568   6.690   3.522  0.7638 -1.5159  0.0616
  114SAPE   H9Y11970   2.543   6.521   3.551 -3.0868 -1.7146 -1.6041
  114SAPE  C31011971   2.400   6.638   3.654  0.2885 -0.3077 -0.0177
  114SAPE  H10X11972   2.316   6.566   3.659  0.6133 -0.6846 -0.0151
  114SAPE  H10Y11973   2.359   6.740   3.636  1.0633  0.2144  1.0956
  114SAPE  C31111974   2.468   6.648   3.795  0.1291  0.1236  0.5284
  114SAPE  H11X11975   2.558   6.584   3.803  2.2729  2.6213 -2.5663
  114SAPE  H11Y11976   2.391   6.606   3.863 -0.9996  0.6152 -0.4254
  114SAPE  C31211977   2.493   6.795   3.840  1.1532  0.0068  0.1098
  114SAPE  H12X11978   2.403   6.860   3.850 -0.2649 -2.4156  3.6612
  114SAPE  H12Y11979   2.559   6.845   3.766 -0.6186  1.7521 -0.3484
  114SAPE  C31311980   2.551   6.792   3.975 -0.9427  0.2652  0.2027
  114SAPE  H13X11981   2.649   6.739   3.970 -2.7021 -3.0654 -0.2261
  114SAPE  H13Y11982   2.483   6.736   4.042  0.4634 -0.9591  0.6252
  114SAPE  C31411983   2.564   6.930   4.040 -0.5829  0.5628 -0.1141
  114SAPE  H14X11984   2.467   6.983   4.032 -1.6819 -1.5023 -0.9963
  114SAPE  H14Y11985   2.647   6.994   4.004 -0.7807 -0.4071 -2.3899
  114SAPE  C31511986   2.585   6.914   4.198 -0.9308 -0.3451 -0.5730
  114SAPE  H15X11987   2.509   6.841   4.235 -1.3747  1.1393  1.5656
  114SAPE  H15Y11988   2.561   7.014   4.242 -0.9436  0.1376 -1.6688
  114SAPE  C31611989   2.725   6.869   4.232  0.0833 -0.3642 -0.0909
  114SAPE  H16X11990   2.792   6.936   4.173 -2.8771  2.7627 -0.0615
  114SAPE  H16Y11991   2.748   6.771   4.185  0.7163 -0.2781  0.0347
  114SAPE  C31711992   2.758   6.859   4.381 -0.1133  0.5168  0.3721
  114SAPE  H17X11993   2.704   6.770   4.421 -1.5004  0.7144 -1.0201
  114SAPE  H17Y11994   2.712   6.943   4.437  0.3142  1.0243 -0.0416
  114SAPE  C31811995   2.903   6.853   4.405  0.1372  0.1432 -0.3736
  114SAPE  H18X11996   2.925   6.849   4.514 -0.7845 -2.4010 -0.2311
  114SAPE  H18Y11997   2.948   6.947   4.369  0.7389  0.1916  0.4723
  114SAPE  H18Z11998   2.959   6.775   4.348 -1.0619 -2.4900  1.8874
  115SAPE     N11999   0.083   5.929   2.259  0.6713  0.4355  0.5014
  115SAPE   HN112000   0.107   6.009   2.321 -1.9015  2.0494 -0.4849
  115SAPE   HN212001   0.136   5.940   2.170  1.6662 -0.9078  0.9185
  115SAPE   HN312002  -0.016   5.945   2.230  0.9449 -0.2770 -0.8826
  115SAPE   C1212003   0.099   5.792   2.312 -0.0952  0.2551 -0.0185
  115SAPE  H12A12004   0.072   5.800   2.419  0.7448 -3.5800  0.5434
  115SAPE  H12B12005   0.206   5.762   2.299 -0.0047  0.9401 -0.8945
  115SAPE   C1112006   0.007   5.687   2.231 -0.6653 -0.1418  0.5077
  115SAPE  H11A12007   0.023   5.584   2.270  0.5419  0.2876  1.1903
  115SAPE  H11B12008   0.035   5.684   2.124  0.5378  0.1564  0.8007
  115SAPE     P12009  -0.249   5.678   2.192  0.1291 -0.0769 -0.4189
  115SAPE   O1312010  -0.288   5.771   2.082 -0.0315  0.0586 -0.2754
  115SAPE   O1412011  -0.222   5.539   2.147 -0.5034 -0.1029 -0.0779
  115SAPE   O1212012  -0.120   5.736   2.265 -0.7522  0.2245  0.5975
  115SAPE   O1112013  -0.366   5.690   2.296  0.4623 -0.0942 -0.1149
  115SAPE    C112014  -0.360   5.629   2.426 -0.4170  0.1030  0.5862
  115SAPE    HA12015  -0.344   5.520   2.412  2.6294  0.6888 -0.9832
  115SAPE    HB12016  -0.276   5.672   2.485 -0.6002  1.2781  0.0118
  115SAPE    C212017  -0.480   5.671   2.514  0.0438 -0.6891  0.0702
  115SAPE    HS12018  -0.565   5.618   2.467 -0.2074  0.1454 -0.4268
  115SAPE   O2112019  -0.500   5.816   2.514  0.4576 -0.0384  0.0662
  115SAPE   C2112020  -0.615   5.856   2.564  0.0680 -0.1652  0.6867
  115SAPE   O2212021  -0.698   5.782   2.606 -0.0598 -0.0110  0.2193
  115SAPE   C2212022  -0.632   6.002   2.572 -0.2621  0.4520 -0.2527
  115SAPE   H2R12023  -0.689   6.028   2.480  0.8442  0.8682 -0.8296
  115SAPE   H2S12024  -0.692   6.029   2.661  2.2086  2.0794  0.9691
  115SAPE    C312025  -0.461   5.609   2.654  0.3071 -0.5919  1.1843
  115SAPE    HX12026  -0.439   5.501   2.641  1.0054 -0.5622  2.0789
  115SAPE    HY12027  -0.559   5.612   2.706 -0.0312 -1.2253  0.5872
  115SAPE   O3112028  -0.367   5.679   2.736  0.3259 -0.2734 -0.4134
  115SAPE   C3112029  -0.238   5.637   2.737  0.5387  0.2249  0.0778
  115SAPE   O3212030  -0.186   5.548   2.681 -0.2846 -0.3822  0.0066
  115SAPE   C3212031  -0.158   5.725   2.830  0.0421  0.3866 -0.0339
  115SAPE   H2X12032  -0.153   5.663   2.922  0.1849 -2.1599 -1.7101
  115SAPE   H2Y12033  -0.218   5.813   2.860 -0.2029 -0.0725  0.8289
  115SAPE   C2312034  -0.492   6.074   2.606 -0.0802  0.2603  1.2877
  115SAPE   H3R12035  -0.499   6.185   2.608  0.5402  0.3159  0.2510
  115SAPE   H3S12036  -0.421   6.045   2.526 -1.6884  0.7614 -0.3390
  115SAPE   C2412037  -0.439   6.039   2.744 -0.0518 -0.0084 -0.6351
  115SAPE   H4R12038  -0.432   5.930   2.759  1.5341  0.1876  0.1246
  115SAPE   H4S12039  -0.517   6.076   2.814 -0.6363  0.5871 -1.5890
  115SAPE   C2512040  -0.299   6.099   2.765  0.0909 -0.0292 -0.5772
  115SAPE   H5R12041  -0.234   6.111   2.677 -0.1435  1.1039 -0.5938
  115SAPE   C2612042  -0.246   6.132   2.885 -0.3429 -0.0658  0.5040
  115SAPE   H6R12043  -0.151   6.186   2.882 -0.5349  0.4204  2.6557
  115SAPE   C2712044  -0.311   6.109   3.020  0.2910 -0.2989  0.1519
  115SAPE   H7R12045  -0.418   6.079   3.014  0.7596 -2.3210  1.6802
  115SAPE   H7S12046  -0.313   6.209   3.069  0.7624  1.3785 -3.0965
  115SAPE   C2812047  -0.248   5.997   3.091  0.5591 -0.5490  0.6038
  115SAPE   H8R12048  -0.284   5.900   3.054 -1.3165  0.6406 -0.8014
  115SAPE   C2912049  -0.179   6.006   3.208 -0.3765 -0.4407 -1.0014
  115SAPE   H9R12050  -0.156   5.914   3.264  0.0506  0.7498  0.8054
  115SAPE  C21012051  -0.152   6.123   3.297  0.5800 -0.4124 -0.2407
  115SAPE  H10R12052  -0.089   6.201   3.250 -0.8917 -1.1465 -3.5196
  115SAPE  H10S12053  -0.080   6.084   3.373  0.8735  1.7107  0.5995
  115SAPE  C21112054  -0.280   6.167   3.365  0.3396  0.0336 -0.4685
  115SAPE  H11R12055  -0.344   6.239   3.312 -0.6666 -1.0381 -0.7579
  115SAPE  C21212056  -0.323   6.123   3.488  0.0870  0.0041 -0.1167
  115SAPE  H12R12057  -0.408   6.178   3.531  0.6679 -0.1171  1.2238
  115SAPE  C21312058  -0.256   6.024   3.580  0.0978 -0.6301  0.4217
  115SAPE  H13R12059  -0.166   5.976   3.534 -2.0856 -1.3291 -3.3417
  115SAPE  H13S12060  -0.321   5.935   3.597  0.7697 -1.0110  1.0206
  115SAPE  C21412061  -0.227   6.106   3.700  0.1765 -0.1526 -0.0921
  115SAPE  H14R12062  -0.150   6.185   3.698 -0.5708  0.6324  1.2686
  115SAPE  C21512063  -0.283   6.084   3.819  0.0311  0.2754 -0.3199
  115SAPE  H15R12064  -0.253   6.144   3.906 -1.7231 -0.0862  0.5637
  115SAPE  C21612065  -0.373   5.972   3.858 -0.0829 -0.3765 -0.4359
  115SAPE  H16R12066  -0.323   5.905   3.932 -1.2666  0.1314  0.8581
  115SAPE  H16S12067  -0.404   5.903   3.777 -2.0003  2.9709 -2.6748
  115SAPE  C21712068  -0.502   6.031   3.913 -0.0728 -1.0715  0.0659
  115SAPE  H17R12069  -0.554   6.073   3.824  2.1095 -0.4672 -0.9580
  115SAPE  H17S12070  -0.475   6.123   3.969 -2.8147 -0.6019  0.6772
  115SAPE  C21812071  -0.593   5.940   3.995  0.0980 -0.4203  0.0664
  115SAPE  H18R12072  -0.685   5.991   4.029  2.3092  2.4895  1.9467
  115SAPE  H18S12073  -0.532   5.906   4.082  0.8845 -2.6875 -1.3253
  115SAPE  C21912074  -0.623   5.808   3.928 -0.5697  0.1075 -0.0248
  115SAPE  H19R12075  -0.535   5.772   3.871 -0.4942  0.4029 -0.0963
  115SAPE  H19S12076  -0.695   5.841   3.850 -0.0638  0.0230 -0.5336
  115SAPE  C22012077  -0.669   5.691   4.013 -0.4146 -0.8826 -0.5882
  115SAPE  H20R12078  -0.741   5.722   4.092  1.7441  2.0035  0.3329
  115SAPE  H20S12079  -0.579   5.648   4.062 -0.0439 -0.4915 -0.9232
  115SAPE  H20T12080  -0.717   5.617   3.946 -1.7880 -1.0521  0.5519
  115SAPE   C3312081  -0.015   5.758   2.783 -0.3502 -0.3911 -0.3505
  115SAPE   H3X12082  -0.014   5.789   2.677 -0.0704  1.1994  0.1095
  115SAPE   H3Y12083   0.039   5.661   2.790  0.5040  0.0341 -0.9738
  115SAPE   C3412084   0.057   5.869   2.869 -0.5310 -0.4073 -0.3149
  115SAPE   H4X12085   0.135   5.825   2.934  0.6751  1.1799 -0.6521
  115SAPE   H4Y12086  -0.017   5.913   2.940 -0.4759 -3.1559  1.5148
  115SAPE   C3512087   0.117   5.968   2.776 -0.3971  0.0388  0.2205
  115SAPE   H5X12088   0.033   6.027   2.733  0.1632  0.2948 -0.5302
  115SAPE   H5Y12089   0.169   5.913   2.694  0.9093  0.0502  1.0367
  115SAPE   C3612090   0.232   6.049   2.837 -0.4627  0.4257 -0.3652
  115SAPE   H6X12091   0.279   6.102   2.751 -1.0859  3.5827  1.1532
  115SAPE   H6Y12092   0.308   5.981   2.878  1.2814  1.7468 -1.3264
  115SAPE   C3712093   0.174   6.158   2.934  0.8907  0.3505  0.2030
  115SAPE   H7X12094   0.111   6.114   3.014  1.3173 -1.6875 -0.5573
  115SAPE   H7Y12095   0.109   6.215   2.865  0.4323  0.6335  0.8571
  115SAPE   C3812096   0.292   6.244   2.987  0.3055 -0.1196 -0.3367
  115SAPE   H8X12097   0.343   6.279   2.895 -1.6490 -0.1934 -1.4781
  115SAPE   H8Y12098   0.369   6.174   3.027  0.9323  1.0803  0.5590
  115SAPE   C3912099   0.250   6.358   3.076 -0.3780 -0.5636 -0.4332
  115SAPE   H9X12100   0.183   6.432   3.027  0.4474 -0.0241 -0.7756
  115SAPE   H9Y12101   0.336   6.427   3.087 -0.7540 -0.3197  1.0830
  115SAPE  C31012102   0.196   6.314   3.211  0.2095  0.3022 -0.3777
  115SAPE  H10X12103   0.282   6.276   3.270 -0.5609 -0.9224 -0.0287
  115SAPE  H10Y12104   0.136   6.221   3.204 -0.1781  0.6872 -2.3655
  115SAPE  C31112105   0.110   6.423   3.289 -0.0723  0.0266  0.3411
  115SAPE  H11X12106   0.015   6.433   3.232 -0.4955  0.1129  1.0495
  115SAPE  H11Y12107   0.166   6.518   3.278 -1.4323  0.5835 -2.3136
  115SAPE  C31212108   0.099   6.383   3.437  0.6258 -0.8122 -0.1810
  115SAPE  H12X12109   0.057   6.281   3.449 -0.7501 -0.3139 -0.7107
  115SAPE  H12Y12110   0.034   6.463   3.479  2.5338  0.5100  0.3426
  115SAPE  C31312111   0.231   6.406   3.512 -0.5333 -0.5353 -0.2079
  115SAPE  H13X12112   0.283   6.489   3.459  0.6207 -2.1199 -1.6187
  115SAPE  H13Y12113   0.293   6.314   3.505 -1.9592 -1.3870 -1.8919
  115SAPE  C31412114   0.208   6.437   3.659 -0.4464  0.4362 -0.6164
  115SAPE  H14X12115   0.299   6.411   3.716 -0.9281  0.9693  0.3916
  115SAPE  H14Y12116   0.131   6.370   3.702  0.2526 -0.4767 -0.7779
  115SAPE  C31512117   0.197   6.581   3.683  0.1163 -0.2091 -0.1706
  115SAPE  H15X12118   0.092   6.616   3.674 -0.4464 -1.8444 -0.1862
  115SAPE  H15Y12119   0.249   6.638   3.603  1.4189 -3.1547 -1.5085
  115SAPE  C31612120   0.240   6.625   3.826 -0.2818 -0.4449 -0.3648
  115SAPE  H16X12121   0.346   6.598   3.845  0.4169  2.5183  0.0589
  115SAPE  H16Y12122   0.181   6.560   3.894 -0.8416  0.1510 -0.2807
  115SAPE  C31712123   0.221   6.774   3.856 -0.4292 -0.0757 -0.3847
  115SAPE  H17X12124   0.112   6.797   3.857 -0.6824 -1.2108 -1.6525
  115SAPE  H17Y12125   0.265   6.838   3.777 -0.8156 -0.1598 -0.6670
  115SAPE  C31812126   0.293   6.820   3.984  0.3237  0.0013  0.2531
  115SAPE  H18X12127   0.255   6.747   4.059  1.5366 -1.6846 -0.7249
  115SAPE  H18Y12128   0.277   6.923   4.020  0.0913 -0.9522  2.9923
  115SAPE  H18Z12129   0.399   6.793   3.965  0.2287 -2.0343  2.3275
  116SAPE     N12130   6.891   0.836   2.324 -0.3235  0.5479  0.1810
  116SAPE   HN112131   6.964   0.797   2.261 -0.8161 -0.2932  0.1223
  116SAPE   HN212132   6.935   0.890   2.402  0.4863  1.8005 -1.1121
  116SAPE   HN312133   6.838   0.758   2.368  3.0645 -2.1126 -0.2598
  116SAPE   C1212134   6.807   0.928   2.247 -0.3301  0.4778 -0.3875
  116SAPE  H12A12135   6.723   0.964   2.310  0.1895  0.7233  0.1746
  116SAPE  H12B12136   6.778   0.872   2.155  0.1450  0.4802 -0.5398
  116SAPE   C1112137   6.894   1.048   2.201  0.1340  0.0133  0.3438
  116SAPE  H11A12138   6.819   1.102   2.138 -1.1272 -2.7572 -0.6039
  116SAPE  H11B12139   6.978   0.999   2.148 -1.0324  0.1014 -1.6522
  116SAPE     P12140   7.022   1.257   2.288  0.0047 -0.2657  0.1253
  116SAPE   O1312141   7.147   1.225   2.215 -0.2321 -0.1698 -0.4161
  116SAPE   O1412142   6.935   1.366   2.227  0.0633 -0.1512  0.9286
  116SAPE   O1212143   6.940   1.128   2.317 -0.0662  0.3949 -0.3591
  116SAPE   O1112144   7.074   1.301   2.431  0.6728  0.0215  0.0035
  116SAPE    C112145   7.152   1.219   2.509  0.2254  0.0594 -0.1282
  116SAPE    HA12146   7.133   1.255   2.613  0.7312 -1.4639  0.5153
  116SAPE    HB12147   7.125   1.112   2.497  2.0666 -0.3208 -0.9936
  116SAPE    C212148   7.307   1.240   2.489 -0.2442  0.8122  1.0467
  116SAPE    HS12149   7.332   1.224   2.382 -0.3425 -1.9467  1.4025
  116SAPE   O2112150   7.376   1.145   2.573  0.4817 -0.0451  0.5096
  116SAPE   C2112151   7.510   1.134   2.554  0.2874  0.1133 -0.2515
  116SAPE   O2212152   7.578   1.200   2.478  0.1899 -0.3511  0.4095
  116SAPE   C2212153   7.581   1.045   2.648  0.5995  0.1034 -0.2406
  116SAPE   H2R12154   7.567   0.945   2.601  2.9585  0.7570 -2.3907
  116SAPE   H2S12155   7.688   1.072   2.642  0.8671 -0.7288  0.5750
  116SAPE    C312156   7.346   1.388   2.513 -0.1719 -0.2570 -0.3843
  116SAPE    HX12157   7.287   1.459   2.450  2.8311  1.6587 -1.1498
  116SAPE    HY12158   7.454   1.393   2.490 -0.2716 -0.3758 -0.8709
  116SAPE   O3112159   7.309   1.422   2.650 -0.1268 -0.4420  0.1710
  116SAPE   C3112160   7.406   1.490   2.712  0.3684  0.1745 -0.7818
  116SAPE   O3212161   7.516   1.504   2.669  0.2048  0.6396 -0.6613
  116SAPE   C3212162   7.345   1.546   2.842  0.1198  0.5021 -0.0521
  116SAPE   H2X12163   7.250   1.601   2.826  0.5051  0.7838 -1.3996
  116SAPE   H2Y12164   7.425   1.622   2.859  0.3502  0.5200 -1.2372
  116SAPE   C2312165   7.532   1.049   2.798  0.5246 -0.2118 -0.3107
  116SAPE   H3R12166   7.554   0.955   2.854 -3.6386 -0.6602  0.6887
  116SAPE   H3S12167   7.422   1.057   2.802  0.4972 -0.6660 -0.1864
  116SAPE   C2412168   7.597   1.168   2.872  0.0581 -0.5414  0.0277
  116SAPE   H4R12169   7.532   1.198   2.957  0.4168 -0.6703  0.3418
  116SAPE   H4S12170   7.598   1.253   2.799 -0.6748 -1.8370 -1.5367
  116SAPE   C2512171   7.739   1.134   2.906 -0.5117  0.5544  0.3128
  116SAPE   H5R12172   7.793   1.098   2.817 -2.0408 -0.0112 -0.3867
  116SAPE   C2612173   7.804   1.137   3.026  0.1481 -0.0186 -0.1273
  116SAPE   H6R12174   7.908   1.106   3.039 -0.1728  0.4261  4.5832
  116SAPE   C2712175   7.737   1.179   3.158 -0.8405 -0.1614 -0.2456
  116SAPE   H7R12176   7.655   1.247   3.127 -0.5834 -0.1462 -0.8949
  116SAPE   H7S12177   7.804   1.244   3.219  0.2124 -1.6571  0.2096
  116SAPE   C2812178   7.666   1.070   3.228  0.2115  0.3337 -0.0071
  116SAPE   H8R12179   7.627   0.994   3.159  1.6672  1.1854 -1.8201
  116SAPE   C2912180   7.652   1.060   3.365  0.5175 -0.5619 -0.1630
  116SAPE   H9R12181   7.597   0.971   3.399 -0.9533 -1.0268 -3.5290
  116SAPE  C21012182   7.708   1.161   3.464 -0.2660  0.4801  0.2919
  116SAPE  H10R12183   7.638   1.167   3.550  0.7997  1.4019  1.1147
  116SAPE  H10S12184   7.717   1.263   3.421 -1.2576  0.9213  1.1113
  116SAPE  C21112185   7.845   1.114   3.498  0.0650 -0.0381  0.2287
  116SAPE  H11R12186   7.915   1.095   3.415  0.6776  0.0498  0.7200
  116SAPE  C21212187   7.889   1.109   3.629 -0.4950 -0.1120 -0.6645
  116SAPE  H12R12188   7.987   1.066   3.654 -0.5796  0.2378  0.2793
  116SAPE  C21312189   7.800   1.143   3.749  0.5908  0.0607 -0.1216
  116SAPE  H13R12190   7.720   1.216   3.723  0.5925  0.3960  0.8013
  116SAPE  H13S12191   7.854   1.174   3.841  2.0333 -2.1752 -0.1659
  116SAPE  C21412192   7.722   1.017   3.798  0.4344  0.2288 -0.0226
  116SAPE  H14R12193   7.624   0.993   3.754  1.3999 -5.2267  0.4320
  116SAPE  C21512194   7.772   0.927   3.881 -0.0088 -0.6924 -0.2784
  116SAPE  H15R12195   7.700   0.854   3.921 -2.5016  1.1203 -1.2477
  116SAPE  C21612196   7.914   0.933   3.948  0.0185  0.2060 -0.4933
  116SAPE  H16R12197   7.893   0.947   4.056 -0.1682  1.0996 -0.6426
  116SAPE  H16S12198   7.979   1.011   3.904  1.9980 -1.2325 -0.1947
  116SAPE  C21712199   7.981   0.794   3.943 -0.2580  0.1138 -0.9782
  116SAPE  H17R12200   8.075   0.791   4.001 -1.7700  1.2305  1.6507
  116SAPE  H17S12201   8.001   0.782   3.835  2.0342 -0.0231 -0.5478
  116SAPE  C21812202   7.897   0.684   4.012  0.1621 -0.2675  0.5735
  116SAPE  H18R12203   7.808   0.662   3.949 -0.1602  1.5965  0.3351
  116SAPE  H18S12204   7.858   0.732   4.105  1.4549 -1.3485  1.6966
  116SAPE  C21912205   7.969   0.552   4.044  0.3548  0.2597  0.2418
  116SAPE  H19R12206   7.885   0.491   4.083 -1.4789  3.6465  1.7477
  116SAPE  H19S12207   8.046   0.569   4.123 -0.5325 -0.1155  1.1931
  116SAPE  C22012208   8.029   0.482   3.918  0.4299 -0.7478  0.4308
  116SAPE  H20R12209   8.053   0.376   3.939  1.8400 -0.2253  1.5396
  116SAPE  H20S12210   8.127   0.532   3.903 -0.2305 -0.0171 -1.7548
  116SAPE  H20T12211   7.980   0.494   3.818 -0.1163  0.0291  0.7846
  116SAPE   C3312212   7.340   1.443   2.956 -0.4161 -0.3175 -0.2957
  116SAPE   H3X12213   7.378   1.490   3.049 -0.0491 -0.7297 -0.2386
  116SAPE   H3Y12214   7.416   1.363   2.942  3.2368  2.9020  0.3925
  116SAPE   C3412215   7.208   1.373   2.993  0.4600  0.6188 -0.6323
  116SAPE   H4X12216   7.154   1.362   2.897  0.0410 -1.0209 -0.2308
  116SAPE   H4Y12217   7.156   1.445   3.059  1.3904  2.0856 -1.4867
  116SAPE   C3512218   7.221   1.242   3.058 -0.4237  0.2065 -0.5985
  116SAPE   H5X12219   7.286   1.179   2.993  0.9919 -0.1181  1.1091
  116SAPE   H5Y12220   7.119   1.197   3.063 -0.1450 -0.2367  1.7735
  116SAPE   C3612221   7.280   1.236   3.199 -0.4349 -0.7512 -0.4597
  116SAPE   H6X12222   7.380   1.282   3.186 -0.1262 -0.2054  3.4103
  116SAPE   H6Y12223   7.295   1.129   3.227 -0.6402 -0.4325  0.9164
  116SAPE   C3712224   7.205   1.314   3.307 -0.3122  0.0225  0.8222
  116SAPE   H7X12225   7.095   1.303   3.295 -0.2246  0.5310 -0.4226
  116SAPE   H7Y12226   7.224   1.422   3.297 -2.0467  0.3445  0.8880
  116SAPE   C3812227   7.240   1.274   3.451 -0.0325  0.3869  0.3129
  116SAPE   H8X12228   7.237   1.163   3.451  0.1751  0.3798  0.9331
  116SAPE   H8Y12229   7.154   1.317   3.507  0.4060 -0.7246  1.8451
  116SAPE   C3912230   7.358   1.341   3.514  0.4937 -0.1186 -0.4909
  116SAPE   H9X12231   7.331   1.449   3.512 -0.2127 -0.3056 -1.0780
  116SAPE   H9Y12232   7.443   1.329   3.445  0.1661 -1.1544 -0.7108
  116SAPE  C31012233   7.376   1.269   3.652  0.0733  0.1012  0.4552
  116SAPE  H10X12234   7.430   1.173   3.639 -2.1967 -1.0748 -0.4195
  116SAPE  H10Y12235   7.281   1.240   3.701 -1.0858 -0.9523 -2.3549
  116SAPE  C31112236   7.464   1.349   3.754 -0.9152  0.3169 -0.0306
  116SAPE  H11X12237   7.553   1.379   3.695 -0.6952  0.0028  0.1403
  116SAPE  H11Y12238   7.490   1.282   3.839 -2.9689  0.4890  0.7739
  116SAPE  C31212239   7.402   1.483   3.817  0.2260  0.5437 -1.1167
  116SAPE  H12X12240   7.418   1.559   3.738  0.0585  1.4152 -0.3145
  116SAPE  H12Y12241   7.462   1.512   3.906 -0.9425 -2.0316  0.5898
  116SAPE  C31312242   7.250   1.476   3.850  0.2450 -0.6968  0.3910
  116SAPE  H13X12243   7.229   1.373   3.887 -0.8181 -0.5143  0.3105
  116SAPE  H13Y12244   7.196   1.466   3.754  3.1572  1.3660 -1.5621
  116SAPE  C31412245   7.201   1.582   3.959  0.1670  0.1515 -0.0397
  116SAPE  H14X12246   7.245   1.544   4.054  3.1997 -0.6328 -1.6863
  116SAPE  H14Y12247   7.090   1.579   3.969 -0.3533  2.5774 -3.9673
  116SAPE  C31512248   7.239   1.731   3.940 -0.1768  0.1280  0.3724
  116SAPE  H15X12249   7.154   1.773   3.883  2.3472  3.6851 -0.9989
  116SAPE  H15Y12250   7.334   1.753   3.886 -1.0451 -0.2997 -1.3464
  116SAPE  C31612251   7.236   1.809   4.074  0.0617  0.3222  0.7081
  116SAPE  H16X12252   7.309   1.757   4.140 -0.5644 -0.5597  0.7215
  116SAPE  H16Y12253   7.137   1.797   4.124 -0.8168  0.9443 -0.8361
  116SAPE  C31712254   7.251   1.962   4.056  0.0632 -0.0478 -0.4894
  116SAPE  H17X12255   7.333   1.972   3.982  0.7827  0.5999  0.3726
  116SAPE  H17Y12256   7.287   2.010   4.150 -0.4484  0.3591 -0.4991
  116SAPE  C31812257   7.121   2.031   4.024 -0.5839  0.2976  0.9239
  116SAPE  H18X12258   7.080   2.010   3.923 -0.8432 -0.5888  1.2116
  116SAPE  H18Y12259   7.137   2.141   4.025 -2.1359  0.5357  0.8451
  116SAPE  H18Z12260   7.053   2.011   4.110 -1.4570  0.0661  0.1868
  117SOPE     N12261   2.374   3.848   6.123  0.7842 -0.4231 -0.3332
  117SOPE   HN112262   2.276   3.814   6.116  0.9744 -0.6314 -2.4437
  117SOPE   HN212263   2.380   3.924   6.194 -1.8112 -0.3507 -0.1555
  117SOPE   HN312264   2.410   3.901   6.041 -1.5890 -0.9758 -1.7723
  117SOPE   C1212265   2.457   3.733   6.159 -0.3228  0.1139 -0.2701
  117SOPE  H12A12266   2.495   3.687   6.064  1.5035 -0.1323  0.5640
  117SOPE  H12B12267   2.396   3.659   6.215  0.6505  0.7820  1.6993
  117SOPE   C1112268   2.581   3.764   6.242 -0.3776  0.0009  0.7712
  117SOPE  H11A12269   2.641   3.844   6.193 -0.3885 -0.6989 -0.3775
  117SOPE  H11B12270   2.653   3.680   6.237 -0.7199 -0.2910  0.7392
  117SOPE     P12271   2.536   3.928   6.433  0.4749 -0.5360 -0.4975
  117SOPE   O1312272   2.478   3.928   6.570 -0.0264  0.2988  0.3424
  117SOPE   O1412273   2.460   4.004   6.332  0.5451  0.2997 -0.2662
  117SOPE   O1212274   2.550   3.783   6.377 -0.1377 -0.5238  0.0543
  117SOPE   O1112275   2.686   3.967   6.441  0.7161  0.0653  0.3331
  117SOPE    C112276   2.793   3.883   6.499 -0.3912 -0.3966  0.0003
  117SOPE    HA12277   2.768   3.777   6.522  0.6346 -0.6127  0.1100
  117SOPE    HB12278   2.822   3.935   6.592 -1.2386 -2.3999  1.4226
  117SOPE    C212279   2.914   3.880   6.404  0.3862 -0.2184 -0.0078
  117SOPE    HS12280   2.946   3.986   6.396  1.2415 -0.5838 -1.6922
  117SOPE   O2112281   2.875   3.827   6.281 -0.1516  0.2681  0.0294
  117SOPE   C2112282   2.914   3.893   6.171  0.5434 -0.1992  0.3825
  117SOPE   O2212283   2.969   4.006   6.170  0.0798 -0.3614 -1.1182
  117SOPE   C2212284   2.883   3.808   6.056  0.1591 -0.3358 -0.4237
  117SOPE   H2R12285   2.776   3.824   6.030  0.1917  0.7608  0.0984
  117SOPE   H2S12286   2.901   3.699   6.067  1.7287  0.0511  1.2207
  117SOPE    C312287   3.036   3.792   6.443  0.1254  0.4499 -0.1384
  117SOPE    HX12288   2.998   3.708   6.504 -0.4977 -0.9323 -2.3966
  117SOPE    HY12289   3.093   3.860   6.511  0.5713 -0.9153  0.8771
  117SOPE   O3112290   3.120   3.753   6.328 -0.9188 -0.1231  0.2612
  117SOPE   C3112291   3.100   3.628   6.288 -0.2867 -0.3150  0.0165
  117SOPE   O3212292   3.013   3.555   6.328  0.0482  0.3401 -1.0088
  117SOPE   C3212293   3.184   3.593   6.168 -0.8536 -0.0274  0.3061
  117SOPE   H2X12294   3.291   3.619   6.182 -0.3496  0.0825 -3.2848
  117SOPE   H2Y12295   3.148   3.654   6.083  1.7377  3.1488  1.3957
  117SOPE   C2312296   2.966   3.850   5.931  0.1574 -0.3843 -0.4789
  117SOPE   H3R12297   3.071   3.814   5.937  0.2451 -0.0122  0.3075
  117SOPE   H3S12298   2.977   3.960   5.921  0.9991 -0.4986 -0.8342
  117SOPE   C2412299   2.900   3.784   5.816 -0.1855  0.5875 -0.0961
  117SOPE   H4R12300   2.906   3.674   5.823 -1.2624  0.4886 -0.6310
  117SOPE   H4S12301   2.791   3.804   5.828 -0.8782 -0.3533 -4.1604
  117SOPE   C2512302   2.939   3.839   5.675  0.3936 -0.0363 -0.0195
  117SOPE   H5R12303   2.943   3.950   5.669 -2.0381  0.0970  0.4677
  117SOPE   H5S12304   3.038   3.795   5.651  0.9534  1.6972 -0.9709
  117SOPE   C2612305   2.837   3.798   5.565  0.1889  1.8371  0.0678
  117SOPE   H6R12306   2.839   3.689   5.587 -2.9586  1.7451  0.1677
  117SOPE   H6S12307   2.738   3.845   5.584 -0.2761  0.5276  0.9605
  117SOPE   C2712308   2.874   3.826   5.419 -0.4843  0.9188 -0.4743
  117SOPE   H7R12309   2.905   3.933   5.425  0.4672  0.5546  1.4781
  117SOPE   H7S12310   2.959   3.763   5.386 -0.1659  0.7277  0.6873
  117SOPE   C2812311   2.749   3.796   5.326  0.7220  0.1306 -0.6335
  117SOPE   H8R12312   2.655   3.844   5.362  0.5781 -0.0849 -0.7235
  117SOPE   H8S12313   2.786   3.852   5.237  1.5033 -1.6868 -1.4640
  117SOPE   C2912314   2.741   3.643   5.306 -0.5278 -0.5882  0.3728
  117SOPE   H9112315   2.727   3.583   5.397 -1.1710  1.4032  1.6268
  117SOPE  C21012316   2.735   3.582   5.187  0.1307  0.4250 -0.5974
  117SOPE  H10112317   2.722   3.473   5.183  2.1089  0.2237 -2.0331
  117SOPE  C21112318   2.726   3.639   5.050  0.4783 -0.3562  0.2547
  117SOPE  H11R12319   2.823   3.617   5.001 -0.4001 -2.0112 -0.7416
  117SOPE  H11S12320   2.717   3.750   5.055 -2.8028 -0.5437 -0.2932
  117SOPE  C21212321   2.608   3.579   4.965  0.1986 -0.5743  0.3736
  117SOPE  H12R12322   2.604   3.473   4.998  2.7620 -0.1339  2.3052
  117SOPE  H12S12323   2.650   3.597   4.864  1.3799  0.3107  1.0022
  117SOPE  C21312324   2.467   3.648   4.982  0.0496  0.5622  0.1925
  117SOPE  H13R12325   2.483   3.754   5.012  1.2450  1.2978 -2.9012
  117SOPE  H13S12326   2.421   3.582   5.059  1.4470  1.0944  1.5068
  117SOPE  C21412327   2.395   3.641   4.850  0.2232 -0.0996  0.0973
  117SOPE  H14R12328   2.455   3.695   4.773 -0.1599 -1.3087 -1.0575
  117SOPE  H14S12329   2.296   3.691   4.855 -0.0663 -0.4054 -2.0335
  117SOPE  C21512330   2.366   3.498   4.802  0.0637  0.0713 -0.3770
  117SOPE  H15R12331   2.297   3.449   4.874 -0.2152  0.7278 -0.1925
  117SOPE  H15S12332   2.461   3.440   4.799 -0.8654 -1.5958  1.1583
  117SOPE  C21612333   2.305   3.500   4.664  0.5106 -0.7168 -0.9080
  117SOPE  H16R12334   2.340   3.589   4.607 -0.3568 -1.1105 -2.0778
  117SOPE  H16S12335   2.197   3.510   4.689  1.3357  1.9834  1.9336
  117SOPE  C21712336   2.326   3.376   4.575 -0.6171 -0.0900  0.1457
  117SOPE  H17R12337   2.269   3.387   4.480 -0.3643 -0.3962 -0.0446
  117SOPE  H17S12338   2.298   3.291   4.640  2.5025 -1.0955  0.2608
  117SOPE  C21812339   2.479   3.359   4.538 -0.4136  0.0463 -0.0478
  117SOPE  H18R12340   2.545   3.330   4.623 -0.6604 -1.8378 -0.4700
  117SOPE  H18S12341   2.518   3.452   4.492  1.3155  0.1759  1.6032
  117SOPE  H18T12342   2.498   3.276   4.467  1.0447 -0.1895  0.6063
  117SOPE   C3312343   3.171   3.445   6.124  0.2919  0.3009  0.3088
  117SOPE   H3X12344   3.065   3.437   6.091  0.6294  0.4358 -0.8357
  117SOPE   H3Y12345   3.194   3.367   6.200 -1.6857 -1.0669 -0.4392
  117SOPE   C3412346   3.265   3.420   6.000 -0.3910  0.4503  0.3229
  117SOPE   H4X12347   3.239   3.319   5.961  1.0832 -0.6228  2.0702
  117SOPE   H4Y12348   3.370   3.428   6.033  0.1646 -0.6540 -1.1152
  117SOPE   C3512349   3.245   3.511   5.881 -0.7091 -0.6780 -0.0163
  117SOPE   H5X12350   3.293   3.611   5.893  0.6150 -1.0657 -1.9212
  117SOPE   H5Y12351   3.135   3.526   5.872 -0.9918 -1.8716  1.1896
  117SOPE   C3612352   3.295   3.457   5.744  0.0805 -0.7293 -0.9236
  117SOPE   H6X12353   3.259   3.353   5.735  0.9568 -1.1913  0.6869
  117SOPE   H6Y12354   3.403   3.435   5.731 -0.2551 -2.0322 -1.5499
  117SOPE   C3712355   3.252   3.547   5.627  0.5808 -0.2390 -0.2377
  117SOPE   H7X12356   3.327   3.539   5.545  0.0973 -1.0634 -0.6086
  117SOPE   H7Y12357   3.245   3.650   5.667 -0.1365 -0.2360 -0.3634
  117SOPE   C3812358   3.125   3.503   5.560  0.3381 -0.3122 -0.3061
  117SOPE   H8X12359   3.054   3.588   5.553  0.2033 -0.2713  1.3505
  117SOPE   H8Y12360   3.063   3.429   5.615 -3.4458  2.6765 -0.3256
  117SOPE   C3912361   3.135   3.441   5.419 -0.1623  0.2051  0.3100
  117SOPE   H9X12362   3.048   3.381   5.387  1.9818 -2.3184 -1.0440
  117SOPE   H9Y12363   3.228   3.379   5.415 -0.5282 -0.2741 -1.4814
  117SOPE  C31012364   3.158   3.543   5.313  0.0397  0.0865  0.5345
  117SOPE  H10X12365   3.246   3.610   5.325 -1.5709  2.2899  0.3605
  117SOPE  H10Y12366   3.074   3.616   5.303 -0.7393 -0.9974 -0.9846
  117SOPE  C31112367   3.169   3.478   5.172  0.2733 -0.6161  0.3156
  117SOPE  H11X12368   3.085   3.405   5.171 -1.1387  0.9646 -1.2584
  117SOPE  H11Y12369   3.268   3.430   5.158 -0.4211 -1.3633 -2.2958
  117SOPE  C31212370   3.163   3.581   5.058  0.2662  0.3479  0.2952
  117SOPE  H12X12371   3.233   3.664   5.080  0.5457  0.4866 -1.0944
  117SOPE  H12Y12372   3.065   3.634   5.050  1.0391  1.8328  0.6680
  117SOPE  C31312373   3.217   3.515   4.928 -0.8430 -0.1744 -0.0215
  117SOPE  H13X12374   3.327   3.501   4.930 -0.6384  1.2475 -0.3012
  117SOPE  H13Y12375   3.183   3.592   4.855 -0.1365  0.9620  0.8178
  117SOPE  C31412376   3.161   3.376   4.890  0.0157 -0.1067  0.8076
  117SOPE  H14X12377   3.182   3.293   4.959 -2.4546 -1.1862  0.2939
  117SOPE  H14Y12378   3.210   3.354   4.792 -1.4837  0.4304 -0.0794
  117SOPE  C31512379   3.008   3.374   4.875 -0.1408  0.0400  0.1061
  117SOPE  H15X12380   2.980   3.424   4.780 -0.1081 -2.2438 -1.1356
  117SOPE  H15Y12381   2.950   3.436   4.947  1.0510  0.0734  1.0600
  117SOPE  C31612382   2.949   3.235   4.864  0.3460  0.7363  0.0639
  117SOPE  H16X12383   2.843   3.227   4.831  0.4657  0.8273 -0.3424
  117SOPE  H16Y12384   2.948   3.190   4.966 -1.0356  0.4069 -0.0724
  117SOPE  C31712385   3.022   3.137   4.766 -0.2689  0.8111  0.1093
  117SOPE  H17X12386   3.132   3.122   4.765 -0.2150  1.1821 -1.5823
  117SOPE  H17Y12387   3.006   3.190   4.669 -0.5183  0.9683  0.2377
  117SOPE  C31812388   2.966   2.999   4.759 -0.1797  0.1425 -0.6450
  117SOPE  H18X12389   3.018   2.947   4.676 -1.9590  0.6064 -2.0721
  117SOPE  H18Y12390   2.858   2.996   4.736  0.0374  0.5696 -1.7517
  117SOPE  H18Z12391   2.996   2.947   4.852  2.7679 -0.1788 -1.7203
  118SOPE     N12392   4.594   6.410   6.634 -0.2215  1.0410  0.1387
  118SOPE   HN112393   4.575   6.429   6.734  0.7230  0.9060  0.3479
  118SOPE   HN212394   4.655   6.487   6.600  1.1209  0.8304  1.9850
  118SOPE   HN312395   4.503   6.422   6.585  0.4101 -1.4677 -1.7216
  118SOPE   C1212396   4.648   6.270   6.605 -0.0209  0.7285 -0.9923
  118SOPE  H12A12397   4.560   6.202   6.601  0.3985  0.2156 -1.6469
  118SOPE  H12B12398   4.718   6.251   6.690 -0.1486 -0.3712 -1.1244
  118SOPE   C1112399   4.712   6.259   6.463 -0.1617 -0.1846 -0.2141
  118SOPE  H11A12400   4.632   6.242   6.388 -3.8023  0.2380  3.3889
  118SOPE  H11B12401   4.765   6.161   6.470 -1.7388 -0.8937  2.5346
  118SOPE     P12402   4.809   6.428   6.297  0.0845 -0.0534  0.2603
  118SOPE   O1312403   4.902   6.543   6.310  0.1979  0.1077 -0.6466
  118SOPE   O1412404   4.680   6.455   6.237 -1.1615  0.3228 -0.4000
  118SOPE   O1212405   4.800   6.365   6.439 -0.0957 -0.1018  0.0813
  118SOPE   O1112406   4.878   6.316   6.216 -0.2795 -0.2044  0.0590
  118SOPE    C112407   4.863   6.314   6.073  0.0467  0.6878 -0.0100
  118SOPE    HA12408   4.961   6.318   6.022 -0.3866 -0.8927 -0.9867
  118SOPE    HB12409   4.799   6.395   6.032 -1.4197 -1.0017 -1.1264
  118SOPE    C212410   4.791   6.184   6.026 -0.6685 -0.1474  0.2322
  118SOPE    HS12411   4.725   6.157   6.111  0.3294  0.3987  1.1962
  118SOPE   O2112412   4.901   6.089   6.006  0.3594  0.0303 -0.1403
  118SOPE   C2112413   4.867   5.969   5.971 -0.2509  0.4406 -0.3970
  118SOPE   O2212414   4.759   5.920   5.963 -0.0793  0.1058 -0.1461
  118SOPE   C2212415   4.996   5.881   5.953 -0.0864 -1.0245  1.0155
  118SOPE   H2R12416   5.018   5.829   6.049 -0.7646 -0.5175  1.4475
  118SOPE   H2S12417   5.079   5.944   5.912  0.7208 -2.0399  1.0498
  118SOPE    C312418   4.704   6.224   5.909  0.3807 -0.1540 -0.1365
  118SOPE    HX12419   4.622   6.291   5.943  0.4118 -0.5968  0.8224
  118SOPE    HY12420   4.654   6.135   5.866 -1.2585  0.4891  0.3844
  118SOPE   O3112421   4.792   6.296   5.816  0.1718  0.3188 -0.3337
  118SOPE   C3112422   4.755   6.280   5.691  0.2951  0.2065  0.0613
  118SOPE   O3212423   4.665   6.210   5.648 -0.1200  0.4012  0.4413
  118SOPE   C3212424   4.860   6.354   5.603 -0.2916 -0.4711  0.3709
  118SOPE   H2X12425   4.824   6.349   5.498 -2.3987  2.9845  0.8280
  118SOPE   H2Y12426   4.956   6.298   5.610 -0.4938 -0.9027 -0.3181
  118SOPE   C2312427   4.987   5.774   5.844  0.1840 -0.4225  0.0212
  118SOPE   H3R12428   4.931   5.802   5.752  0.0804  1.4737  0.6364
  118SOPE   H3S12429   4.928   5.698   5.900  0.3467 -0.5735 -0.0103
  118SOPE   C2412430   5.119   5.715   5.804 -0.4587  0.0481  0.0335
  118SOPE   H4R12431   5.163   5.783   5.728  0.1351 -1.4771 -1.0132
  118SOPE   H4S12432   5.190   5.705   5.889  0.7901  2.1727 -0.7239
  118SOPE   C2512433   5.097   5.572   5.747 -0.1993 -0.1003 -0.3103
  118SOPE   H5R12434   5.095   5.508   5.838 -2.4367 -1.5674 -1.3358
  118SOPE   H5S12435   5.008   5.562   5.682  1.0038 -2.9619 -1.6223
  118SOPE   C2612436   5.216   5.533   5.659  0.5042  0.2382  0.4632
  118SOPE   H6R12437   5.301   5.502   5.723  1.6509 -2.6152 -2.3267
  118SOPE   H6S12438   5.179   5.440   5.611  2.0934  0.8924 -2.1106
  118SOPE   C2712439   5.268   5.637   5.560 -0.0683 -0.2295  0.0128
  118SOPE   H7R12440   5.182   5.696   5.520  1.6926  0.8899 -2.2021
  118SOPE   H7S12441   5.333   5.712   5.610 -0.4137  2.0228 -2.7877
  118SOPE   C2812442   5.355   5.594   5.441  0.3448 -0.1314 -0.0508
  118SOPE   H8R12443   5.443   5.538   5.480  0.6003 -1.1161 -1.9377
  118SOPE   H8S12444   5.297   5.527   5.374 -0.5797  0.8467 -0.2262
  118SOPE   C2912445   5.399   5.713   5.357 -0.1591  0.1236  0.0884
  118SOPE   H9112446   5.487   5.768   5.394  0.1114 -1.2380  1.5265
  118SOPE  C21012447   5.357   5.754   5.239 -0.7286 -0.4311  0.3783
  118SOPE  H10112448   5.392   5.854   5.210  0.0435 -1.1917 -1.3770
  118SOPE  C21112449   5.241   5.697   5.158 -0.1603 -0.3415 -0.0651
  118SOPE  H11R12450   5.178   5.782   5.122  2.0957  1.5572  0.3437
  118SOPE  H11S12451   5.169   5.627   5.205 -0.2164 -0.9473 -1.0285
  118SOPE  C21212452   5.297   5.619   5.041  0.3694  0.4961  0.1255
  118SOPE  H12R12453   5.211   5.564   4.996  0.3846  1.6744 -1.3907
  118SOPE  H12S12454   5.367   5.541   5.078  2.0821  0.5444 -2.8373
  118SOPE  C21312455   5.351   5.703   4.920 -0.3527 -0.5614 -0.0596
  118SOPE  H13R12456   5.451   5.741   4.950 -1.2539  2.1496 -0.2539
  118SOPE  H13S12457   5.282   5.787   4.896  0.5168  0.2348  0.2024
  118SOPE  C21412458   5.364   5.612   4.802  0.3173  0.1504 -0.3962
  118SOPE  H14R12459   5.268   5.561   4.778 -0.1707  0.7726  0.2242
  118SOPE  H14S12460   5.432   5.527   4.824 -1.1126 -0.2433  2.6967
  118SOPE  C21512461   5.412   5.690   4.679  0.4162  0.3595  0.3164
  118SOPE  H15R12462   5.510   5.741   4.693  0.9766  0.0117 -2.1549
  118SOPE  H15S12463   5.339   5.772   4.665  1.1228  0.6783 -1.6979
  118SOPE  C21612464   5.408   5.599   4.555 -0.2910  0.0715  0.3429
  118SOPE  H16R12465   5.323   5.529   4.570  0.1210 -0.1268  1.8124
  118SOPE  H16S12466   5.496   5.532   4.570 -0.6211 -0.3405  0.4342
  118SOPE  C21712467   5.397   5.677   4.431 -0.2159  0.0761  1.1776
  118SOPE  H17R12468   5.496   5.723   4.410  0.5689 -1.9440  0.2998
  118SOPE  H17S12469   5.330   5.763   4.454 -1.6785 -1.3711  2.4597
  118SOPE  C21812470   5.350   5.589   4.319 -0.8090  0.0045  0.4570
  118SOPE  H18R12471   5.400   5.495   4.287 -0.9697 -0.0157  0.2628
  118SOPE  H18S12472   5.338   5.646   4.224  0.7929 -0.0419  0.2058
  118SOPE  H18T12473   5.250   5.548   4.344 -1.5077 -0.1830 -2.5068
  118SOPE   C3312474   4.884   6.499   5.655 -0.1486 -1.0160 -0.9610
  118SOPE   H3X12475   4.984   6.497   5.704 -0.9768 -1.6425  0.7620
  118SOPE   H3Y12476   4.804   6.539   5.722  1.2693  0.0256  0.1552
  118SOPE   C3412477   4.875   6.605   5.535  0.2801 -0.0191  0.2481
  118SOPE   H4X12478   4.894   6.705   5.579 -0.9252  0.5564 -0.5161
  118SOPE   H4Y12479   4.767   6.616   5.510  0.0399 -1.8532  0.4188
  118SOPE   C3512480   4.950   6.578   5.414 -0.4096  0.2504  0.5764
  118SOPE   H5X12481   4.935   6.649   5.331 -2.3056  0.7368  1.3273
  118SOPE   H5Y12482   4.924   6.479   5.370  1.3355 -0.0137  0.0764
  118SOPE   C3612483   5.104   6.568   5.452  0.3749 -0.1310 -0.2771
  118SOPE   H6X12484   5.119   6.478   5.515 -1.1816  0.5183  1.0727
  118SOPE   H6Y12485   5.147   6.655   5.507 -1.4530  0.6542 -0.0455
  118SOPE   C3712486   5.194   6.544   5.331 -0.1975  0.2648 -0.1134
  118SOPE   H7X12487   5.299   6.544   5.368  0.2748 -0.1011 -1.4440
  118SOPE   H7Y12488   5.180   6.634   5.267 -0.2819 -0.3146 -0.9136
  118SOPE   C3812489   5.181   6.414   5.261 -0.4358  0.1298  0.6370
  118SOPE   H8X12490   5.075   6.387   5.241 -0.3952  0.9745 -0.8673
  118SOPE   H8Y12491   5.220   6.338   5.331  0.8545 -1.3082 -1.5889
  118SOPE   C3912492   5.256   6.403   5.124 -0.3931 -0.1413  0.1094
  118SOPE   H9X12493   5.363   6.428   5.137 -0.3196 -0.2050 -0.3738
  118SOPE   H9Y12494   5.207   6.475   5.055 -0.2862 -1.7597 -1.7042
  118SOPE  C31012495   5.258   6.262   5.056  0.1427 -0.1323  0.0536
  118SOPE  H10X12496   5.325   6.199   5.119 -0.1624  1.1552  1.7089
  118SOPE  H10Y12497   5.287   6.275   4.950  1.8593 -1.1023  0.3756
  118SOPE  C31112498   5.124   6.189   5.038 -0.7699 -0.2285 -0.0257
  118SOPE  H11X12499   5.040   6.247   4.995 -0.7135 -2.3366 -3.1661
  118SOPE  H11Y12500   5.086   6.158   5.137 -2.6138  0.3766 -0.5176
  118SOPE  C31212501   5.143   6.062   4.953 -0.0515  0.1182 -0.0628
  118SOPE  H12X12502   5.112   5.976   5.015  0.6960 -0.8925 -1.0823
  118SOPE  H12Y12503   5.248   6.058   4.916 -0.4690 -2.9029 -1.0371
  118SOPE  C31312504   5.050   6.040   4.826 -0.1893  0.6770  0.1583
  118SOPE  H13X12505   5.060   6.126   4.756  1.6592  0.4733  0.1514
  118SOPE  H13Y12506   4.945   6.060   4.855 -0.2188 -1.5718  1.6919
  118SOPE  C31412507   5.071   5.911   4.749  0.3993  0.5891 -0.7498
  118SOPE  H14X12508   5.065   5.825   4.819 -0.3623 -0.6518 -2.2878
  118SOPE  H14Y12509   5.170   5.919   4.699  0.1311  1.1982 -1.1873
  118SOPE  C31512510   4.979   5.890   4.630  0.1265 -0.1759  0.9738
  118SOPE  H15X12511   4.987   5.977   4.562 -0.3569 -1.3362 -0.6135
  118SOPE  H15Y12512   4.877   5.868   4.668 -0.1686 -1.7544 -0.6462
  118SOPE  C31612513   5.019   5.777   4.535 -0.6791 -0.2925 -0.3745
  118SOPE  H16X12514   5.063   5.698   4.601  0.1065 -0.4896 -1.1276
  118SOPE  H16Y12515   5.094   5.807   4.459 -0.5744  0.4303  0.0122
  118SOPE  C31712516   4.906   5.708   4.457  0.1680  0.3997 -0.0665
  118SOPE  H17X12517   4.868   5.776   4.378  0.8681 -1.0447 -1.6677
  118SOPE  H17Y12518   4.820   5.674   4.519  0.0844  0.9211  0.1050
  118SOPE  C31812519   4.953   5.574   4.386 -0.3787 -0.3687 -0.4381
  118SOPE  H18X12520   4.993   5.498   4.457 -0.2478 -0.6358 -0.7939
  118SOPE  H18Y12521   5.029   5.600   4.308 -0.8736 -0.1306 -0.8425
  118SOPE  H18Z12522   4.861   5.541   4.333 -0.9784  0.6212 -0.0147
  119SOPE     N12523   5.316   5.992   6.276  0.7150 -0.5228  0.2087
  119SOPE   HN112524   5.306   5.909   6.214 -2.7021  0.2368 -0.3375
  119SOPE   HN212525   5.220   6.030   6.285  0.9344  0.1289 -0.1890
  119SOPE   HN312526   5.373   6.070   6.238  0.3668  0.9264  2.5618
  119SOPE   C1212527   5.361   5.970   6.418 -0.2899 -0.1596 -0.3081
  119SOPE  H12A12528   5.304   5.897   6.479  1.9453 -0.7842  1.1121
  119SOPE  H12B12529   5.366   6.068   6.470 -1.3390  0.1939 -0.8526
  119SOPE   C1112530   5.503   5.901   6.409  0.1967 -0.7065  0.5674
  119SOPE  H11A12531   5.484   5.807   6.353  1.1935 -1.4381  1.4248
  119SOPE  H11B12532   5.534   5.873   6.512  1.9008  2.3084  0.9173
  119SOPE     P12533   5.726   5.938   6.282 -0.1383 -0.1315  0.0284
  119SOPE   O1312534   5.809   5.896   6.394 -0.2998  0.1620 -0.6316
  119SOPE   O1412535   5.782   6.048   6.199  0.3782 -0.0230 -0.5374
  119SOPE   O1212536   5.593   5.990   6.345  0.2933 -0.3156 -0.4045
  119SOPE   O1112537   5.687   5.814   6.191  0.1693  0.3049  0.2141
  119SOPE    C112538   5.636   5.839   6.059 -0.6757 -0.1053 -0.3609
  119SOPE    HA12539   5.639   5.945   6.025 -0.9942  0.2047  0.5694
  119SOPE    HB12540   5.537   5.790   6.046  0.3807 -2.2937 -0.3042
  119SOPE    C212541   5.737   5.788   5.951  0.7009 -0.4871 -0.5596
  119SOPE    HS12542   5.753   5.681   5.980 -0.6560  0.3073  3.5404
  119SOPE   O2112543   5.863   5.854   5.962  0.0303 -0.6110 -0.3463
  119SOPE   C2112544   5.944   5.811   5.863  0.1111  0.2487  0.4072
  119SOPE   O2212545   5.943   5.696   5.821 -0.1299  0.7291 -0.4846
  119SOPE   C2212546   6.029   5.935   5.829 -0.6747 -0.2771 -0.3927
  119SOPE   H2R12547   6.098   5.951   5.915 -0.9333 -1.7701  0.1103
  119SOPE   H2S12548   5.962   6.021   5.846  1.2511  1.3879 -1.0031
  119SOPE    C312549   5.675   5.806   5.808  0.1119  0.0782 -0.4011
  119SOPE    HX12550   5.570   5.771   5.823  0.1400  0.0898 -0.1853
  119SOPE    HY12551   5.720   5.742   5.729 -1.4565 -0.2762 -1.0327
  119SOPE   O3112552   5.671   5.946   5.778 -0.0170 -0.4350 -0.2428
  119SOPE   C3112553   5.670   5.979   5.648  1.0847 -0.3504 -0.6781
  119SOPE   O3212554   5.645   5.911   5.558  0.0461 -0.1713 -0.5278
  119SOPE   C3212555   5.683   6.132   5.633 -0.5061  0.4871 -0.4304
  119SOPE   H2X12556   5.757   6.166   5.708 -1.1438  0.7639  0.0771
  119SOPE   H2Y12557   5.580   6.164   5.660 -0.5865  0.7875 -1.0672
  119SOPE   C2312558   6.105   5.929   5.697 -0.4540  0.4695 -0.6859
  119SOPE   H3R12559   6.151   5.828   5.695 -1.0778  0.1099  1.7109
  119SOPE   H3S12560   6.172   6.018   5.702 -0.1532  0.3389 -2.1406
  119SOPE   C2412561   6.030   5.926   5.565  0.3216 -0.3449 -0.5228
  119SOPE   H4R12562   5.956   5.843   5.572  0.4461 -0.4183 -0.0480
  119SOPE   H4S12563   5.962   6.013   5.564  3.5647  2.3116  0.5359
  119SOPE   C2512564   6.120   5.929   5.446 -0.5481  0.3090  0.7314
  119SOPE   H5R12565   6.185   6.019   5.443 -0.8148  0.4505 -1.4179
  119SOPE   H5S12566   6.194   5.846   5.447  1.0178  1.6617  0.1492
  119SOPE   C2612567   6.039   5.924   5.316  0.1562  1.0181  0.4872
  119SOPE   H6R12568   5.970   6.011   5.319 -1.8830 -0.5310 -0.1908
  119SOPE   H6S12569   6.110   5.941   5.232  0.2195  0.3370  0.3972
  119SOPE   C2712570   5.974   5.787   5.292 -0.2545 -0.0110 -0.0936
  119SOPE   H7R12571   6.062   5.723   5.267  0.1708  0.9661 -1.1337
  119SOPE   H7S12572   5.933   5.749   5.389  0.4128 -1.8355 -0.5077
  119SOPE   C2812573   5.872   5.776   5.180  0.0543 -0.2900  0.3968
  119SOPE   H8R12574   5.916   5.812   5.084 -0.1908 -1.1276 -0.0283
  119SOPE   H8S12575   5.856   5.668   5.162 -1.2309 -0.1505  0.6438
  119SOPE   C2912576   5.737   5.839   5.204 -0.0268 -0.0674  0.0007
  119SOPE   H9112577   5.709   5.835   5.310 -2.4638 -0.2625 -0.6158
  119SOPE  C21012578   5.659   5.916   5.118 -0.1419  0.2068  0.2004
  119SOPE  H10112579   5.558   5.948   5.147 -0.2131  0.3834 -0.2326
  119SOPE  C21112580   5.675   5.956   4.971 -0.2832  0.6685  0.0484
  119SOPE  H11R12581   5.727   5.876   4.912  1.6327  0.2279  2.2464
  119SOPE  H11S12582   5.741   6.045   4.973  1.6013 -0.6659 -0.2403
  119SOPE  C21212583   5.550   6.012   4.906 -0.5647  0.0960  0.2709
  119SOPE  H12R12584   5.492   6.075   4.977  1.3762  0.9803  1.0844
  119SOPE  H12S12585   5.478   5.927   4.897  0.3542 -0.7506  0.9314
  119SOPE  C21312586   5.578   6.073   4.765 -0.3710 -0.4424 -0.0589
  119SOPE  H13R12587   5.634   5.996   4.709 -1.4154 -1.3734  0.1577
  119SOPE  H13S12588   5.647   6.160   4.764  0.7576 -1.3362 -1.4733
  119SOPE  C21412589   5.447   6.132   4.697 -0.4193 -1.0253 -0.5514
  119SOPE  H14R12590   5.408   6.217   4.757  1.1115 -0.2856 -0.5578
  119SOPE  H14S12591   5.362   6.063   4.682 -0.3474 -0.9203 -1.4546
  119SOPE  C21512592   5.477   6.178   4.553 -0.9304  0.3167 -0.1594
  119SOPE  H15R12593   5.501   6.083   4.500 -0.3640  0.5394 -0.3057
  119SOPE  H15S12594   5.560   6.250   4.565  0.8260 -1.6761 -0.0691
  119SOPE  C21612595   5.358   6.255   4.496 -0.3128 -0.1579 -0.9205
  119SOPE  H16R12596   5.263   6.206   4.526 -0.2796 -0.1747 -0.8434
  119SOPE  H16S12597   5.361   6.247   4.385  4.5146  1.1516 -0.9905
  119SOPE  C21712598   5.367   6.405   4.526 -0.3280  0.7400 -0.3663
  119SOPE  H17R12599   5.412   6.423   4.626  2.4380 -1.4234 -1.1486
  119SOPE  H17S12600   5.263   6.444   4.535 -0.1804  0.8934  0.7707
  119SOPE  C21812601   5.441   6.489   4.419 -0.3884 -0.1956 -0.0049
  119SOPE  H18R12602   5.427   6.598   4.436  0.8804  0.2881 -1.9533
  119SOPE  H18S12603   5.402   6.471   4.317  1.4430 -2.2657 -0.3743
  119SOPE  H18T12604   5.550   6.470   4.426 -0.5174 -0.7134  0.7072
  119SOPE   C3312605   5.703   6.162   5.486  0.3196  0.3990  0.4320
  119SOPE   H3X12606   5.771   6.089   5.435  0.7924  0.3828  1.0798
  119SOPE   H3Y12607   5.763   6.250   5.454 -0.1418  0.1148 -1.2730
  119SOPE   C3412608   5.579   6.201   5.399  0.0939  0.1391  0.0838
  119SOPE   H4X12609   5.529   6.292   5.440 -0.8184  0.1155 -0.9434
  119SOPE   H4Y12610   5.514   6.112   5.408 -1.8187  1.1385 -3.0006
  119SOPE   C3512611   5.617   6.227   5.252 -0.5357  0.1142  0.5314
  119SOPE   H5X12612   5.524   6.201   5.197  0.7231 -2.9607 -0.2195
  119SOPE   H5Y12613   5.701   6.162   5.223 -1.1630 -0.6721  0.4530
  119SOPE   C3612614   5.654   6.375   5.217 -0.3743  0.2757 -0.1101
  119SOPE   H6X12615   5.738   6.405   5.284 -0.8587  2.8928 -0.6052
  119SOPE   H6Y12616   5.577   6.449   5.249  1.3617  1.6501  1.0075
  119SOPE   C3712617   5.687   6.390   5.065  0.1023  0.5303 -0.1179
  119SOPE   H7X12618   5.590   6.362   5.018 -1.9763  0.7653  3.7800
  119SOPE   H7Y12619   5.771   6.321   5.040 -0.1049  0.3739 -0.3866
  119SOPE   C3812620   5.715   6.531   5.013  0.3882  0.1889 -0.2915
  119SOPE   H8X12621   5.815   6.560   5.052  0.1095 -0.7569  1.1338
  119SOPE   H8Y12622   5.642   6.597   5.064 -0.8314  0.2619 -2.0717
  119SOPE   C3912623   5.707   6.546   4.860 -0.6831  0.4853  0.3531
  119SOPE   H9X12624   5.606   6.553   4.814 -1.5892 -0.0758  2.2060
  119SOPE   H9Y12625   5.771   6.473   4.806 -0.9830  1.5420 -1.4919
  119SOPE  C31012626   5.767   6.684   4.820  0.5886 -0.0372  0.0967
  119SOPE  H10X12627   5.861   6.720   4.866  0.0930  0.9342  0.3812
  119SOPE  H10Y12628   5.701   6.765   4.860 -0.9168 -0.3073 -1.7482
  119SOPE  C31112629   5.778   6.713   4.668  0.0974  0.0615  0.3912
  119SOPE  H11X12630   5.683   6.687   4.616  1.1548  1.9423 -2.5915
  119SOPE  H11Y12631   5.854   6.648   4.619  0.3537 -1.2826  2.4895
  119SOPE  C31212632   5.833   6.854   4.631  0.3933  0.1251 -1.6049
  119SOPE  H12X12633   5.842   6.855   4.520  1.4606  1.2117 -1.5142
  119SOPE  H12Y12634   5.935   6.869   4.673  0.5421  2.6586 -2.7751
  119SOPE  C31312635   5.731   6.955   4.668 -0.6174 -0.0340 -0.3874
  119SOPE  H13X12636   5.743   6.976   4.777  1.0065 -0.6558 -0.4362
  119SOPE  H13Y12637   5.628   6.916   4.656  0.3088 -2.0910 -1.9432
  119SOPE  C31412638   5.741   7.086   4.588  0.0925 -0.4434  0.1504
  119SOPE  H14X12639   5.795   7.066   4.493  2.8764  1.1669  1.3472
  119SOPE  H14Y12640   5.813   7.152   4.640 -2.1134  2.9346 -0.9230
  119SOPE  C31512641   5.604   7.144   4.559  0.2484 -0.0183 -0.0961
  119SOPE  H15X12642   5.562   7.185   4.654  0.5775  1.4920 -0.5874
  119SOPE  H15Y12643   5.530   7.066   4.530 -1.4419  0.9879  1.3870
  119SOPE  C31612644   5.585   7.252   4.451 -1.1884 -0.0227 -0.0073
  119SOPE  H16X12645   5.622   7.352   4.483  0.6792 -0.0991 -1.8170
  119SOPE  H16Y12646   5.483   7.275   4.415 -0.7840  1.1004 -0.4740
  119SOPE  C31712647   5.675   7.225   4.326 -0.7741 -0.7658 -0.1509
  119SOPE  H17X12648   5.775   7.198   4.367 -1.6425 -0.5979  2.1394
  119SOPE  H17Y12649   5.688   7.314   4.261 -0.6951  0.2027  1.1804
  119SOPE  C31812650   5.644   7.097   4.244 -0.3798 -0.2597  0.4958
  119SOPE  H18X12651   5.535   7.076   4.248 -0.0040 -2.1283  1.3055
  119SOPE  H18Y12652   5.693   7.010   4.292  3.3290  0.3753 -1.8551
  119SOPE  H18Z12653   5.666   7.103   4.135  1.7725 -2.8004  0.7337
  120SOPE     N12654   5.817   0.394   6.056 -0.6427 -0.0621 -0.1944
  120SOPE   HN112655   5.888   0.420   5.985  0.5838 -2.4599  0.0952
  120SOPE   HN212656   5.858   0.301   6.078 -1.8816 -0.2080  1.6229
  120SOPE   HN312657   5.732   0.383   5.998  0.4332 -0.0825 -1.7805
  120SOPE   C1212658   5.810   0.487   6.173 -0.3292 -0.8485  0.3678
  120SOPE  H12A12659   5.889   0.457   6.245 -0.3171  1.5995  1.4189
  120SOPE  H12B12660   5.711   0.477   6.221  0.4628 -0.5180  2.0761
  120SOPE   C1112661   5.810   0.637   6.120  0.1252 -0.1848 -0.3191
  120SOPE  H11A12662   5.734   0.645   6.040 -0.8333  3.3882  0.8356
  120SOPE  H11B12663   5.914   0.670   6.097 -0.3807  2.0931  0.5117
  120SOPE     P12664   5.847   0.788   6.338  0.4102 -0.3085 -0.1707
  120SOPE   O1312665   5.931   0.689   6.402 -0.3766 -0.3371 -0.5502
  120SOPE   O1412666   5.758   0.869   6.428 -0.4553  0.6778 -0.0754
  120SOPE   O1212667   5.755   0.724   6.226 -0.2563  0.6983 -0.6295
  120SOPE   O1112668   5.935   0.897   6.264 -1.2545 -0.1714  0.0775
  120SOPE    C112669   5.862   0.998   6.190  0.2313 -0.5536  0.2470
  120SOPE    HA12670   5.917   1.094   6.206  0.9564 -0.9394  0.0725
  120SOPE    HB12671   5.758   1.001   6.228 -0.0499 -1.5768 -0.4365
  120SOPE    C212672   5.871   0.984   6.039  0.3980 -0.1934  0.0057
  120SOPE    HS12673   5.826   0.886   6.011 -1.0593  0.9954 -1.8937
  120SOPE   O2112674   6.008   0.990   6.005  0.5450 -0.3797  0.3505
  120SOPE   C2112675   6.047   0.899   5.924 -0.2703 -0.0997  0.4157
  120SOPE   O2212676   5.984   0.805   5.880  0.3174  0.6553 -0.1882
  120SOPE   C2212677   6.189   0.940   5.866  0.7386  0.1063 -0.4160
  120SOPE   H2R12678   6.250   0.990   5.944  3.1831  0.2162 -2.3726
  120SOPE   H2S12679   6.166   1.025   5.799  0.2548  1.2110  1.1120
  120SOPE    C312680   5.784   1.100   5.996  0.3089 -0.5258 -0.9348
  120SOPE    HX12681   5.810   1.200   6.037 -1.6513 -0.0286 -0.8868
  120SOPE    HY12682   5.680   1.079   6.027  1.2024 -1.0014  1.8610
  120SOPE   O3112683   5.782   1.081   5.852  0.4655 -0.1930 -0.0022
  120SOPE   C3112684   5.870   1.152   5.776  0.1287  0.4131 -0.9532
  120SOPE   O3212685   5.954   1.228   5.820  0.6964 -0.0949  0.1835
  120SOPE   C3212686   5.858   1.110   5.629  0.1257 -0.2483 -1.2098
  120SOPE   H2X12687   5.940   1.159   5.571  0.5441 -0.0876 -0.4828
  120SOPE   H2Y12688   5.768   1.166   5.596  1.5377  2.4582 -0.6734
  120SOPE   C2312689   6.283   0.838   5.800  0.4784 -0.2098  1.1984
  120SOPE   H3R12690   6.217   0.752   5.777  0.1964  0.4774 -0.6989
  120SOPE   H3S12691   6.342   0.789   5.880 -1.1725 -1.5578  1.6051
  120SOPE   C2412692   6.359   0.905   5.684  0.3741  0.7182  0.1532
  120SOPE   H4R12693   6.296   0.943   5.601 -0.7995  2.4982  1.7835
  120SOPE   H4S12694   6.420   0.990   5.720  0.8820 -0.3529  1.8826
  120SOPE   C2512695   6.462   0.808   5.615  0.4812 -0.0801 -0.7636
  120SOPE   H5R12696   6.552   0.784   5.676  1.0497  0.2717 -1.4428
  120SOPE   H5S12697   6.413   0.711   5.592  2.3103 -0.8231 -1.7024
  120SOPE   C2612698   6.507   0.866   5.474 -0.5297 -0.3204 -0.8413
  120SOPE   H6R12699   6.534   0.973   5.490 -0.8181 -0.3601 -0.0498
  120SOPE   H6S12700   6.596   0.805   5.447  1.1029  1.0438  1.3209
  120SOPE   C2712701   6.412   0.843   5.358 -0.0357  0.1330  0.4122
  120SOPE   H7R12702   6.380   0.736   5.366  0.8608 -0.2088 -0.5116
  120SOPE   H7S12703   6.321   0.907   5.366 -0.6128 -0.7022  0.6773
  120SOPE   C2812704   6.481   0.865   5.222  0.0357 -0.0557 -1.1574
  120SOPE   H8R12705   6.402   0.866   5.143 -0.5399  0.1275 -0.5809
  120SOPE   H8S12706   6.522   0.968   5.228 -0.3446  0.1047 -1.2843
  120SOPE   C2912707   6.594   0.782   5.171  0.1364 -0.2202 -0.0558
  120SOPE   H9112708   6.689   0.804   5.222  0.4611 -0.0339 -0.7380
  120SOPE  C21012709   6.588   0.693   5.071 -0.2404 -0.0509 -0.7622
  120SOPE  H10112710   6.679   0.634   5.052  1.3513  2.6042 -1.7477
  120SOPE  C21112711   6.463   0.656   4.989  0.4703  0.0747  0.7015
  120SOPE  H11R12712   6.369   0.705   5.023  0.4124  0.0166  0.6271
  120SOPE  H11S12713   6.458   0.545   5.003  0.7236  0.1882  1.7486
  120SOPE  C21212714   6.483   0.671   4.838 -0.6183  0.3360  0.0137
  120SOPE  H12R12715   6.578   0.621   4.810  0.3649  1.5494  1.1107
  120SOPE  H12S12716   6.507   0.778   4.821  0.7033 -0.1106 -1.0384
  120SOPE  C21312717   6.373   0.615   4.751 -0.1778 -0.1504 -0.3792
  120SOPE  H13R12718   6.283   0.670   4.784  0.4405  0.0616  0.9852
  120SOPE  H13S12719   6.346   0.508   4.765 -0.8365  0.1758  0.8884
  120SOPE  C21412720   6.393   0.653   4.606  0.9177 -0.2815 -0.2201
  120SOPE  H14R12721   6.461   0.585   4.552 -1.1468 -1.6541 -1.1501
  120SOPE  H14S12722   6.460   0.742   4.598  1.2710 -0.5273  0.0079
  120SOPE  C21512723   6.258   0.680   4.531 -0.4240 -0.3743 -0.2085
  120SOPE  H15R12724   6.216   0.781   4.548  0.7080 -0.0427  0.6613
  120SOPE  H15S12725   6.188   0.598   4.559  1.7586 -2.4851 -0.7337
  120SOPE  C21612726   6.279   0.670   4.379 -0.4061  0.8588  0.1427
  120SOPE  H16R12727   6.335   0.575   4.363 -0.1419  0.5692  2.5440
  120SOPE  H16S12728   6.340   0.757   4.349 -2.2408  2.2631  0.3669
  120SOPE  C21712729   6.150   0.669   4.302  0.8509  0.2646 -0.8423
  120SOPE  H17R12730   6.150   0.732   4.211 -1.9595  0.4045 -0.7764
  120SOPE  H17S12731   6.084   0.729   4.368 -0.1357 -1.7545  0.0518
  120SOPE  C21812732   6.081   0.529   4.282  0.2667 -0.2707 -0.2756
  120SOPE  H18R12733   5.972   0.545   4.296  0.2464  0.2681 -1.0287
  120SOPE  H18S12734   6.133   0.463   4.355  1.4828  0.9336 -0.0199
  120SOPE  H18T12735   6.091   0.488   4.180  0.0290 -1.8232  0.3076
  120SOPE   C3312736   5.842   0.957   5.593 -0.3076 -1.1828  0.1134
  120SOPE   H3X12737   5.745   0.917   5.630 -0.3703 -1.3874 -0.2733
  120SOPE   H3Y12738   5.926   0.893   5.629  0.4184 -0.2473  0.1196
  120SOPE   C3412739   5.861   0.939   5.440 -0.2892  0.2791 -0.0210
  120SOPE   H4X12740   5.810   1.017   5.379 -0.5731  0.0343 -0.0969
  120SOPE   H4Y12741   5.838   0.833   5.418  2.3075 -0.4019  0.4870
  120SOPE   C3512742   6.007   0.954   5.403  0.2128  0.4585  0.2271
  120SOPE   H5X12743   6.077   0.899   5.469  0.8748  3.7949  2.4578
  120SOPE   H5Y12744   6.039   1.060   5.414  0.4387  0.3893  0.2495
  120SOPE   C3612745   6.037   0.912   5.261 -0.1666 -0.4340  0.2662
  120SOPE   H6X12746   5.989   0.815   5.239 -0.5371 -1.0563  3.6667
  120SOPE   H6Y12747   6.147   0.911   5.250 -0.1773  0.5379 -0.0587
  120SOPE   C3712748   5.987   1.022   5.165 -0.4570  0.2706 -0.0286
  120SOPE   H7X12749   5.904   1.091   5.194 -1.6814 -0.9744 -0.4832
  120SOPE   H7Y12750   5.933   0.967   5.085 -0.5718 -0.9631  0.8700
  120SOPE   C3812751   6.114   1.101   5.113 -0.8249 -0.2870 -0.0055
  120SOPE   H8X12752   6.188   1.125   5.192 -0.2873  0.1087 -0.6217
  120SOPE   H8Y12753   6.082   1.205   5.089  0.0085  0.9656  4.0325
  120SOPE   C3912754   6.185   1.035   4.996  0.6201 -0.0438  0.0743
  120SOPE   H9X12755   6.122   1.027   4.906  0.8988 -1.1806 -0.0196
  120SOPE   H9Y12756   6.208   0.930   5.023 -2.7988 -0.8078  0.2050
  120SOPE  C31012757   6.310   1.095   4.949 -0.0546 -0.7824  0.1743
  120SOPE  H10X12758   6.389   1.096   5.026  1.0661  0.2846 -0.9632
  120SOPE  H10Y12759   6.306   1.206   4.950 -0.3966 -0.7762 -0.6370
  120SOPE  C31112760   6.362   1.053   4.807 -0.1610 -0.8492 -0.8833
  120SOPE  H11X12761   6.332   0.946   4.794  1.1465 -1.7325  2.7902
  120SOPE  H11Y12762   6.472   1.059   4.806 -0.1978  1.0691  1.8010
  120SOPE  C31212763   6.299   1.131   4.689  0.1292 -0.0528  0.0308
  120SOPE  H12X12764   6.327   1.237   4.710 -0.2253 -0.0624  0.5656
  120SOPE  H12Y12765   6.189   1.135   4.709  0.6124  1.6668  2.7063
  120SOPE  C31312766   6.327   1.078   4.549 -0.8081  0.3727  0.5791
  120SOPE  H13X12767   6.327   0.967   4.548  0.1384  0.3331 -3.5538
  120SOPE  H13Y12768   6.427   1.110   4.515 -0.4352 -1.6616 -0.2341
  120SOPE  C31412769   6.217   1.123   4.454  1.0684 -0.5631  0.3489
  120SOPE  H14X12770   6.193   1.229   4.478  0.8885 -0.2213 -1.2660
  120SOPE  H14Y12771   6.128   1.058   4.468  0.5844 -0.0336 -0.2448
  120SOPE  C31512772   6.258   1.113   4.306 -0.0186 -0.2881 -0.7734
  120SOPE  H15X12773   6.295   1.010   4.290 -0.3469 -0.3195 -1.3214
  120SOPE  H15Y12774   6.348   1.178   4.293 -0.4494  0.4518 -0.1510
  120SOPE  C31612775   6.157   1.149   4.204  0.6416 -0.2187  0.4832
  120SOPE  H16X12776   6.071   1.079   4.198  1.0882 -0.5406 -3.3289
  120SOPE  H16Y12777   6.197   1.142   4.100 -1.4690  2.3381 -0.5805
  120SOPE  C31712778   6.105   1.293   4.214  0.2550  0.0864  0.5554
  120SOPE  H17X12779   6.193   1.356   4.244  1.2751  0.1758 -2.4835
  120SOPE  H17Y12780   6.030   1.300   4.295  1.5692 -2.8293  2.1009
  120SOPE  C31812781   6.046   1.335   4.084  0.3549 -0.1483 -0.1372
  120SOPE  H18X12782   6.115   1.308   4.001 -0.8761  0.5261 -1.3935
  120SOPE  H18Y12783   6.017   1.442   4.086  0.0738 -0.2350  1.8516
  120SOPE  H18Z12784   5.958   1.270   4.067  0.4156 -0.3551  0.3143
  121SOPE     N12785   6.204   6.598   6.346  0.9919  0.6589  0.3040
  121SOPE   HN112786   6.233   6.582   6.247 -1.0972  2.0422 -0.5628
  121SOPE   HN212787   6.157   6.691   6.339 -0.8186 -0.2028  0.7798
  121SOPE   HN312788   6.292   6.605   6.401  1.0409  0.8961  0.1991
  121SOPE   C1212789   6.106   6.500   6.400  0.0239  0.3572  0.3403
  121SOPE  H12A12790   6.081   6.526   6.505 -1.0680  0.8388 -0.0284
  121SOPE  H12B12791   6.166   6.407   6.407  0.0345  0.5585  3.9016
  121SOPE   C1112792   5.974   6.491   6.316 -1.1276 -0.0068  0.6057
  121SOPE  H11A12793   5.928   6.395   6.349 -0.2965 -0.2332  1.1194
  121SOPE  H11B12794   5.996   6.467   6.210  1.1973  2.4214  0.4876
  121SOPE     P12795   5.878   6.721   6.237  0.2044  0.1557 -0.5071
  121SOPE   O1312796   6.013   6.792   6.248  0.1780 -0.4530  0.1666
  121SOPE   O1412797   5.758   6.806   6.263 -0.1706 -0.1702  0.5693
  121SOPE   O1212798   5.880   6.596   6.330 -0.7267  0.0672  0.2260
  121SOPE   O1112799   5.853   6.663   6.097 -0.6292 -0.4771 -0.0633
  121SOPE    C112800   5.761   6.558   6.074  0.3479  0.9767  0.6166
  121SOPE    HA12801   5.667   6.581   6.129 -1.2700  2.9640 -2.8364
  121SOPE    HB12802   5.799   6.459   6.107 -0.6983  1.0933  2.2528
  121SOPE    C212803   5.722   6.533   5.916 -0.0896 -0.4469  0.0338
  121SOPE    HS12804   5.672   6.434   5.909 -0.3622 -0.3189  0.1142
  121SOPE   O2112805   5.838   6.545   5.831 -0.0020 -0.1743 -0.0400
  121SOPE   C2112806   5.922   6.442   5.845 -0.0261 -0.5272 -0.4288
  121SOPE   O2212807   5.912   6.348   5.926  0.1566  0.0412  0.6648
  121SOPE   C2212808   6.044   6.474   5.766 -0.4704 -0.1743 -0.1362
  121SOPE   H2R12809   6.132   6.464   5.832  2.5207  2.1835 -3.6007
  121SOPE   H2S12810   6.048   6.583   5.746  0.1273  0.0813  1.3600
  121SOPE    C312811   5.625   6.641   5.864 -0.3574 -0.3598 -0.0325
  121SOPE    HX12812   5.666   6.741   5.887  2.1977 -1.0050 -1.6801
  121SOPE    HY12813   5.527   6.644   5.918 -1.7042  0.0174 -2.4267
  121SOPE   O3112814   5.591   6.628   5.725 -0.0251  0.0360 -0.1343
  121SOPE   C3112815   5.622   6.730   5.641 -0.3840  0.0490  0.4298
  121SOPE   O3212816   5.663   6.839   5.672 -0.2743  0.1224  0.2581
  121SOPE   C3212817   5.585   6.689   5.496 -0.5240  0.0265 -0.6678
  121SOPE   H2X12818   5.535   6.590   5.486 -2.0471  0.4892  1.7585
  121SOPE   H2Y12819   5.687   6.676   5.455 -0.7521 -1.0343 -0.9190
  121SOPE   C2312820   6.065   6.403   5.626  0.0541 -0.1170  0.1859
  121SOPE   H3R12821   6.040   6.295   5.633  1.2163 -0.4419 -0.5416
  121SOPE   H3S12822   6.171   6.409   5.593 -1.0377 -0.0726 -3.4791
  121SOPE   C2412823   5.983   6.475   5.513 -0.4129 -0.2375  0.7168
  121SOPE   H4R12824   5.991   6.415   5.420 -1.4119  2.0938 -0.9211
  121SOPE   H4S12825   5.878   6.479   5.550 -1.4198  0.4042 -2.0544
  121SOPE   C2512826   6.027   6.617   5.470  0.7422  0.8897 -0.3005
  121SOPE   H5R12827   5.999   6.687   5.552 -0.6630  0.8186 -0.7098
  121SOPE   H5S12828   6.138   6.620   5.464  0.7399 -0.1424 -0.9688
  121SOPE   C2612829   5.972   6.668   5.333 -0.3914 -0.3101 -0.3108
  121SOPE   H6R12830   6.008   6.609   5.246  1.4279  3.4952 -2.2913
  121SOPE   H6S12831   5.862   6.664   5.341 -0.3418 -1.1874  0.0307
  121SOPE   C2712832   6.012   6.809   5.308 -0.2974  0.5539  0.6512
  121SOPE   H7R12833   6.122   6.808   5.322 -0.2268  0.6337  0.1038
  121SOPE   H7S12834   5.992   6.833   5.202  0.1135  1.1573  0.7091
  121SOPE   C2812835   5.938   6.897   5.408 -0.1207 -0.7482 -0.3241
  121SOPE   H8R12836   5.838   6.851   5.424 -0.6471  0.8457  1.1228
  121SOPE   H8S12837   5.994   6.875   5.502 -1.6842 -2.7441  0.1768
  121SOPE   C2912838   5.937   7.049   5.366  0.4262 -0.5369  0.4298
  121SOPE   H9112839   5.842   7.073   5.315  0.7720  2.3011  1.0410
  121SOPE  C21012840   6.032   7.140   5.393  0.2000  0.5090 -0.1096
  121SOPE  H10112841   6.031   7.242   5.352  0.2695  1.0025  1.0807
  121SOPE  C21112842   6.158   7.110   5.470 -0.7604  0.8960  0.0642
  121SOPE  H11R12843   6.150   7.013   5.522 -0.2325  0.5722 -0.4595
  121SOPE  H11S12844   6.172   7.184   5.552 -1.0351 -0.0438  0.9746
  121SOPE  C21212845   6.286   7.097   5.376 -0.3381  0.3838  0.4739
  121SOPE  H12R12846   6.255   7.034   5.291 -0.8573  1.8628 -0.4639
  121SOPE  H12S12847   6.355   7.041   5.442 -1.1348 -1.7951 -0.5233
  121SOPE  C21312848   6.347   7.225   5.335  0.0606 -0.3939  0.8007
  121SOPE  H13R12849   6.365   7.288   5.424  0.7719  1.4563 -0.6340
  121SOPE  H13S12850   6.284   7.285   5.266 -1.9030 -2.9397  0.3160
  121SOPE  C21412851   6.480   7.193   5.266  0.2064  0.1792  0.2545
  121SOPE  H14R12852   6.470   7.138   5.170  2.7928 -0.7184  0.4484
  121SOPE  H14S12853   6.543   7.133   5.336 -1.1731 -0.9220  0.5720
  121SOPE  C21512854   6.567   7.309   5.218  0.1185 -0.2378  0.5656
  121SOPE  H15R12855   6.675   7.290   5.199 -0.0647  0.4706 -1.2826
  121SOPE  H15S12856   6.563   7.379   5.305  0.5160 -0.3666  0.6893
  121SOPE  C21612857   6.519   7.370   5.090  0.0294 -0.2602  0.4427
  121SOPE  H16R12858   6.408   7.378   5.079  0.0634 -1.0202 -0.4613
  121SOPE  H16S12859   6.533   7.289   5.016 -0.5434 -0.8828  1.0025
  121SOPE  C21712860   6.584   7.505   5.064  0.4454  0.4163  0.4476
  121SOPE  H17R12861   6.583   7.561   5.160  1.4824 -0.5673  1.0477
  121SOPE  H17S12862   6.521   7.559   4.990 -0.5959  0.0544  1.0719
  121SOPE  C21812863   6.726   7.496   5.004 -0.2175 -0.1816 -0.5635
  121SOPE  H18R12864   6.795   7.460   5.083 -0.7880  2.2811  1.1056
  121SOPE  H18S12865   6.753   7.599   4.972  0.1175  0.8609  2.8827
  121SOPE  H18T12866   6.734   7.418   4.925  2.3533 -1.1062  0.5480
  121SOPE   C3312867   5.508   6.799   5.425 -0.1975  0.1631  0.2075
  121SOPE   H3X12868   5.570   6.891   5.424 -0.0147  0.0876  2.1330
  121SOPE   H3Y12869   5.408   6.815   5.472  0.7612 -1.8969  3.0698
  121SOPE   C3412870   5.497   6.759   5.272  0.1586  0.1771  0.5223
  121SOPE   H4X12871   5.444   6.663   5.254 -2.6362  1.3426  2.0741
  121SOPE   H4Y12872   5.595   6.752   5.220 -0.2823 -1.9394 -0.0715
  121SOPE   C3512873   5.417   6.862   5.181  0.2553 -0.6334 -0.5246
  121SOPE   H5X12874   5.310   6.869   5.212 -0.5589  0.4809 -3.3928
  121SOPE   H5Y12875   5.410   6.821   5.078  1.4424  0.1721 -0.9301
  121SOPE   C3612876   5.479   7.001   5.172  0.1993  0.1748  0.0839
  121SOPE   H6X12877   5.486   7.051   5.271 -1.5789 -1.4621  1.0865
  121SOPE   H6Y12878   5.419   7.066   5.105  1.2002 -0.0383 -1.0291
  121SOPE   C3712879   5.622   7.001   5.107 -0.3031 -0.4006 -0.2836
  121SOPE   H7X12880   5.606   6.951   5.009 -1.7899 -0.9868  0.2408
  121SOPE   H7Y12881   5.698   6.944   5.163  1.1609  0.2606 -1.5455
  121SOPE   C3812882   5.674   7.149   5.076 -0.0065 -0.7890 -0.7255
  121SOPE   H8X12883   5.657   7.211   5.166  2.6358 -0.8172 -0.1625
  121SOPE   H8Y12884   5.611   7.193   4.995  0.9089  0.4719 -0.7660
  121SOPE   C3912885   5.822   7.156   5.031  0.0018  0.3676 -0.8922
  121SOPE   H9X12886   5.825   7.106   4.932 -0.4086 -1.5451  0.0578
  121SOPE   H9Y12887   5.900   7.111   5.096 -0.7699  1.8769  1.1383
  121SOPE  C31012888   5.861   7.305   5.004 -1.2031 -0.1343 -0.2166
  121SOPE  H10X12889   5.884   7.349   5.103  1.0931 -1.2081 -0.2275
  121SOPE  H10Y12890   5.771   7.353   4.960 -0.7529  0.2905 -0.6749
  121SOPE  C31112891   5.968   7.325   4.897 -0.1103 -0.2686  0.2668
  121SOPE  H11X12892   5.965   7.245   4.820 -1.4460  0.3082 -0.3027
  121SOPE  H11Y12893   6.070   7.325   4.942 -0.3126 -1.3786  0.7179
  121SOPE  C31212894   5.945   7.462   4.825 -0.6347  0.5191  0.4616
  121SOPE  H12X12895   6.044   7.500   4.793  1.7084 -3.7554  2.2049
  121SOPE  H12Y12896   5.890   7.532   4.892 -0.4059  1.3241 -0.1898
  121SOPE  C31312897   5.847   7.451   4.698  0.0523  0.0870 -0.5227
  121SOPE  H13X12898   5.792   7.542   4.665  1.3786 -0.3787 -4.1385
  121SOPE  H13Y12899   5.764   7.386   4.734  0.7293  0.4588  1.8445
  121SOPE  C31412900   5.933   7.403   4.581  0.2325  0.2208 -0.2340
  121SOPE  H14X12901   5.877   7.341   4.507  0.6294 -0.9950  0.4684
  121SOPE  H14Y12902   6.017   7.343   4.620 -0.2006  1.6185  3.0111
  121SOPE  C31512903   5.990   7.529   4.508  0.1535  0.1614  0.5006
  121SOPE  H15X12904   6.018   7.614   4.574  2.1831 -0.5069  0.5089
  121SOPE  H15Y12905   5.916   7.561   4.431 -1.5971  0.0534  2.0852
  121SOPE  C31612906   6.136   7.511   4.444 -0.1336 -0.4420  1.1518
  121SOPE  H16X12907   6.154   7.593   4.372 -0.7423 -1.0712  0.2654
  121SOPE  H16Y12908   6.133   7.413   4.393 -0.3376 -0.3008  0.8909
  121SOPE  C31712909   6.249   7.523   4.549 -0.2510  0.2648 -0.1112
  121SOPE  H17X12910   6.258   7.427   4.604  0.7359 -0.1583 -0.9879
  121SOPE  H17Y12911   6.234   7.614   4.611 -0.7047 -0.1998  0.4610
  121SOPE  C31812912   6.385   7.546   4.478 -0.1791  0.3179 -0.5806
  121SOPE  H18X12913   6.459   7.582   4.552 -1.1275  4.3014 -1.4666
  121SOPE  H18Y12914   6.370   7.636   4.414 -0.8109 -1.1197 -2.5196
  121SOPE  H18Z12915   6.419   7.462   4.413  0.5724  0.0110  0.2069
  122SOPE     N12916   7.096   0.143   6.033  0.6224  0.9612  0.0412
  122SOPE   HN112917   7.168   0.212   6.063 -0.4927  1.5230  1.5276
  122SOPE   HN212918   7.103   0.062   6.097 -0.1842  2.5119  2.1817
  122SOPE   HN312919   7.110   0.104   5.938 -0.7234  1.8491 -0.5374
  122SOPE   C1212920   6.968   0.221   6.046  0.1267  0.8524 -0.2492
  122SOPE  H12A12921   6.887   0.152   6.016  0.6973 -0.8300  1.9393
  122SOPE  H12B12922   6.968   0.301   5.969 -0.3770 -0.7524 -1.9528
  122SOPE   C1112923   6.942   0.272   6.191 -0.3025 -0.1107 -0.2835
  122SOPE  H11A12924   6.854   0.339   6.207  0.3837  1.0994 -1.4924
  122SOPE  H11B12925   7.029   0.338   6.213 -0.6905  0.7138 -1.1522
  122SOPE     P12926   6.816   0.087   6.336  0.3471 -0.0085  0.0945
  122SOPE   O1312927   6.856   0.049   6.474 -0.6817  0.2004 -0.1471
  122SOPE   O1412928   6.773  -0.021   6.238 -0.1164  0.0845  0.5078
  122SOPE   O1212929   6.941   0.163   6.281 -0.3938  0.3635 -0.2743
  122SOPE   O1112930   6.712   0.202   6.362 -0.8215 -0.8053  0.2563
  122SOPE    C112931   6.577   0.191   6.381  0.4016 -0.0392 -0.7723
  122SOPE    HA12932   6.543   0.264   6.457  0.8542 -0.3261 -0.2933
  122SOPE    HB12933   6.550   0.094   6.427 -0.9301  0.2478 -0.9204
  122SOPE    C212934   6.489   0.220   6.257  0.4670 -0.3609  0.4471
  122SOPE    HS12935   6.382   0.222   6.288  0.1628 -0.6992 -0.5606
  122SOPE   O2112936   6.508   0.113   6.157 -0.3484 -0.2976 -0.5540
  122SOPE   C2112937   6.452   0.002   6.176  0.2337  0.1308 -0.1637
  122SOPE   O2212938   6.367  -0.023   6.265  0.0518 -0.0055  0.2879
  122SOPE   C2212939   6.485  -0.087   6.060  0.4413  0.2333  0.0355
  122SOPE   H2R12940   6.438  -0.187   6.069 -0.2547  0.5882  0.3380
  122SOPE   H2S12941   6.595  -0.099   6.058  0.3613 -0.5563 -2.4853
  122SOPE    C312942   6.524   0.355   6.191 -0.5060 -0.5390 -0.4789
  122SOPE    HX12943   6.631   0.357   6.162 -0.2407 -0.9374  0.4622
  122SOPE    HY12944   6.521   0.433   6.270 -1.1135  0.1101 -1.1253
  122SOPE   O3112945   6.440   0.389   6.073 -0.1591 -0.3374 -0.0921
  122SOPE   C3112946   6.494   0.361   5.956 -0.7556  0.6601 -0.0400
  122SOPE   O3212947   6.612   0.340   5.931  0.1644  0.3670  0.1404
  122SOPE   C3212948   6.386   0.348   5.848  0.0454 -0.0471  0.3531
  122SOPE   H2X12949   6.290   0.320   5.898 -0.6331 -0.9653 -1.4336
  122SOPE   H2Y12950   6.418   0.280   5.767  2.5507  1.5290 -0.0081
  122SOPE   C2312951   6.433  -0.024   5.928  0.2850 -0.1635  0.2579
  122SOPE   H3R12952   6.494   0.066   5.903 -0.8395  0.5474  0.0797
  122SOPE   H3S12953   6.330   0.009   5.949  0.4902  0.1954  0.6945
  122SOPE   C2412954   6.433  -0.126   5.808 -0.0456 -0.0754 -0.4595
  122SOPE   H4R12955   6.389  -0.223   5.840 -1.2114  0.2989 -0.8941
  122SOPE   H4S12956   6.368  -0.096   5.723 -0.7317 -0.1165  0.0492
  122SOPE   C2512957   6.576  -0.154   5.763 -0.2037 -0.0012  0.4645
  122SOPE   H5R12958   6.653  -0.152   5.844 -0.7008  1.8893  0.9197
  122SOPE   H5S12959   6.568  -0.257   5.721 -0.5369  1.2896 -2.7364
  122SOPE   C2612960   6.632  -0.061   5.649 -0.1411  0.0210 -0.4207
  122SOPE   H6R12961   6.716  -0.116   5.601  0.6084 -0.5446  1.4820
  122SOPE   H6S12962   6.551  -0.040   5.576 -1.8353 -0.1216  1.3929
  122SOPE   C2712963   6.678   0.082   5.691  0.1426  0.2681  0.0911
  122SOPE   H7R12964   6.591   0.151   5.686  0.6086  0.8929  0.5148
  122SOPE   H7S12965   6.721   0.065   5.792 -1.4342 -0.9234  0.5789
  122SOPE   C2812966   6.797   0.137   5.611 -0.8911 -0.1809  0.4932
  122SOPE   H8R12967   6.843   0.200   5.690 -0.3426 -0.5776  0.4900
  122SOPE   H8S12968   6.878   0.066   5.585 -1.3183  0.1167 -1.7739
  122SOPE   C2912969   6.752   0.198   5.484  0.3379 -0.0955  0.4374
  122SOPE   H9112970   6.726   0.121   5.410 -1.2904  1.1480 -0.3303
  122SOPE  C21012971   6.743   0.327   5.450  0.0345  0.4832 -0.4066
  122SOPE  H10112972   6.720   0.365   5.349 -0.7330  1.2075  0.0321
  122SOPE  C21112973   6.786   0.435   5.543  0.2163  0.1439 -0.9156
  122SOPE  H11R12974   6.865   0.411   5.617  0.4763  0.9510 -0.9290
  122SOPE  H11S12975   6.695   0.473   5.592  0.3292 -1.3070  0.4490
  122SOPE  C21212976   6.845   0.553   5.465  0.3048  0.4307 -0.1784
  122SOPE  H12R12977   6.762   0.600   5.407  1.4992  0.9382 -1.4994
  122SOPE  H12S12978   6.920   0.526   5.388  0.3833 -0.4822  0.2092
  122SOPE  C21312979   6.908   0.646   5.563 -0.1088  0.3264  0.2909
  122SOPE  H13R12980   6.868   0.640   5.666 -0.3887 -2.2058  0.0670
  122SOPE  H13S12981   6.900   0.751   5.527 -0.6119 -0.2563 -1.3321
  122SOPE  C21412982   7.061   0.614   5.569  0.4407  0.5264  0.1972
  122SOPE  H14R12983   7.124   0.636   5.480 -0.0327  1.9937  0.2069
  122SOPE  H14S12984   7.070   0.508   5.599  2.6398  0.4162 -0.7664
  122SOPE  C21512985   7.138   0.696   5.671  1.1570  0.0431 -0.0218
  122SOPE  H15R12986   7.086   0.670   5.765 -0.1609 -0.0471 -0.7650
  122SOPE  H15S12987   7.113   0.804   5.664  1.0422  0.0827  0.9484
  122SOPE  C21612988   7.290   0.673   5.674 -0.1258  0.0488 -0.3646
  122SOPE  H16R12989   7.328   0.710   5.576  2.9015 -2.4894 -0.2262
  122SOPE  H16S12990   7.321   0.567   5.680 -1.7255 -0.3492  1.4653
  122SOPE  C21712991   7.343   0.748   5.799  0.7762  0.1500  0.3387
  122SOPE  H17R12992   7.334   0.859   5.794 -0.3596  0.0648  0.5563
  122SOPE  H17S12993   7.450   0.718   5.800  0.8516  0.4050  0.0244
  122SOPE  C21812994   7.291   0.706   5.931 -0.4440  0.3497  0.4988
  122SOPE  H18R12995   7.371   0.701   6.008 -0.4622  0.3049  0.5146
  122SOPE  H18S12996   7.239   0.608   5.927  1.4382 -0.6861  0.9448
  122SOPE  H18T12997   7.209   0.773   5.964 -1.4117 -1.5609  2.1018
  122SOPE   C3312998   6.360   0.482   5.773  0.2634  0.2997 -0.1734
  122SOPE   H3X12999   6.455   0.534   5.746 -0.7913  0.7416 -3.1927
  122SOPE   H3Y13000   6.290   0.549   5.827 -1.0677 -0.8871 -0.3878
  122SOPE   C3413001   6.307   0.450   5.637  0.5247  0.6859  0.3025
  122SOPE   H4X13002   6.244   0.537   5.611  1.2134  1.3491  0.8163
  122SOPE   H4Y13003   6.234   0.368   5.652  1.9973 -0.6251  0.4082
  122SOPE   C3513004   6.415   0.415   5.536 -0.0394  0.2103 -0.2597
  122SOPE   H5X13005   6.501   0.364   5.585 -0.0370  0.2539 -0.2174
  122SOPE   H5Y13006   6.458   0.510   5.497 -1.3705  1.3346  0.9311
  122SOPE   C3613007   6.385   0.328   5.412  0.1958 -0.6819  0.4028
  122SOPE   H6X13008   6.315   0.245   5.436  1.3509 -2.3064 -1.6285
  122SOPE   H6Y13009   6.474   0.270   5.378 -0.3143 -0.1487 -1.9443
  122SOPE   C3713010   6.316   0.418   5.306  0.1952 -0.0588  0.0086
  122SOPE   H7X13011   6.391   0.493   5.273  2.3810 -0.8724  2.9087
  122SOPE   H7Y13012   6.243   0.487   5.354  0.4611  0.0036  0.3280
  122SOPE   C3813013   6.264   0.341   5.184 -0.2947 -0.5361  0.3042
  122SOPE   H8X13014   6.271   0.232   5.199 -2.0814 -1.1070 -2.5483
  122SOPE   H8Y13015   6.337   0.367   5.104  1.4282 -1.4191  1.5629
  122SOPE   C3913016   6.127   0.361   5.130  0.2696  0.1411 -0.1084
  122SOPE   H9X13017   6.062   0.400   5.211 -1.1568 -2.9574  0.3041
  122SOPE   H9Y13018   6.086   0.264   5.095 -1.2472 -0.4919  3.1638
  122SOPE  C31013019   6.120   0.457   5.007  0.6009 -0.0317  0.8550
  122SOPE  H10X13020   6.171   0.401   4.926  0.6221  0.5132  0.4857
  122SOPE  H10Y13021   6.181   0.549   5.017  0.0755  0.6260 -1.6448
  122SOPE  C31113022   5.968   0.488   4.972 -0.2658 -1.0178  0.5341
  122SOPE  H11X13023   5.944   0.571   5.043 -3.1553 -0.6813 -0.7720
  122SOPE  H11Y13024   5.906   0.397   4.987 -1.0245 -0.4022  1.2554
  122SOPE  C31213025   5.948   0.525   4.822  0.1050  0.4359 -0.5359
  122SOPE  H12X13026   6.014   0.453   4.769 -1.8170 -2.6419  1.1210
  122SOPE  H12Y13027   5.989   0.627   4.806  1.4326 -0.2731 -1.8004
  122SOPE  C31313028   5.810   0.521   4.763  0.3829  0.5376  0.5375
  122SOPE  H13X13029   5.737   0.601   4.788  0.8540  0.2905  2.7584
  122SOPE  H13Y13030   5.764   0.432   4.809  1.6470 -1.3893 -1.8150
  122SOPE  C31413031   5.811   0.506   4.607 -0.7593  0.3243  0.1559
  122SOPE  H14X13032   5.883   0.426   4.577  1.6252  1.2521  3.1072
  122SOPE  H14Y13033   5.858   0.595   4.561 -0.8697  0.0073 -0.5786
  122SOPE  C31513034   5.670   0.491   4.549 -0.0266  0.4681  0.5372
  122SOPE  H15X13035   5.619   0.586   4.577  1.0121  1.3304 -0.4529
  122SOPE  H15Y13036   5.619   0.404   4.596  1.7630  1.0025  3.5870
  122SOPE  C31613037   5.681   0.476   4.393 -0.1239 -0.2676  0.7200
  122SOPE  H16X13038   5.740   0.383   4.380  0.3456  0.3413 -1.8176
  122SOPE  H16Y13039   5.742   0.558   4.350 -1.1646  0.6665  1.0102
  122SOPE  C31713040   5.541   0.466   4.334 -0.4997 -0.2411 -0.6925
  122SOPE  H17X13041   5.476   0.534   4.392 -1.7360 -1.8198 -0.1772
  122SOPE  H17Y13042   5.504   0.363   4.355  0.5706 -1.3022 -3.7104
  122SOPE  C31813043   5.527   0.498   4.185 -0.0007 -0.5755 -0.4182
  122SOPE  H18X13044   5.421   0.517   4.157  0.4389  0.3029 -1.5202
  122SOPE  H18Y13045   5.578   0.424   4.119 -0.3178 -1.3022  0.1487
  122SOPE  H18Z13046   5.576   0.597   4.172  1.3511 -0.6988  3.2054
  123SOPE     N13047   3.925   1.522   1.897 -0.3449  0.2202  0.0862
  123SOPE   HN113048   4.023   1.496   1.919 -1.0560 -2.1531  0.5521
  123SOPE   HN213049   3.873   1.439   1.862 -0.0910 -0.1441  0.5747
  123SOPE   HN313050   3.913   1.600   1.829 -0.5508 -1.4222 -1.8031
  123SOPE   C1213051   3.859   1.558   2.024  0.9051 -0.1114 -0.3797
  123SOPE  H12A13052   3.751   1.574   2.004  0.9562 -0.4092 -0.9271
  123SOPE  H12B13053   3.901   1.656   2.055  1.3430 -0.6176  0.6456
  123SOPE   C1113054   3.879   1.453   2.130  0.4816  0.6112  0.4025
  123SOPE  H11A13055   3.829   1.477   2.226  0.4682 -1.0502  0.8170
  123SOPE  H11B13056   3.989   1.453   2.146  1.0450 -1.7136 -2.9125
  123SOPE     P13057   3.751   1.231   2.169  0.1695 -0.4675  0.2502
  123SOPE   O1313058   3.786   1.087   2.164  0.0124 -0.0769  1.1053
  123SOPE   O1413059   3.610   1.263   2.137 -0.0977 -0.6293  0.1869
  123SOPE   O1213060   3.850   1.323   2.082  0.2818  0.5496  0.6624
  123SOPE   O1113061   3.781   1.266   2.311  0.3726 -0.3694 -0.1397
  123SOPE    C113062   3.892   1.215   2.380 -0.2991 -0.2975 -0.5887
  123SOPE    HA13063   3.989   1.241   2.334  1.5661 -1.0144  2.7270
  123SOPE    HB13064   3.891   1.104   2.376 -1.8606 -0.3173  0.0492
  123SOPE    C213065   3.901   1.264   2.532  0.2321 -0.0316 -0.3429
  123SOPE    HS13066   3.970   1.203   2.596  0.3535  1.7067  1.2424
  123SOPE   O2113067   3.775   1.279   2.587  0.4534 -0.1212  0.0285
  123SOPE   C2113068   3.680   1.179   2.580  0.4273  0.6607  0.7844
  123SOPE   O2213069   3.692   1.067   2.534  0.2271  0.7156  0.0588
  123SOPE   C2213070   3.550   1.235   2.624 -0.9027 -0.1376  0.0505
  123SOPE   H2R13071   3.514   1.312   2.552 -0.9927  0.2753  0.5360
  123SOPE   H2S13072   3.571   1.279   2.724  0.4809 -0.3883 -0.1202
  123SOPE    C313073   3.967   1.404   2.534 -0.0042  0.1951 -0.3247
  123SOPE    HX13074   3.912   1.465   2.460  0.5210 -1.2640 -1.9459
  123SOPE    HY13075   4.068   1.396   2.488  1.5173  0.2506  2.8371
  123SOPE   O3113076   3.979   1.461   2.671  0.0493  0.0477 -0.0126
  123SOPE   C3113077   4.089   1.406   2.738  0.4800 -0.0849 -0.5443
  123SOPE   O3213078   4.171   1.335   2.690  0.0157 -0.8297 -0.1331
  123SOPE   C3213079   4.099   1.462   2.880  0.7397  0.2973  0.3600
  123SOPE   H2X13080   4.151   1.392   2.950  0.4181 -0.8408 -0.5370
  123SOPE   H2Y13081   4.004   1.505   2.918  0.6660  1.4559 -1.0859
  123SOPE   C2313082   3.449   1.118   2.636 -0.0946 -0.2719 -0.2697
  123SOPE   H3R13083   3.440   1.064   2.539 -0.5991  0.8087 -0.8406
  123SOPE   H3S13084   3.350   1.169   2.646 -0.3443 -0.8318  0.1282
  123SOPE   C2413085   3.471   1.013   2.756 -0.0373  0.3840  0.4532
  123SOPE   H4R13086   3.575   0.976   2.756 -0.3744 -0.5741  0.0496
  123SOPE   H4S13087   3.463   1.064   2.854  1.0758  0.2328  0.6236
  123SOPE   C2513088   3.371   0.899   2.746 -0.0344 -0.1358 -0.0591
  123SOPE   H5R13089   3.266   0.934   2.751 -0.3652 -1.0978  0.0193
  123SOPE   H5S13090   3.384   0.854   2.645  0.1353 -1.9685  0.7475
  123SOPE   C2613091   3.395   0.781   2.839 -0.1739  0.1886  0.5661
  123SOPE   H6R13092   3.330   0.695   2.811  0.0044  0.1428  0.2929
  123SOPE   H6S13093   3.499   0.742   2.841  1.1948  3.5804  0.0166
  123SOPE   C2713094   3.369   0.814   2.986  0.4216 -0.3531  0.0028
  123SOPE   H7R13095   3.436   0.896   3.021  0.0780 -0.8231  1.7646
  123SOPE   H7S13096   3.262   0.841   2.992  1.0452  2.0989  0.6646
  123SOPE   C2813097   3.399   0.692   3.069 -0.3088 -0.0902 -0.2369
  123SOPE   H8R13098   3.497   0.654   3.031  0.1571  1.6772 -0.8449
  123SOPE   H8S13099   3.408   0.724   3.175 -0.5857 -1.4151  0.2038
  123SOPE   C2913100   3.299   0.579   3.048 -0.2326  0.1580 -0.6841
  123SOPE   H9113101   3.303   0.523   2.953  3.1078 -2.1583  0.7240
  123SOPE  C21013102   3.211   0.538   3.137 -0.4335  0.0649 -0.0030
  123SOPE  H10113103   3.136   0.465   3.104 -0.3412  0.0260 -0.1262
  123SOPE  C21113104   3.186   0.593   3.282  0.2518 -0.6468 -0.4062
  123SOPE  H11R13105   3.275   0.577   3.346 -1.3488 -2.5919  1.4136
  123SOPE  H11S13106   3.103   0.532   3.325  1.1376 -0.5387  1.5364
  123SOPE  C21213107   3.141   0.741   3.291  0.4478 -0.1817  0.7033
  123SOPE  H12R13108   3.053   0.766   3.227 -0.0950 -1.8365  0.7661
  123SOPE  H12S13109   3.225   0.810   3.272 -0.0091  0.0556 -0.5080
  123SOPE  C21313110   3.089   0.776   3.437  0.0062 -0.4030  0.3290
  123SOPE  H13R13111   3.164   0.737   3.509  0.7783  2.1362  0.9327
  123SOPE  H13S13112   2.998   0.714   3.443 -1.0180  0.9384 -0.9293
  123SOPE  C21413113   3.078   0.928   3.448 -0.1588 -0.4369 -0.3146
  123SOPE  H14R13114   3.027   0.956   3.353 -0.5348 -1.2917 -0.3725
  123SOPE  H14S13115   3.179   0.974   3.455 -0.4367 -0.2422  3.4250
  123SOPE  C21513116   2.999   0.959   3.576  0.8962 -0.5863  0.2644
  123SOPE  H15R13117   3.044   0.922   3.670  0.6956 -0.1515  0.5351
  123SOPE  H15S13118   2.902   0.905   3.573  1.4950 -1.6744  0.2458
  123SOPE  C21613119   2.973   1.109   3.595 -0.3686 -0.2295 -0.2650
  123SOPE  H16R13120   2.913   1.151   3.512  1.8819  2.1280 -0.7518
  123SOPE  H16S13121   3.071   1.158   3.579 -1.0424  0.8793 -1.0426
  123SOPE  C21713122   2.926   1.138   3.735 -0.4446  0.4239  0.2044
  123SOPE  H17R13123   3.001   1.103   3.809 -0.4564  3.0284  1.4949
  123SOPE  H17S13124   2.834   1.079   3.759  0.6299 -1.8726 -1.1856
  123SOPE  C21813125   2.888   1.283   3.761 -0.0999  1.1381  0.1547
  123SOPE  H18R13126   2.815   1.331   3.692  1.1211  0.3770 -1.7147
  123SOPE  H18S13127   2.979   1.347   3.755 -1.4311  3.0621  0.0905
  123SOPE  H18T13128   2.850   1.286   3.865 -0.6003  0.0566  0.0141
  123SOPE   C3313129   4.193   1.578   2.871  0.4889 -0.0290 -0.0433
  123SOPE   H3X13130   4.270   1.564   2.793  2.0179  1.4492  1.1703
  123SOPE   H3Y13131   4.227   1.582   2.977 -2.9574  1.4739  1.0885
  123SOPE   C3413132   4.126   1.715   2.843 -0.5471  0.4791  0.6002
  123SOPE   H4X13133   4.060   1.691   2.757  2.0334 -2.9255 -0.5175
  123SOPE   H4Y13134   4.208   1.775   2.798 -2.0394  0.2284 -2.5543
  123SOPE   C3513135   4.064   1.780   2.967 -0.0389  0.2619  1.0046
  123SOPE   H5X13136   4.136   1.822   3.041  0.3387  2.9005 -0.7720
  123SOPE   H5Y13137   4.001   1.712   3.027  2.3955 -0.9979  2.1821
  123SOPE   C3613138   3.975   1.905   2.926  0.4125 -0.2100 -0.1113
  123SOPE   H6X13139   3.919   1.946   3.013  0.8893  1.3555 -0.5411
  123SOPE   H6Y13140   3.896   1.870   2.856  0.5075 -1.9298  0.6029
  123SOPE   C3713141   4.047   2.024   2.864 -0.3127  0.0575  0.4078
  123SOPE   H7X13142   4.083   1.996   2.763  0.6977 -0.1028  0.7942
  123SOPE   H7Y13143   4.146   2.045   2.911 -0.1366  2.0684 -0.8044
  123SOPE   C3813144   3.961   2.146   2.872  0.2857 -0.2261 -0.1964
  123SOPE   H8X13145   3.854   2.128   2.845  1.1435 -3.5106 -1.5785
  123SOPE   H8Y13146   3.992   2.215   2.791 -1.4963 -0.1375 -0.8398
  123SOPE   C3913147   3.965   2.231   3.001 -0.7500 -0.3368 -0.2034
  123SOPE   H9X13148   4.072   2.257   3.020 -0.6758  1.1458 -2.5308
  123SOPE   H9Y13149   3.931   2.167   3.085 -0.1946  0.9990  1.0748
  123SOPE  C31013150   3.877   2.356   3.004 -0.1610  0.3745 -0.4340
  123SOPE  H10X13151   3.776   2.321   2.972 -0.3508  2.3679 -2.1244
  123SOPE  H10Y13152   3.914   2.428   2.927  2.6556  1.3168  1.7236
  123SOPE  C31113153   3.864   2.438   3.145 -0.2482 -0.1321 -1.0934
  123SOPE  H11X13154   3.845   2.547   3.134  1.3878  0.5114  2.0072
  123SOPE  H11Y13155   3.965   2.424   3.188 -0.5438  0.9653 -0.0096
  123SOPE  C31213156   3.760   2.378   3.244 -0.0934  0.3352 -0.6521
  123SOPE  H12X13157   3.801   2.280   3.276 -0.6879  0.0028 -0.8878
  123SOPE  H12Y13158   3.666   2.358   3.187 -1.4780  3.0523  0.6136
  123SOPE  C31313159   3.728   2.473   3.360 -0.1946  0.0875  0.1800
  123SOPE  H13X13160   3.680   2.567   3.324  1.4439  0.6748 -0.5256
  123SOPE  H13Y13161   3.819   2.488   3.422 -1.0717  3.7947  0.6736
  123SOPE  C31413162   3.630   2.410   3.454 -0.0192 -0.0361 -0.7643
  123SOPE  H14X13163   3.672   2.320   3.504  1.9669  0.3049 -1.7407
  123SOPE  H14Y13164   3.541   2.376   3.397  0.0167 -0.8986 -0.3070
  123SOPE  C31513165   3.578   2.516   3.559  0.3489 -0.0395 -0.3237
  123SOPE  H15X13166   3.498   2.580   3.517 -0.7877 -0.2268  1.4723
  123SOPE  H15Y13167   3.666   2.578   3.589 -0.7400  0.9733  0.8097
  123SOPE  C31613168   3.503   2.457   3.683  0.4949  0.2748  0.5533
  123SOPE  H16X13169   3.423   2.385   3.658  1.4198 -0.7096  0.3975
  123SOPE  H16Y13170   3.443   2.536   3.732 -3.1823 -1.1732 -1.3964
  123SOPE  C31713171   3.598   2.389   3.779 -0.3249 -0.1630 -0.2223
  123SOPE  H17X13172   3.683   2.459   3.790 -1.4125  0.8240  1.9995
  123SOPE  H17Y13173   3.637   2.293   3.738 -2.0616 -1.8022  1.8334
  123SOPE  C31813174   3.531   2.365   3.920 -0.1029  0.3027 -0.0889
  123SOPE  H18X13175   3.511   2.468   3.956 -3.0478  0.0009 -0.8141
  123SOPE  H18Y13176   3.604   2.318   3.990 -1.6948 -0.0021  1.3843
  123SOPE  H18Z13177   3.434   2.311   3.925  0.2451 -0.2614  0.8716
  124SOPE     N13178   5.347   5.348   2.063 -0.6433  0.0674 -0.2416
  124SOPE   HN113179   5.447   5.362   2.091 -0.9142 -0.3267  0.9426
  124SOPE   HN213180   5.350   5.303   1.970 -1.0646  0.3114 -0.3703
  124SOPE   HN313181   5.305   5.443   2.055 -0.5696 -0.0224 -1.8462
  124SOPE   C1213182   5.277   5.242   2.149  0.6083  0.0241  0.3811
  124SOPE  H12A13183   5.170   5.231   2.119  0.3384  3.0964  0.0381
  124SOPE  H12B13184   5.284   5.276   2.254 -3.1218  1.3656  0.2847
  124SOPE   C1113185   5.358   5.112   2.127 -0.0321 -0.4191  0.1036
  124SOPE  H11A13186   5.344   5.079   2.021 -0.3050 -0.5359  0.1747
  124SOPE  H11B13187   5.302   5.031   2.178  0.0707 -0.6268 -0.1080
  124SOPE     P13188   5.571   5.073   2.289 -0.4421  0.0426 -0.2663
  124SOPE   O1313189   5.714   5.118   2.279 -0.2555 -0.8285  0.2849
  124SOPE   O1413190   5.549   4.926   2.304  0.2054 -0.4552 -0.2722
  124SOPE   O1213191   5.499   5.122   2.153  0.3027 -0.3311 -0.1557
  124SOPE   O1113192   5.495   5.158   2.400  0.4261  0.3156  0.1261
  124SOPE    C113193   5.532   5.292   2.422  0.6453 -0.4540 -0.3449
  124SOPE    HA13194   5.524   5.356   2.332 -0.5658 -0.9623 -0.6098
  124SOPE    HB13195   5.640   5.299   2.450  0.0788  0.7931  1.6297
  124SOPE    C213196   5.460   5.348   2.541  0.9109  0.3519 -1.0085
  124SOPE    HS13197   5.487   5.456   2.551  0.0438  0.4281  0.6621
  124SOPE   O2113198   5.514   5.287   2.657  1.2282  0.1440 -0.3021
  124SOPE   C2113199   5.467   5.334   2.776  0.1071 -0.1749 -0.0164
  124SOPE   O2213200   5.400   5.436   2.793 -0.1848  0.1935 -0.1070
  124SOPE   C2213201   5.506   5.228   2.883 -0.4523 -0.4419 -0.7186
  124SOPE   H2R13202   5.603   5.188   2.846  0.2572  0.9840 -0.4525
  124SOPE   H2S13203   5.430   5.147   2.891  0.5547 -1.3916 -0.6207
  124SOPE    C313204   5.300   5.331   2.533  0.4559 -0.3613 -0.4267
  124SOPE    HX13205   5.269   5.360   2.431  0.2301  0.9954  0.0205
  124SOPE    HY13206   5.266   5.399   2.614  3.1322 -0.1866  0.5951
  124SOPE   O3113207   5.247   5.208   2.574 -0.3594 -0.5774  0.0368
  124SOPE   C3113208   5.110   5.204   2.569  0.5191  0.7505  0.1225
  124SOPE   O3213209   5.043   5.286   2.512  0.8691  0.1499  0.1118
  124SOPE   C3213210   5.055   5.088   2.645  0.7284  0.4544  0.1445
  124SOPE   H2X13211   5.117   4.999   2.618 -1.6692 -0.9033 -1.0260
  124SOPE   H2Y13212   4.950   5.065   2.617  0.9797  0.8971 -1.1604
  124SOPE   C2313213   5.516   5.285   3.030 -0.2104 -0.5062  0.4445
  124SOPE   H3R13214   5.414   5.327   3.041 -1.0797 -1.9660 -1.5660
  124SOPE   H3S13215   5.585   5.369   3.052 -0.7314 -0.7160  3.0246
  124SOPE   C2413216   5.545   5.188   3.144 -0.6167 -0.6790  0.1040
  124SOPE   H4R13217   5.651   5.156   3.132 -0.4816  0.6557 -2.6211
  124SOPE   H4S13218   5.537   5.237   3.244  1.6377  0.5449 -0.2852
  124SOPE   C2513219   5.481   5.046   3.138 -0.8448  0.7739 -0.3001
  124SOPE   H5R13220   5.372   5.047   3.160 -0.6274 -1.4706  1.0160
  124SOPE   H5S13221   5.488   5.001   3.037 -2.9628  0.8804 -0.5341
  124SOPE   C2613222   5.539   4.948   3.234 -1.1409  0.1472 -0.2931
  124SOPE   H6R13223   5.496   4.847   3.217 -2.6481  0.6619  0.3522
  124SOPE   H6S13224   5.643   4.925   3.204 -0.7575  0.0715  1.0598
  124SOPE   C2713225   5.549   4.983   3.385 -0.1727 -0.0070  0.0463
  124SOPE   H7R13226   5.617   4.914   3.440  0.2131  0.4337  0.1235
  124SOPE   H7S13227   5.594   5.084   3.382  0.4735 -0.2458  1.2720
  124SOPE   C2813228   5.410   4.995   3.456  0.1743 -0.4537  0.4837
  124SOPE   H8R13229   5.432   5.043   3.553  2.1914 -0.6367  0.1407
  124SOPE   H8S13230   5.352   5.067   3.394  1.5744  0.5799  0.3452
  124SOPE   C2913231   5.347   4.864   3.471  0.2373  0.3241  0.0699
  124SOPE   H9113232   5.424   4.789   3.491  0.3819  0.4553  0.0034
  124SOPE  C21013233   5.216   4.836   3.468  0.0754 -0.4965  0.1732
  124SOPE  H10113234   5.181   4.732   3.481  1.1249 -0.7614  1.0171
  124SOPE  C21113235   5.105   4.930   3.440 -0.3218  0.1521 -0.4937
  124SOPE  H11R13236   5.023   4.867   3.399  0.1226  0.1817 -1.4452
  124SOPE  H11S13237   5.142   4.997   3.360  2.3119 -1.0721 -0.3853
  124SOPE  C21213238   5.052   5.004   3.560  0.1404 -0.8454  0.0599
  124SOPE  H12R13239   4.972   5.073   3.527  0.7371  0.3149  1.0293
  124SOPE  H12S13240   5.142   5.050   3.605 -0.1642 -1.8611  1.7386
  124SOPE  C21313241   4.985   4.918   3.666 -0.5219 -0.4181  0.0366
  124SOPE  H13R13242   5.040   4.823   3.685 -0.9369 -0.5796  0.4376
  124SOPE  H13S13243   4.886   4.883   3.629  0.3788 -0.9473 -1.9274
  124SOPE  C21413244   4.977   4.977   3.807  0.4120  0.0578  0.3418
  124SOPE  H14R13245   5.082   5.003   3.830  0.2948 -0.2869  1.2789
  124SOPE  H14S13246   4.943   4.902   3.882 -0.1506  0.6132  0.6506
  124SOPE  C21513247   4.902   5.109   3.822 -0.3618  0.4077  0.5170
  124SOPE  H15R13248   4.795   5.081   3.822 -0.4914  0.8994  0.4597
  124SOPE  H15S13249   4.917   5.185   3.742 -0.6010  2.5364  2.4658
  124SOPE  C21613250   4.930   5.183   3.956 -0.1007 -0.4755  0.0829
  124SOPE  H16R13251   4.891   5.109   4.029 -2.3524 -1.2937 -1.8794
  124SOPE  H16S13252   4.866   5.274   3.963  1.3735  0.6125 -0.3632
  124SOPE  C21713253   5.081   5.217   3.978 -0.4710  0.8917 -0.0936
  124SOPE  H17R13254   5.133   5.250   3.885  0.2745  0.2174  0.0803
  124SOPE  H17S13255   5.141   5.131   4.012 -0.1889  0.8708 -0.6393
  124SOPE  C21813256   5.101   5.315   4.102  0.0148  0.2153 -0.2318
  124SOPE  H18R13257   5.106   5.413   4.049  1.3010  0.1944 -0.1682
  124SOPE  H18S13258   5.200   5.294   4.149 -0.6013 -1.6656  0.2501
  124SOPE  H18T13259   5.017   5.307   4.174 -0.9350 -0.3161 -1.3887
  124SOPE   C3313260   5.066   5.100   2.805  0.2485 -0.4023  0.3446
  124SOPE   H3X13261   5.173   5.116   2.828  0.2486  1.1852 -0.7034
  124SOPE   H3Y13262   5.025   5.006   2.847 -0.2278 -0.7057 -0.7804
  124SOPE   C3413263   4.992   5.227   2.864 -0.5253  0.2890  0.1392
  124SOPE   H4X13264   4.884   5.212   2.843 -0.7478  0.2057  1.3157
  124SOPE   H4Y13265   5.035   5.320   2.821  2.3586 -1.2733 -0.4953
  124SOPE   C3513266   4.988   5.235   3.015 -0.4399 -0.1323 -0.7178
  124SOPE   H5X13267   4.951   5.140   3.058 -2.2134  0.4054 -0.9865
  124SOPE   H5Y13268   4.905   5.306   3.037 -1.4144 -1.1485 -1.1024
  124SOPE   C3613269   5.107   5.289   3.100  0.0081  0.2124 -0.7812
  124SOPE   H6X13270   5.146   5.386   3.064 -1.4725  0.5993 -1.3701
  124SOPE   H6Y13271   5.191   5.216   3.091 -0.4001 -0.4635  0.7862
  124SOPE   C3713272   5.069   5.293   3.248  0.0616 -0.3271 -0.5603
  124SOPE   H7X13273   5.025   5.198   3.286 -0.4078 -0.2190 -0.8268
  124SOPE   H7Y13274   4.977   5.356   3.260 -0.7259 -1.1875 -1.8823
  124SOPE   C3813275   5.174   5.339   3.354  0.4296  0.2904 -1.0512
  124SOPE   H8X13276   5.272   5.318   3.306  0.6889 -2.7505  0.6601
  124SOPE   H8Y13277   5.162   5.269   3.439 -2.3498  1.3859 -0.4848
  124SOPE   C3913278   5.174   5.476   3.406 -0.2177 -0.2340  0.0961
  124SOPE   H9X13279   5.079   5.494   3.460 -1.4917 -1.1500 -1.8204
  124SOPE   H9Y13280   5.165   5.552   3.325  1.2505 -1.3652 -1.1608
  124SOPE  C31013281   5.283   5.505   3.515 -0.1878  0.2580 -0.7542
  124SOPE  H10X13282   5.257   5.593   3.577  1.2707 -1.0021  1.6962
  124SOPE  H10Y13283   5.373   5.549   3.466 -0.6720  0.1213 -1.7880
  124SOPE  C31113284   5.311   5.399   3.617  0.3921  0.0903 -0.3575
  124SOPE  H11X13285   5.368   5.322   3.561  1.7242  1.1064 -0.4034
  124SOPE  H11Y13286   5.217   5.352   3.656 -0.2533 -0.7631 -2.8498
  124SOPE  C31213287   5.388   5.457   3.733 -0.3211  0.4455  0.3015
  124SOPE  H12X13288   5.322   5.531   3.784 -2.1429 -2.1245  1.8655
  124SOPE  H12Y13289   5.479   5.508   3.697  1.7904 -1.8697  2.1774
  124SOPE  C31313290   5.425   5.363   3.848  0.7274  0.0666  0.6614
  124SOPE  H13X13291   5.334   5.335   3.906  0.5041  0.3960  0.4685
  124SOPE  H13Y13292   5.485   5.417   3.925  0.7297  0.5925  0.2929
  124SOPE  C31413293   5.503   5.242   3.805 -0.4886 -0.7073  0.8033
  124SOPE  H14X13294   5.598   5.265   3.751 -0.4633 -1.2665  0.5987
  124SOPE  H14Y13295   5.463   5.180   3.721  2.4986 -2.3350  0.4667
  124SOPE  C31513296   5.522   5.143   3.923  0.1834 -0.2232 -0.6025
  124SOPE  H15X13297   5.419   5.136   3.963 -1.1072 -2.8622 -4.1260
  124SOPE  H15Y13298   5.591   5.193   3.995  1.8308 -3.8852  0.4989
  124SOPE  C31613299   5.580   5.007   3.886 -0.2204  0.4003  0.2791
  124SOPE  H16X13300   5.527   4.971   3.796 -0.2371  0.9032  0.0901
  124SOPE  H16Y13301   5.567   4.934   3.970  0.1014  1.4796  1.2783
  124SOPE  C31713302   5.730   4.998   3.852 -0.5613  0.3522 -0.1003
  124SOPE  H17X13303   5.794   5.025   3.939 -0.0035  0.6853 -0.6122
  124SOPE  H17Y13304   5.754   5.081   3.783 -0.3926  0.0350 -0.4229
  124SOPE  C31813305   5.776   4.859   3.789  0.2016 -0.2142  0.2139
  124SOPE  H18X13306   5.777   4.792   3.878 -0.0799  0.0257  0.3990
  124SOPE  H18Y13307   5.876   4.855   3.741  0.3087  0.3981  0.3795
  124SOPE  H18Z13308   5.697   4.821   3.721 -0.3112 -0.8898  1.1766
  125SOPE     N13309   1.467   4.448   2.040 -0.0906  0.0066  0.3209
  125SOPE   HN113310   1.369   4.419   2.023 -0.3725  0.3655  1.2842
  125SOPE   HN213311   1.524   4.362   2.056  2.1574  1.2120 -0.9970
  125SOPE   HN313312   1.465   4.502   2.129  1.6994 -0.3012  0.5865
  125SOPE   C1213313   1.532   4.526   1.928  0.3928  0.0165  1.1555
  125SOPE  H12A13314   1.452   4.575   1.869  1.1386  1.1600  1.0752
  125SOPE  H12B13315   1.577   4.451   1.860 -0.3250  0.4311  0.2098
  125SOPE   C1113316   1.612   4.638   1.985 -0.2454  0.1213 -0.5970
  125SOPE  H11A13317   1.655   4.692   1.897  0.6407  0.5145  0.0736
  125SOPE  H11B13318   1.696   4.602   2.048 -1.1610 -0.2458  0.4229
  125SOPE     P13319   1.569   4.868   2.099  0.4956  0.0826  0.1799
  125SOPE   O1313320   1.459   4.940   2.165 -0.2268 -0.3368  0.1819
  125SOPE   O1413321   1.610   4.929   1.969 -0.6864 -0.3378  0.4005
  125SOPE   O1213322   1.522   4.723   2.060 -0.0543 -0.2285  0.5014
  125SOPE   O1113323   1.697   4.840   2.194 -0.1133 -0.3926 -0.0373
  125SOPE    C113324   1.785   4.956   2.212 -0.2398 -0.1090 -1.2770
  125SOPE    HA13325   1.750   5.051   2.166 -1.8162 -0.8875 -1.7023
  125SOPE    HB13326   1.882   4.934   2.161 -0.2716 -2.3705 -0.3852
  125SOPE    C213327   1.814   4.980   2.365  0.1266 -0.7001  0.2650
  125SOPE    HS13328   1.877   5.071   2.374 -0.9153  0.0683 -0.1839
  125SOPE   O2113329   1.876   4.857   2.417  0.8681 -0.0171  0.2926
  125SOPE   C2113330   1.970   4.881   2.508 -0.0357 -0.6794  0.2830
  125SOPE   O2213331   2.007   4.994   2.540 -0.3716 -0.1037  0.5283
  125SOPE   C2213332   2.018   4.752   2.554 -0.0154  0.5978  0.3825
  125SOPE   H2R13333   2.127   4.752   2.572 -0.3570  2.4440  2.5506
  125SOPE   H2S13334   1.997   4.672   2.479 -1.4047  1.6217 -0.3421
  125SOPE    C313335   1.683   5.019   2.450  0.1743  0.6366  0.2708
  125SOPE    HX13336   1.609   4.936   2.439 -1.3669  2.0375 -0.0948
  125SOPE    HY13337   1.641   5.105   2.394  1.2424  0.4067 -0.8913
  125SOPE   O3113338   1.697   5.042   2.595  0.1011 -0.4762 -0.3385
  125SOPE   C3113339   1.756   5.152   2.622 -0.6044 -0.3374  0.5547
  125SOPE   O3213340   1.794   5.243   2.548  0.1340  0.1724 -0.1070
  125SOPE   C3213341   1.789   5.159   2.771  0.3861 -0.7964  0.0935
  125SOPE   H2X13342   1.791   5.261   2.815 -2.5584 -0.6826  0.0223
  125SOPE   H2Y13343   1.889   5.110   2.781  1.0977  0.7580  0.7161
  125SOPE   C2313344   1.957   4.714   2.697 -0.4508  0.3107 -0.1016
  125SOPE   H3R13345   1.980   4.606   2.706  0.5412  0.3800 -1.5851
  125SOPE   H3S13346   1.848   4.729   2.712 -0.5663 -0.6856  0.0866
  125SOPE   C2413347   2.019   4.799   2.804 -0.2620  0.6645 -0.7865
  125SOPE   H4R13348   2.128   4.786   2.793 -0.3927 -0.9325 -0.2844
  125SOPE   H4S13349   1.994   4.908   2.800 -0.9337  0.5060 -0.9580
  125SOPE   C2513350   1.961   4.759   2.940 -0.1403 -0.1164 -0.4066
  125SOPE   H5R13351   1.852   4.758   2.920  0.0627  0.3316 -1.5849
  125SOPE   H5S13352   1.989   4.655   2.968  0.1076 -0.0637 -0.4594
  125SOPE   C2613353   1.996   4.861   3.047 -1.2987  0.2016 -0.5475
  125SOPE   H6R13354   2.107   4.867   3.039 -1.1794  1.8733  1.6168
  125SOPE   H6S13355   1.963   4.957   3.002 -4.4672 -1.3252 -1.5756
  125SOPE   C2713356   1.947   4.830   3.187 -0.4092  0.0864  0.0630
  125SOPE   H7R13357   1.838   4.826   3.208 -0.2506 -0.0439  0.8706
  125SOPE   H7S13358   1.997   4.734   3.211 -1.4716 -0.6380 -0.5697
  125SOPE   C2813359   2.004   4.926   3.294 -0.5246  0.2976 -0.2477
  125SOPE   H8R13360   1.955   4.907   3.393  2.0936 -0.3374  0.9667
  125SOPE   H8S13361   2.110   4.897   3.313 -1.3821 -3.2577 -0.4970
  125SOPE   C2913362   1.986   5.072   3.265  1.0983 -0.3950  0.6192
  125SOPE   H9113363   1.998   5.089   3.157 -1.3642 -0.6113  0.3025
  125SOPE  C21013364   1.974   5.184   3.346  1.0002  0.2208  0.6298
  125SOPE  H10113365   1.952   5.279   3.295  0.9953 -0.8960 -1.5185
  125SOPE  C21113366   1.978   5.196   3.494  0.5625 -0.2136  0.4284
  125SOPE  H11R13367   2.060   5.267   3.518  2.0273 -1.8129  0.2540
  125SOPE  H11S13368   1.992   5.095   3.537  0.2557 -0.1835  0.5983
  125SOPE  C21213369   1.846   5.251   3.555  0.3383 -0.0460 -0.2372
  125SOPE  H12R13370   1.767   5.174   3.549 -0.0888  0.3408  0.4064
  125SOPE  H12S13371   1.816   5.337   3.491 -2.3027 -0.7778 -0.0248
  125SOPE  C21313372   1.850   5.304   3.700 -0.6412 -0.0108  0.3770
  125SOPE  H13R13373   1.927   5.383   3.710  0.2988 -1.0810  1.9281
  125SOPE  H13S13374   1.881   5.230   3.778  1.6469 -0.6740 -1.1303
  125SOPE  C21413375   1.710   5.362   3.749 -0.4720 -0.1949 -0.0526
  125SOPE  H14R13376   1.628   5.287   3.747 -2.0778  1.5438  0.2483
  125SOPE  H14S13377   1.677   5.454   3.698 -3.1743 -0.0289  1.9137
  125SOPE  C21513378   1.725   5.401   3.900 -0.0182  0.6764 -0.4159
  125SOPE  H15R13379   1.792   5.489   3.903  0.9178 -0.0394  0.0800
  125SOPE  H15S13380   1.755   5.327   3.977 -0.0971  1.0922  0.0183
  125SOPE  C21613381   1.585   5.448   3.956  0.0150  0.1060  0.8990
  125SOPE  H16R13382   1.509   5.368   3.950 -0.0552  0.2875 -0.9343
  125SOPE  H16S13383   1.545   5.536   3.900  1.0990  0.4222  0.6101
  125SOPE  C21713384   1.580   5.475   4.105  0.0533 -0.8430 -0.2217
  125SOPE  H17R13385   1.481   5.517   4.135 -0.0302  0.3048 -2.0408
  125SOPE  H17S13386   1.663   5.541   4.139  0.3704 -1.1331 -0.4305
  125SOPE  C21813387   1.604   5.341   4.178  0.1440  0.5087 -0.3943
  125SOPE  H18R13388   1.707   5.301   4.169  0.4531  0.8829  1.3880
  125SOPE  H18S13389   1.526   5.265   4.155 -1.3968  2.0856 -0.5095
  125SOPE  H18T13390   1.595   5.358   4.287  1.7042 -0.5860 -0.0775
  125SOPE   C3313391   1.677   5.106   2.852  0.2109  0.3694 -0.0794
  125SOPE   H3X13392   1.682   4.995   2.841  3.0524  0.2265  2.0449
  125SOPE   H3Y13393   1.576   5.146   2.831  0.7067  1.0802 -1.1721
  125SOPE   C3413394   1.689   5.128   3.008  0.4984 -1.0929  0.5916
  125SOPE   H4X13395   1.717   5.234   3.024  1.3005 -1.3103  0.6297
  125SOPE   H4Y13396   1.780   5.080   3.049  1.4694  1.6718  1.7828
  125SOPE   C3513397   1.564   5.087   3.085 -0.2362 -0.0106  0.4464
  125SOPE   H5X13398   1.553   4.976   3.076 -1.7404  0.3472 -2.2911
  125SOPE   H5Y13399   1.476   5.125   3.031  0.5925 -1.3425 -1.9024
  125SOPE   C3613400   1.560   5.128   3.231  0.0211  0.4824  0.0773
  125SOPE   H6X13401   1.555   5.239   3.233  0.3668  0.4962  2.6797
  125SOPE   H6Y13402   1.656   5.105   3.283  0.6836  1.4049 -0.7123
  125SOPE   C3713403   1.433   5.086   3.314  0.2313  0.4110 -0.1441
  125SOPE   H7X13404   1.431   4.975   3.312  0.2232  0.4196 -0.6784
  125SOPE   H7Y13405   1.343   5.136   3.274  0.7893  0.4796 -1.3100
  125SOPE   C3813406   1.434   5.120   3.461 -0.0323 -0.5595 -0.7079
  125SOPE   H8X13407   1.537   5.109   3.500  0.5114  2.3246 -1.2286
  125SOPE   H8Y13408   1.378   5.039   3.513  0.3394 -0.2531  0.1898
  125SOPE   C3913409   1.387   5.270   3.489  0.6536 -0.3123 -0.4203
  125SOPE   H9X13410   1.303   5.289   3.419  0.0560 -1.7109 -0.0834
  125SOPE   H9Y13411   1.474   5.333   3.460  1.4922 -0.9177  0.7401
  125SOPE  C31013412   1.336   5.305   3.630  0.0117  0.2108 -0.5565
  125SOPE  H10X13413   1.302   5.411   3.643  1.5950  1.2743 -4.2470
  125SOPE  H10Y13414   1.419   5.280   3.699  0.7132  1.9449 -0.7301
  125SOPE  C31113415   1.217   5.212   3.669 -0.6515  0.3496 -0.0760
  125SOPE  H11X13416   1.267   5.113   3.674 -0.6775  0.3718  0.6733
  125SOPE  H11Y13417   1.145   5.206   3.585  0.0907  0.9142 -0.7658
  125SOPE  C31213418   1.133   5.246   3.793  0.8247 -0.3396  0.3882
  125SOPE  H12X13419   1.206   5.265   3.874  3.4634  0.4924 -2.0714
  125SOPE  H12Y13420   1.081   5.148   3.803 -0.0484 -0.2944 -2.9948
  125SOPE  C31313421   1.032   5.359   3.771 -0.3115  0.5500  0.4262
  125SOPE  H13X13422   1.049   5.400   3.669 -2.3371 -0.6397 -0.4170
  125SOPE  H13Y13423   1.057   5.442   3.840 -0.6892  2.1883 -1.3673
  125SOPE  C31413424   0.884   5.314   3.791  0.1964  0.2126 -0.0583
  125SOPE  H14X13425   0.874   5.260   3.887 -0.4135  0.0023 -0.2343
  125SOPE  H14Y13426   0.864   5.245   3.706  0.1062  1.3079 -0.9368
  125SOPE  C31513427   0.785   5.433   3.771 -0.1734 -0.3815  0.7222
  125SOPE  H15X13428   0.757   5.443   3.664  0.3667 -1.5117  0.4665
  125SOPE  H15Y13429   0.832   5.529   3.802 -1.2549  0.4839 -0.2872
  125SOPE  C31613430   0.662   5.404   3.852  0.4102  0.4933  0.3733
  125SOPE  H16X13431   0.704   5.369   3.949  2.8538 -2.8495 -1.7707
  125SOPE  H16Y13432   0.596   5.327   3.805 -1.4804  1.8744  0.7005
  125SOPE  C31713433   0.583   5.530   3.882 -0.2564 -0.5295 -0.1890
  125SOPE  H17X13434   0.629   5.600   3.955  0.8486  0.9568 -2.2347
  125SOPE  H17Y13435   0.488   5.491   3.923 -1.9327  0.3069 -3.1588
  125SOPE  C31813436   0.552   5.615   3.752 -0.3890  0.5621  0.4974
  125SOPE  H18X13437   0.528   5.557   3.660  0.2888  0.0527  0.6349
  125SOPE  H18Y13438   0.642   5.678   3.730 -1.1275  1.6856  0.6378
  125SOPE  H18Z13439   0.469   5.686   3.774 -0.7803  0.2408  0.0620
  126SOPE     N13440   3.073   0.458   2.213 -0.7821  0.1180  0.1280
  126SOPE   HN113441   3.060   0.356   2.194 -2.4482 -0.3500  3.5242
  126SOPE   HN213442   3.174   0.481   2.220 -0.6952  0.3069 -1.4288
  126SOPE   HN313443   3.026   0.494   2.298  1.5983  0.9716  1.1385
  126SOPE   C1213444   3.022   0.536   2.097  0.6006  0.4420 -0.2751
  126SOPE  H12A13445   3.042   0.478   2.004  2.5418  0.4946  0.0939
  126SOPE  H12B13446   3.084   0.627   2.087  1.9138 -0.4316 -0.2426
  126SOPE   C1113447   2.865   0.559   2.117 -0.3424  0.2117  0.1140
  126SOPE  H11A13448   2.808   0.466   2.133 -2.1120  1.4982  1.4752
  126SOPE  H11B13449   2.826   0.604   2.023 -0.7524 -2.8836 -1.2591
  126SOPE     P13450   2.845   0.798   2.228 -0.2125  0.0909 -0.2754
  126SOPE   O1313451   2.773   0.847   2.110 -1.2161  0.6712 -0.3562
  126SOPE   O1413452   2.984   0.835   2.237 -0.0523 -0.0698 -0.0518
  126SOPE   O1213453   2.840   0.639   2.230  0.3103 -0.3947  0.1945
  126SOPE   O1113454   2.768   0.853   2.356 -0.4833  0.3227  0.0368
  126SOPE    C113455   2.770   0.789   2.483  0.1092  0.4358 -0.4421
  126SOPE    HA13456   2.871   0.797   2.528  1.3143 -4.5633 -1.9419
  126SOPE    HB13457   2.742   0.682   2.470  0.4865  0.0297  1.7976
  126SOPE    C213458   2.661   0.852   2.568  0.1544 -0.4450 -0.3162
  126SOPE    HS13459   2.569   0.819   2.515 -0.0605  0.0647 -0.2569
  126SOPE   O2113460   2.694   0.995   2.578  0.2950 -0.6523  0.2573
  126SOPE   C2113461   2.593   1.067   2.548 -0.7038 -0.8411  0.1650
  126SOPE   O2213462   2.488   1.025   2.499 -0.3768 -0.5701 -0.7880
  126SOPE   C2213463   2.612   1.208   2.591  0.8939 -0.9613 -0.7288
  126SOPE   H2R13464   2.704   1.254   2.551  0.1683  0.2317 -1.0338
  126SOPE   H2S13465   2.617   1.211   2.702  0.8605 -4.3331 -0.5610
  126SOPE    C313466   2.651   0.794   2.714 -0.2484 -0.4712  0.1314
  126SOPE    HX13467   2.602   0.695   2.708 -1.5880  0.2615 -1.5660
  126SOPE    HY13468   2.575   0.837   2.783 -0.9187 -0.9370 -0.3034
  126SOPE   O3113469   2.778   0.785   2.775  0.1004  0.3402  0.1884
  126SOPE   C3113470   2.810   0.881   2.861  0.2954 -0.5815  0.0696
  126SOPE   O3213471   2.734   0.966   2.904  0.2324  0.0250 -0.1236
  126SOPE   C3213472   2.953   0.875   2.912  0.7234 -0.2452  0.3663
  126SOPE   H2X13473   3.023   0.892   2.827  0.4082 -0.6013  0.0318
  126SOPE   H2Y13474   2.962   0.771   2.948 -1.3099  0.1348  2.0753
  126SOPE   C2313475   2.492   1.313   2.549 -0.6513  0.1077 -0.2034
  126SOPE   H3R13476   2.395   1.264   2.569  0.2664 -2.1639 -1.0752
  126SOPE   H3S13477   2.496   1.338   2.441  1.4873  3.2920  0.5226
  126SOPE   C2413478   2.509   1.447   2.611 -0.0537  0.0038 -0.1353
  126SOPE   H4R13479   2.607   1.496   2.591 -0.9608  1.1122 -1.9699
  126SOPE   H4S13480   2.437   1.513   2.558  0.8002 -0.0471 -1.3857
  126SOPE   C2513481   2.489   1.460   2.761  0.9371 -0.4142 -0.9266
  126SOPE   H5R13482   2.568   1.416   2.826 -0.3910 -1.2741  0.1354
  126SOPE   H5S13483   2.491   1.568   2.787  1.3658 -0.3327 -1.3094
  126SOPE   C2613484   2.361   1.398   2.810 -0.7710 -0.4712  0.2007
  126SOPE   H6R13485   2.326   1.460   2.895  0.1453 -0.0761  0.2864
  126SOPE   H6S13486   2.298   1.412   2.719 -1.1316  0.4868  0.5894
  126SOPE   C2713487   2.353   1.244   2.860 -0.5965 -0.4759  0.5140
  126SOPE   H7R13488   2.254   1.226   2.907  1.1858 -1.3628  4.0542
  126SOPE   H7S13489   2.371   1.177   2.773  2.7430 -0.5108  1.1949
  126SOPE   C2813490   2.461   1.211   2.971 -0.1586 -0.2358  0.0055
  126SOPE   H8R13491   2.560   1.229   2.925 -0.7069  0.1935 -1.0369
  126SOPE   H8S13492   2.455   1.295   3.044 -3.9418 -0.9013  0.5976
  126SOPE   C2913493   2.459   1.076   3.037  0.1200 -0.2133  0.5131
  126SOPE   H9113494   2.538   1.009   2.999  1.1989  1.0015  0.5811
  126SOPE  C21013495   2.377   1.042   3.134  0.0068 -0.5319  0.1742
  126SOPE  H10113496   2.383   0.941   3.178  0.4445  0.2246  1.8944
  126SOPE  C21113497   2.272   1.132   3.197  0.4201  0.0481 -0.4555
  126SOPE  H11R13498   2.170   1.099   3.170 -0.1013  1.2164  0.0489
  126SOPE  H11S13499   2.289   1.235   3.158  1.0355  0.2089  0.2215
  126SOPE  C21213500   2.278   1.153   3.350  0.8974 -0.0574  0.1038
  126SOPE  H12R13501   2.294   1.061   3.410  3.8357  0.8204  0.7688
  126SOPE  H12S13502   2.186   1.206   3.381  2.3457  2.6434 -0.0125
  126SOPE  C21313503   2.391   1.258   3.394 -0.5114  0.0866 -0.1481
  126SOPE  H13R13504   2.350   1.352   3.351 -2.6799 -0.8503 -0.2074
  126SOPE  H13S13505   2.481   1.225   3.339  0.6179  0.0117  1.7234
  126SOPE  C21413506   2.410   1.265   3.543 -0.0124  0.2532  0.4582
  126SOPE  H14R13507   2.444   1.169   3.587  1.0054  0.6842  0.6388
  126SOPE  H14S13508   2.309   1.290   3.583 -0.2610 -0.6245  0.3725
  126SOPE  C21513509   2.507   1.373   3.567  0.2335  0.2947 -0.5184
  126SOPE  H15R13510   2.472   1.461   3.508  3.1405  1.1509 -1.0321
  126SOPE  H15S13511   2.612   1.354   3.537  0.5796  0.7311  0.4017
  126SOPE  C21613512   2.501   1.431   3.711 -0.2958 -0.2103  0.4314
  126SOPE  H16R13513   2.536   1.349   3.779 -0.0917  0.9580  1.7568
  126SOPE  H16S13514   2.395   1.450   3.739 -0.2152  1.2319 -0.2244
  126SOPE  C21713515   2.592   1.551   3.758 -0.1036  0.0496  0.5658
  126SOPE  H17R13516   2.548   1.643   3.715  1.6814  0.6353 -0.0336
  126SOPE  H17S13517   2.699   1.539   3.732 -0.4903  1.4409 -1.7794
  126SOPE  C21813518   2.603   1.565   3.911  0.7201 -0.2369 -0.5233
  126SOPE  H18R13519   2.626   1.469   3.963  1.2830 -0.0204 -0.3730
  126SOPE  H18S13520   2.506   1.600   3.954  1.1085  2.1779 -1.5321
  126SOPE  H18T13521   2.676   1.639   3.949 -0.8105  0.7671  0.5433
  126SOPE   C3313522   2.983   0.975   3.027  0.6841 -0.1769  0.3826
  126SOPE   H3X13523   3.077   0.948   3.080  1.8098  4.2954  0.9172
  126SOPE   H3Y13524   2.898   0.964   3.097 -0.0383 -1.6638 -0.7037
  126SOPE   C3413525   2.996   1.131   2.985 -0.9269 -0.1301  0.5965
  126SOPE   H4X13526   2.898   1.166   2.947 -1.6543 -0.3591  2.1913
  126SOPE   H4Y13527   3.077   1.133   2.909  0.5453 -2.1696  2.0589
  126SOPE   C3513528   3.022   1.226   3.108 -0.1923  0.2171 -0.2240
  126SOPE   H5X13529   3.109   1.201   3.173 -1.5982  0.0147  1.6179
  126SOPE   H5Y13530   2.929   1.207   3.166 -0.1438  0.1638 -0.1618
  126SOPE   C3613531   3.032   1.368   3.056 -0.6067 -0.3707 -0.5626
  126SOPE   H6X13532   2.931   1.411   3.042 -1.4288 -0.6593  3.8252
  126SOPE   H6Y13533   3.081   1.367   2.956 -0.6014  0.6540 -0.5821
  126SOPE   C3713534   3.119   1.471   3.138  0.1785 -0.1246  0.5829
  126SOPE   H7X13535   3.127   1.565   3.080 -0.6022 -1.1087 -1.1648
  126SOPE   H7Y13536   3.221   1.426   3.147  0.2856 -0.1014 -0.4311
  126SOPE   C3813537   3.077   1.486   3.288  0.0928  0.7615  0.0305
  126SOPE   H8X13538   3.074   1.388   3.340  4.1811  0.1540 -0.6522
  126SOPE   H8Y13539   2.982   1.543   3.288 -0.0167  0.5841 -0.5204
  126SOPE   C3913540   3.166   1.587   3.361 -0.2373 -0.2294 -0.2776
  126SOPE   H9X13541   3.133   1.691   3.339  1.6113  1.0909  2.8922
  126SOPE   H9Y13542   3.266   1.564   3.320 -0.5570 -2.1252 -0.0319
  126SOPE  C31013543   3.176   1.570   3.515 -0.1258  0.5606  0.0575
  126SOPE  H10X13544   3.275   1.609   3.547 -0.8780  2.0415  0.6154
  126SOPE  H10Y13545   3.180   1.464   3.550 -0.0257  0.5228 -0.0649
  126SOPE  C31113546   3.067   1.643   3.587  0.0571 -0.2978 -0.5553
  126SOPE  H11X13547   2.971   1.590   3.570 -0.6662  1.8685 -3.7816
  126SOPE  H11Y13548   3.066   1.742   3.536 -0.0747 -1.3363 -2.6274
  126SOPE  C31213549   3.089   1.655   3.744  0.0389 -0.1698 -1.1743
  126SOPE  H12X13550   3.199   1.667   3.750  0.3720 -3.2503 -0.2351
  126SOPE  H12Y13551   3.058   1.556   3.782  1.7079 -0.4738 -0.5795
  126SOPE  C31313552   3.011   1.773   3.811 -0.0471  0.3571 -0.3596
  126SOPE  H13X13553   2.907   1.738   3.797  1.4803 -3.5898 -2.6464
  126SOPE  H13Y13554   3.014   1.860   3.743  1.1321 -0.2336 -1.0813
  126SOPE  C31413555   3.042   1.801   3.960  0.1285  0.0122 -0.3762
  126SOPE  H14X13556   3.148   1.831   3.974 -0.0805  0.5275  0.1054
  126SOPE  H14Y13557   3.028   1.704   4.011  1.7989 -0.6621 -1.1909
  126SOPE  C31513558   2.954   1.912   4.021 -0.1407  0.7255 -0.5211
  126SOPE  H15X13559   2.948   2.000   3.953  1.2867  0.0976 -1.4829
  126SOPE  H15Y13560   3.006   1.947   4.113  2.4600 -1.4374 -1.1173
  126SOPE  C31613561   2.804   1.877   4.030 -0.1938 -0.0615  0.1081
  126SOPE  H16X13562   2.794   1.779   4.080  2.0385  0.6401  2.0625
  126SOPE  H16Y13563   2.758   1.861   3.931 -2.4072 -1.9118  1.3841
  126SOPE  C31713564   2.709   1.976   4.105  0.3136  0.0566 -0.0356
  126SOPE  H17X13565   2.731   2.079   4.070 -1.6584  0.1335 -1.1449
  126SOPE  H17Y13566   2.733   1.970   4.213 -0.8978  2.4494  0.3907
  126SOPE  C31813567   2.563   1.939   4.089 -0.3985 -0.0436 -0.1099
  126SOPE  H18X13568   2.511   2.037   4.097  0.5848  0.4819 -0.0470
  126SOPE  H18Y13569   2.524   1.868   4.165 -2.7662  2.2778  0.9273
  126SOPE  H18Z13570   2.534   1.897   3.990 -0.3027 -1.1650  0.3340
  127SOPE     N13571   6.334   1.757   2.276  0.8397  0.0326 -0.4588
  127SOPE   HN113572   6.334   1.706   2.367  1.8226 -1.7677 -1.4445
  127SOPE   HN213573   6.417   1.712   2.233  1.6328 -0.8592  1.9185
  127SOPE   HN313574   6.367   1.850   2.309 -2.0394  0.4331  1.4840
  127SOPE   C1213575   6.215   1.745   2.184  0.0229 -0.3675 -0.2248
  127SOPE  H12A13576   6.191   1.637   2.173  0.0227 -0.3936  0.0121
  127SOPE  H12B13577   6.239   1.787   2.084  0.9218  0.4639  0.3213
  127SOPE   C1113578   6.085   1.812   2.247 -0.3789  0.1061  0.1576
  127SOPE  H11A13579   6.042   1.765   2.338 -1.9637 -0.2773 -0.7733
  127SOPE  H11B13580   6.000   1.805   2.176 -3.3034 -0.0862  3.5576
  127SOPE     P13581   6.016   2.066   2.255  0.2304 -0.0188 -0.2336
  127SOPE   O1313582   5.951   2.062   2.126 -0.2536  0.1197 -0.8812
  127SOPE   O1413583   6.097   2.188   2.283 -0.0741 -0.1839  0.4006
  127SOPE   O1213584   6.114   1.944   2.277 -0.4031  0.1356  0.0866
  127SOPE   O1113585   5.916   2.055   2.370  0.2681 -0.4581  0.2481
  127SOPE    C113586   5.797   1.982   2.335  0.4394 -0.5477 -0.0885
  127SOPE    HA13587   5.823   1.880   2.303  2.9375  0.3867 -1.1250
  127SOPE    HB13588   5.737   2.031   2.256  0.2874  0.3586  0.5761
  127SOPE    C213589   5.710   1.967   2.467  0.1767 -0.2178 -0.3439
  127SOPE    HS13590   5.611   1.928   2.433 -0.7103  1.2767  0.4686
  127SOPE   O2113591   5.695   2.094   2.525 -0.2328 -0.0829  0.4212
  127SOPE   C2113592   5.593   2.091   2.622  0.0905 -0.0230 -0.1373
  127SOPE   O2213593   5.509   2.001   2.631 -0.2066 -0.2891  0.0906
  127SOPE   C2213594   5.620   2.193   2.730  0.8422  0.1954 -0.3415
  127SOPE   H2R13595   5.609   2.295   2.686 -2.0610  0.4360  0.8128
  127SOPE   H2S13596   5.726   2.185   2.763  1.0106 -0.6919 -1.0892
  127SOPE    C313597   5.775   1.868   2.568  0.4216  0.3598  0.2710
  127SOPE    HX13598   5.794   1.770   2.519 -0.0770 -0.6468  2.0662
  127SOPE    HY13599   5.699   1.849   2.647 -0.1364  3.8648  0.6367
  127SOPE   O3113600   5.889   1.932   2.631 -0.0945 -0.3417 -0.3680
  127SOPE   C3113601   6.007   1.872   2.647 -0.5734 -0.1129  0.2987
  127SOPE   O3213602   6.031   1.759   2.624 -0.2544  0.0533 -0.3976
  127SOPE   C3213603   6.100   1.977   2.703 -0.6485  0.9643 -0.2874
  127SOPE   H2X13604   6.105   2.069   2.640  0.4976  1.3106  0.2867
  127SOPE   H2Y13605   6.202   1.935   2.693 -0.0860  2.9753 -3.9032
  127SOPE   C2313606   5.511   2.185   2.847  0.3459  0.0283  0.2075
  127SOPE   H3R13607   5.513   2.083   2.891  0.6911  0.1300  0.4294
  127SOPE   H3S13608   5.408   2.202   2.810  0.3770 -1.2134 -0.4573
  127SOPE   C2413609   5.548   2.286   2.961  0.0626 -0.3991  0.0714
  127SOPE   H4R13610   5.549   2.391   2.926 -0.2164 -0.2425  0.5299
  127SOPE   H4S13611   5.485   2.276   3.052 -0.9711 -1.8306 -0.7807
  127SOPE   C2513612   5.689   2.275   3.021 -0.1376  0.5037  0.2247
  127SOPE   H5R13613   5.770   2.301   2.949 -2.1797 -0.5861 -2.5625
  127SOPE   H5S13614   5.687   2.362   3.090  1.2881  2.5530 -2.2217
  127SOPE   C2613615   5.718   2.139   3.088  0.1902 -0.7619  0.2710
  127SOPE   H6R13616   5.627   2.118   3.147 -0.6546  1.4483 -0.1744
  127SOPE   H6S13617   5.740   2.058   3.015 -1.4197 -2.8713  2.0816
  127SOPE   C2713618   5.830   2.147   3.197  0.6825 -0.2913 -0.4334
  127SOPE   H7R13619   5.914   2.210   3.160 -0.3836  0.7165 -1.1824
  127SOPE   H7S13620   5.791   2.212   3.278  2.9338 -0.7919  1.0803
  127SOPE   C2813621   5.872   2.009   3.251  0.1177 -0.6187 -0.9526
  127SOPE   H8R13622   5.871   1.936   3.168  0.8994 -1.6449 -0.0700
  127SOPE   H8S13623   5.977   2.007   3.288 -0.5270  1.9812  1.1982
  127SOPE   C2913624   5.777   1.965   3.355  0.2364 -0.2796  0.1524
  127SOPE   H9113625   5.706   1.890   3.321  0.3673 -0.9945  1.4258
  127SOPE  C21013626   5.773   2.014   3.484 -0.3450 -0.3744  0.3514
  127SOPE  H10113627   5.689   1.984   3.548 -0.0957 -1.0894  0.3500
  127SOPE  C21113628   5.869   2.114   3.546  0.0452 -0.0564 -0.0313
  127SOPE  H11R13629   5.822   2.215   3.537  0.3713  0.1964  1.0770
  127SOPE  H11S13630   5.969   2.105   3.499  0.0987 -4.2372  0.6600
  127SOPE  C21213631   5.892   2.084   3.693  0.0435 -0.0775 -0.0433
  127SOPE  H12R13632   5.970   2.153   3.732  1.4908 -0.8695 -1.4730
  127SOPE  H12S13633   5.942   1.986   3.707  0.5704  0.1614 -0.2240
  127SOPE  C21313634   5.764   2.092   3.776 -0.3095 -0.3895  0.6973
  127SOPE  H13R13635   5.709   1.999   3.750  0.0514 -1.3957  3.3803
  127SOPE  H13S13636   5.698   2.176   3.747  1.0252 -0.4654 -2.7175
  127SOPE  C21413637   5.798   2.089   3.926  1.0535  0.3129 -0.3002
  127SOPE  H14R13638   5.815   2.192   3.965 -1.3047  0.3141  0.7850
  127SOPE  H14S13639   5.886   2.025   3.949  0.5576 -0.0599  0.5839
  127SOPE  C21513640   5.683   2.023   4.000  0.9204  0.6439 -0.6948
  127SOPE  H15R13641   5.672   1.917   3.969  0.4644  0.3176  0.5771
  127SOPE  H15S13642   5.588   2.077   3.982 -0.0654 -0.7666  0.1467
  127SOPE  C21613643   5.718   2.030   4.147  0.4003  0.2336 -0.1136
  127SOPE  H16R13644   5.828   2.013   4.148  0.6983  2.0147 -0.7822
  127SOPE  H16S13645   5.672   1.941   4.196 -2.1408  1.1750 -0.7421
  127SOPE  C21713646   5.686   2.148   4.232 -0.0673 -0.6656  0.8463
  127SOPE  H17R13647   5.730   2.233   4.175  0.5903 -3.3290 -2.8009
  127SOPE  H17S13648   5.740   2.141   4.329  1.5717  0.8815  0.0826
  127SOPE  C21813649   5.540   2.173   4.259  0.1105  0.0626 -0.2255
  127SOPE  H18R13650   5.492   2.235   4.180  0.9277  2.1108  0.8480
  127SOPE  H18S13651   5.525   2.230   4.353  0.2182 -1.0948  0.4991
  127SOPE  H18T13652   5.486   2.076   4.266  0.1462  0.1501  1.5545
  127SOPE   C3313653   6.063   2.000   2.851 -0.5642  0.1819  0.3110
  127SOPE   H3X13654   6.069   1.903   2.904  2.7652 -2.0113 -3.7899
  127SOPE   H3Y13655   5.962   2.045   2.864 -0.9136 -0.4508 -0.1795
  127SOPE   C3413656   6.162   2.101   2.928 -0.7519 -0.5747 -0.2997
  127SOPE   H4X13657   6.257   2.044   2.933 -0.9778 -0.9297  0.0373
  127SOPE   H4Y13658   6.116   2.118   3.027 -2.1327  0.6997 -1.1319
  127SOPE   C3513659   6.201   2.233   2.858  0.8031 -0.3441 -0.0002
  127SOPE   H5X13660   6.118   2.302   2.832  0.6497  0.2042  1.8263
  127SOPE   H5Y13661   6.268   2.221   2.770 -0.2613 -1.9540 -0.6198
  127SOPE   C3613662   6.298   2.319   2.947  0.0541  0.3925 -0.1654
  127SOPE   H6X13663   6.364   2.373   2.876  0.7482 -1.1958 -0.7554
  127SOPE   H6Y13664   6.364   2.254   3.007 -0.1883  0.2905 -0.0080
  127SOPE   C3713665   6.224   2.415   3.035 -0.3162 -0.3513 -0.3925
  127SOPE   H7X13666   6.128   2.378   3.076  0.7608 -0.6448  1.9850
  127SOPE   H7Y13667   6.208   2.502   2.968  0.1265 -1.3531 -1.8288
  127SOPE   C3813668   6.307   2.462   3.162 -0.3670 -0.3577  0.3476
  127SOPE   H8X13669   6.297   2.572   3.162  1.6317 -0.1110 -2.5859
  127SOPE   H8Y13670   6.411   2.439   3.131 -0.7401 -0.4980 -0.8439
  127SOPE   C3913671   6.270   2.393   3.291  0.4621 -0.5877  0.4746
  127SOPE   H9X13672   6.168   2.421   3.325 -0.4438 -3.0200 -0.1733
  127SOPE   H9Y13673   6.339   2.429   3.370  1.7427  1.0034 -1.3114
  127SOPE  C31013674   6.282   2.239   3.285  0.2207 -0.2765  0.2747
  127SOPE  H10X13675   6.380   2.212   3.239  0.6112  0.7998  0.4478
  127SOPE  H10Y13676   6.197   2.194   3.229  0.1390 -1.0234  0.9950
  127SOPE  C31113677   6.272   2.187   3.427  0.7361  0.1635  0.4675
  127SOPE  H11X13678   6.188   2.234   3.482  0.6778  0.2282  0.3252
  127SOPE  H11Y13679   6.366   2.218   3.478  0.2306  2.1366  0.2607
  127SOPE  C31213680   6.269   2.033   3.437 -0.0253 -0.0686  0.5217
  127SOPE  H12X13681   6.366   2.005   3.391 -0.8538 -1.9928 -0.0963
  127SOPE  H12Y13682   6.181   1.978   3.397  0.7088  0.4518 -1.8751
  127SOPE  C31313683   6.281   1.987   3.581  0.1859 -0.0778  0.2176
  127SOPE  H13X13684   6.190   2.014   3.637  0.4292 -0.1734  0.6648
  127SOPE  H13Y13685   6.362   2.035   3.640 -0.0113  1.6332 -0.8783
  127SOPE  C31413686   6.287   1.833   3.587 -0.0780  0.4517 -0.1064
  127SOPE  H14X13687   6.379   1.787   3.544 -0.6199  0.2501 -1.0763
  127SOPE  H14Y13688   6.211   1.786   3.521 -0.2536  0.1440  0.3169
  127SOPE  C31513689   6.278   1.782   3.732  0.1896 -0.7063 -0.4231
  127SOPE  H15X13690   6.297   1.673   3.739 -1.1193 -0.8340  1.6116
  127SOPE  H15Y13691   6.179   1.797   3.781  1.6987 -0.2744  2.6140
  127SOPE  C31613692   6.384   1.852   3.822  0.5528  0.2028  0.0476
  127SOPE  H16X13693   6.344   1.950   3.857  0.1694  0.2302 -0.4595
  127SOPE  H16Y13694   6.478   1.882   3.771  1.1012 -0.3170  0.7386
  127SOPE  C31713695   6.418   1.772   3.946  0.2796 -0.8823 -0.5875
  127SOPE  H17X13696   6.509   1.805   4.001  0.3939  0.9424 -1.8522
  127SOPE  H17Y13697   6.437   1.673   3.900  0.0891 -1.1530 -0.0957
  127SOPE  C31813698   6.303   1.752   4.044  0.4550  0.4861  0.1076
  127SOPE  H18X13699   6.312   1.668   4.116 -2.2220 -0.3078 -0.4122
  127SOPE  H18Y13700   6.207   1.732   3.991 -0.9271 -0.4478  2.8571
  127SOPE  H18Z13701   6.301   1.846   4.103 -0.7443 -0.5370  1.7187
  128SOPE     N13702   0.101   1.380   2.038  0.3421  0.2204 -0.5041
  128SOPE   HN113703   0.183   1.388   1.975  1.0001 -1.6769  0.0981
  128SOPE   HN213704   0.143   1.343   2.126 -0.2533  0.5471 -0.0772
  128SOPE   HN313705   0.036   1.305   2.007  0.9607 -1.3553  1.8478
  128SOPE   C1213706   0.034   1.507   2.075  0.3273  0.3960 -0.2097
  128SOPE  H12A13707  -0.067   1.495   2.120 -0.0948  1.1073 -0.9449
  128SOPE  H12B13708   0.025   1.564   1.980  1.4129  1.9522  0.6004
  128SOPE   C1113709   0.123   1.588   2.167  1.0866 -0.0470 -0.7072
  128SOPE  H11A13710   0.153   1.538   2.261 -0.7420  1.0919  0.5219
  128SOPE  H11B13711   0.071   1.681   2.200  0.1690 -0.7555 -0.1180
  128SOPE     P13712   0.336   1.733   2.133  0.8113  0.0122  0.2553
  128SOPE   O1313713   0.271   1.861   2.102 -0.1807 -0.3417 -0.2707
  128SOPE   O1413714   0.467   1.702   2.069 -0.1122  0.2720 -0.4026
  128SOPE   O1213715   0.238   1.610   2.099 -0.2685  0.0014 -0.6281
  128SOPE   O1113716   0.356   1.721   2.291  0.7270  0.3260  0.1958
  128SOPE    C113717   0.408   1.597   2.352 -0.1669  0.0960 -0.0858
  128SOPE    HA13718   0.440   1.530   2.269  0.0483 -0.1917  0.2309
  128SOPE    HB13719   0.331   1.537   2.406 -0.6695  2.3015  1.7024
  128SOPE    C213720   0.531   1.624   2.450  0.7759  0.8146  0.2106
  128SOPE    HS13721   0.598   1.536   2.453 -0.7401 -0.3530  0.0872
  128SOPE   O2113722   0.480   1.659   2.580 -0.1712 -0.1212 -0.3731
  128SOPE   C2113723   0.486   1.565   2.668 -0.0105 -0.4223  0.4737
  128SOPE   O2213724   0.512   1.447   2.646  0.4483 -0.2873 -0.3094
  128SOPE   C2213725   0.446   1.628   2.804  0.5220 -0.2191  0.0402
  128SOPE   H2R13726   0.336   1.641   2.801  0.3649 -1.3078  0.8129
  128SOPE   H2S13727   0.510   1.717   2.820  1.4647 -1.1993  1.8154
  128SOPE    C313728   0.619   1.732   2.403 -0.2581 -0.1830 -0.8397
  128SOPE    HX13729   0.565   1.828   2.390 -1.2491 -0.3128  1.9131
  128SOPE    HY13730   0.645   1.708   2.298 -0.2167 -0.3414 -0.7928
  128SOPE   O3113731   0.743   1.729   2.472  0.1210  0.0769 -0.0526
  128SOPE   C3113732   0.764   1.811   2.572 -1.0072 -0.2621 -0.4206
  128SOPE   O3213733   0.682   1.891   2.612 -0.2311 -0.0721 -0.1390
  128SOPE   C3213734   0.907   1.793   2.637 -0.4128 -0.0365  0.1151
  128SOPE   H2X13735   0.980   1.812   2.556  1.2980 -1.3880  1.2855
  128SOPE   H2Y13736   0.907   1.690   2.679  0.5341 -0.0344  0.1310
  128SOPE   C2313737   0.471   1.534   2.926  0.4153  1.0183 -1.1932
  128SOPE   H3R13738   0.579   1.540   2.951  0.7598 -0.4598 -2.2524
  128SOPE   H3S13739   0.433   1.432   2.904  2.6015  0.1712 -1.1364
  128SOPE   C2413740   0.387   1.569   3.051 -0.6410 -0.4857  0.2210
  128SOPE   H4R13741   0.280   1.549   3.027 -0.9967  1.7274 -0.1729
  128SOPE   H4S13742   0.400   1.515   3.147  1.6129 -0.9893 -0.3248
  128SOPE   C2513743   0.394   1.717   3.087 -0.1776  0.1084 -0.4151
  128SOPE   H5R13744   0.501   1.747   3.085 -0.0848  0.0188  1.9789
  128SOPE   H5S13745   0.351   1.762   2.995  0.2918  0.0791 -0.6535
  128SOPE   C2613746   0.328   1.747   3.223 -0.3383 -0.0137  0.5298
  128SOPE   H6R13747   0.378   1.691   3.305  0.2621 -0.7326 -0.3297
  128SOPE   H6S13748   0.332   1.854   3.251  2.4576 -0.2546  1.1362
  128SOPE   C2713749   0.180   1.691   3.216 -0.2037  0.4659 -0.4605
  128SOPE   H7R13750   0.144   1.719   3.115  0.2181 -0.7592 -0.9630
  128SOPE   H7S13751   0.186   1.580   3.218 -0.5745  0.3807 -2.9322
  128SOPE   C2813752   0.096   1.737   3.329  0.4798 -0.0877  0.4859
  128SOPE   H8R13753   0.053   1.836   3.302 -0.1700 -0.3611  0.5082
  128SOPE   H8S13754   0.005   1.673   3.331  1.0517 -0.8880  2.3043
  128SOPE   C2913755   0.153   1.730   3.474  0.0747  0.0777 -0.0525
  128SOPE   H9113756   0.174   1.629   3.511  0.6187  0.0378 -0.4645
  128SOPE  C21013757   0.162   1.838   3.553  0.5496  0.1507 -0.5440
  128SOPE  H10113758   0.180   1.817   3.660 -0.8607  0.4825 -0.2300
  128SOPE  C21113759   0.117   1.981   3.539  0.2372 -0.2648  0.1618
  128SOPE  H11R13760   0.034   2.008   3.469 -0.3218 -0.2120  0.8429
  128SOPE  H11S13761   0.200   2.041   3.496 -0.4668  0.4027 -0.2902
  128SOPE  C21213762   0.083   2.051   3.671 -0.0773 -0.6447 -0.1947
  128SOPE  H12R13763   0.163   2.027   3.744 -1.1668 -1.2587  0.8211
  128SOPE  H12S13764  -0.008   2.011   3.721 -0.9743 -0.3203 -1.5372
  128SOPE  C21313765   0.074   2.201   3.644  1.2002  0.1363 -0.2020
  128SOPE  H13R13766  -0.003   2.226   3.567  1.5537 -0.2933 -0.6911
  128SOPE  H13S13767   0.173   2.234   3.606  2.1898 -2.3496  0.1559
  128SOPE  C21413768   0.041   2.288   3.761 -0.6322 -0.1942  0.5305
  128SOPE  H14R13769  -0.069   2.273   3.774 -0.4860 -0.1459  1.9130
  128SOPE  H14S13770   0.069   2.391   3.734 -2.2960 -0.5179 -2.6231
  128SOPE  C21513771   0.119   2.254   3.889  0.1597 -0.3051  0.0638
  128SOPE  H15R13772   0.223   2.220   3.868 -0.0876  0.9658 -3.5190
  128SOPE  H15S13773   0.063   2.170   3.936  0.0979 -1.2534 -1.6623
  128SOPE  C21613774   0.123   2.370   4.002 -0.2371 -0.8061  0.2914
  128SOPE  H16R13775   0.024   2.411   4.030  0.7261  0.1914  2.3682
  128SOPE  H16S13776   0.190   2.444   3.953 -0.6583 -1.4787 -1.3456
  128SOPE  C21713777   0.211   2.327   4.120 -0.3469  0.0073 -0.0210
  128SOPE  H17R13778   0.256   2.418   4.164  0.1290  0.1587 -0.8064
  128SOPE  H17S13779   0.294   2.259   4.090  1.1992  1.5384  0.7247
  128SOPE  C21813780   0.140   2.260   4.239  0.9418  0.4211 -0.4887
  128SOPE  H18R13781   0.050   2.319   4.267  1.1643 -0.7610  2.9451
  128SOPE  H18S13782   0.201   2.261   4.332 -0.3306 -2.6084  0.4439
  128SOPE  H18T13783   0.110   2.155   4.215  0.7403  0.0883  1.1328
  128SOPE   C3313784   0.940   1.893   2.754  0.4505  0.2371  0.9809
  128SOPE   H3X13785   0.929   1.996   2.714 -1.9963  1.0168  3.5298
  128SOPE   H3Y13786   1.049   1.895   2.775  0.5690 -0.4362  0.4511
  128SOPE   C3413787   0.859   1.882   2.880 -0.0275  0.3491  0.2155
  128SOPE   H4X13788   0.751   1.885   2.854  0.3430  0.0406 -1.4180
  128SOPE   H4Y13789   0.876   1.963   2.954 -2.7905  1.8289 -0.6968
  128SOPE   C3513790   0.872   1.738   2.955  0.7625 -0.0568  0.2023
  128SOPE   H5X13791   0.980   1.714   2.967  0.4864 -0.7478  1.4180
  128SOPE   H5Y13792   0.822   1.653   2.904 -0.2591  1.4170 -1.2792
  128SOPE   C3613793   0.829   1.747   3.102  0.4741  0.5427 -0.2775
  128SOPE   H6X13794   0.724   1.780   3.117  0.3196 -0.2469  0.4005
  128SOPE   H6Y13795   0.870   1.841   3.144  0.0331  0.3604  0.5778
  128SOPE   C3713796   0.865   1.618   3.176 -0.6331 -0.2261  0.7425
  128SOPE   H7X13797   0.974   1.632   3.192 -0.4964 -1.2491  0.7188
  128SOPE   H7Y13798   0.837   1.521   3.128 -0.7198  0.8630 -1.4830
  128SOPE   C3813799   0.804   1.623   3.318  0.0959  0.6304  0.2879
  128SOPE   H8X13800   0.816   1.722   3.367 -0.6534  1.6242 -1.4592
  128SOPE   H8Y13801   0.861   1.547   3.376  0.3355 -1.5229 -2.6598
  128SOPE   C3913802   0.664   1.583   3.320  0.2732  0.2821  0.4797
  128SOPE   H9X13803   0.642   1.511   3.238  0.6088 -1.1271  1.5935
  128SOPE   H9Y13804   0.598   1.672   3.312 -1.8156 -1.0065  2.7342
  128SOPE  C31013805   0.623   1.506   3.452  0.1888  0.1888  0.3534
  128SOPE  H10X13806   0.711   1.444   3.479  0.2079  0.3356  0.6230
  128SOPE  H10Y13807   0.539   1.438   3.429  0.1843  0.1322  0.5365
  128SOPE  C31113808   0.573   1.610   3.559 -0.5240  0.4139  0.3103
  128SOPE  H11X13809   0.497   1.682   3.525  0.4315  2.4875  2.4685
  128SOPE  H11Y13810   0.656   1.682   3.575  0.3931 -0.6898  0.6688
  128SOPE  C31213811   0.510   1.544   3.684 -0.0861  0.2490 -0.8620
  128SOPE  H12X13812   0.588   1.481   3.732 -0.1107 -1.4076 -2.9103
  128SOPE  H12Y13813   0.428   1.480   3.647  0.4228 -1.2424  0.5340
  128SOPE  C31313814   0.464   1.657   3.772  0.5800 -0.2502 -0.3488
  128SOPE  H13X13815   0.383   1.713   3.722  0.5898  1.6868  1.6956
  128SOPE  H13Y13816   0.546   1.730   3.794 -0.7450  1.0547  0.3269
  128SOPE  C31413817   0.409   1.616   3.914 -0.0980 -0.0806 -0.4301
  128SOPE  H14X13818   0.498   1.584   3.973  1.0305  0.5456 -1.7481
  128SOPE  H14Y13819   0.338   1.531   3.907 -0.2794  0.1044 -0.8240
  128SOPE  C31513820   0.327   1.732   3.980  0.0630 -0.0235 -0.3184
  128SOPE  H15X13821   0.274   1.691   4.069 -1.0141 -1.2409 -1.4972
  128SOPE  H15Y13822   0.260   1.780   3.905 -1.5298 -1.3067  0.2591
  128SOPE  C31613823   0.427   1.829   4.033 -0.0174  0.5490  0.1099
  128SOPE  H16X13824   0.496   1.865   3.953  0.1478 -0.2444 -0.1082
  128SOPE  H16Y13825   0.483   1.775   4.112 -2.0024 -0.4240  0.8768
  128SOPE  C31713826   0.361   1.958   4.083 -0.0791 -0.5429 -1.0277
  128SOPE  H17X13827   0.279   1.930   4.151  0.3422 -1.1983 -0.7774
  128SOPE  H17Y13828   0.318   2.001   3.990  1.3488  0.0392 -1.4337
  128SOPE  C31813829   0.456   2.051   4.157  0.2378  0.4877  0.2811
  128SOPE  H18X13830   0.514   2.109   4.082  0.8927 -1.7670 -1.0269
  128SOPE  H18Y13831   0.529   1.996   4.220 -1.2640 -0.1510  1.4806
  128SOPE  H18Z13832   0.398   2.117   4.224  0.3425 -0.9172  1.7993
  129OSM      N13833   2.527   5.008   6.505 -0.3605 -0.2361  0.5587
  129OSM    C1513834   2.386   5.002   6.551  0.4914  0.1244 -0.4778
  129OSM   H15A13835   2.334   4.916   6.513  0.1689  0.0930  0.0323
  129OSM   H15B13836   2.330   5.090   6.524  0.4173  0.0122 -0.6870
  129OSM   H15C13837   2.382   4.983   6.657 -1.9509 -0.4884 -0.6548
  129OSM    C1413838   2.595   5.118   6.577 -0.6883 -0.1798 -0.1516
  129OSM   H14A13839   2.702   5.102   6.574 -0.5764  0.2233  1.1429
  129OSM   H14B13840   2.563   5.122   6.680  0.0550 -0.6302  0.1030
  129OSM   H14C13841   2.584   5.215   6.531 -3.4417  0.0376  0.8739
  129OSM    C1313842   2.592   4.884   6.568  0.6907 -0.8831  0.1734
  129OSM   H13A13843   2.545   4.788   6.550 -1.0841  0.2138 -1.1287
  129OSM   H13B13844   2.594   4.893   6.675  0.3497  0.3176  0.0853
  129OSM   H13C13845   2.696   4.880   6.538 -0.0108 -0.6092 -2.4643
  129OSM    C1213846   2.541   5.020   6.356 -1.0381 -0.5255 -0.2480
  129OSM   H12A13847   2.473   5.101   6.334 -0.2328  0.7289  1.7302
  129OSM   H12B13848   2.514   4.939   6.290  0.0617 -0.1484 -1.1812
  129OSM    C1113849   2.688   5.040   6.299  0.3534  0.1670 -0.6767
  129OSM   H11A13850   2.739   5.120   6.357 -0.6143  0.4754 -0.2408
  129OSM   H11B13851   2.685   5.077   6.194  1.6898  0.5056 -0.6070
  129OSM      P13852   2.734   4.804   6.204  0.0812 -0.1134  0.2764
  129OSM    O1313853   2.762   4.678   6.273  0.2297 -0.5266  0.6006
  129OSM    O1413854   2.603   4.805   6.142 -0.1115  0.8674 -0.6329
  129OSM    O1113855   2.846   4.825   6.092  0.4916  0.4385  0.4244
  129OSM    O1213856   2.761   4.913   6.317 -0.3624  0.1622 -0.2317
  129OSM    C1S13857   2.918   4.722   6.026 -0.5533  0.1057  0.3152
  129OSM    H1S13858   2.936   4.643   6.102  1.0678  1.4962  1.4047
  129OSM    H1T13859   3.017   4.765   6.001 -0.0959 -0.3835  1.2556
  129OSM     NF13860   2.914   4.551   5.848  0.2125  0.0806  0.3484
  129OSM    HNF13861   2.974   4.564   5.769 -1.4879  0.3246 -0.9321
  129OSM    C2S13862   2.848   4.667   5.890 -0.1393  0.3295 -0.0338
  129OSM    H2S13863   2.742   4.638   5.906  0.0457  0.7750  2.1402
  129OSM    C3S13864   2.854   4.785   5.776  0.6048 -0.4766  0.2168
  129OSM    H3S13865   2.962   4.801   5.759  0.9094 -2.4036  0.3177
  129OSM     O313866   2.804   4.906   5.824 -1.1888  0.0042 -0.3750
  129OSM    HO313867   2.796   4.901   5.920 -4.4472 -0.9331 -0.6066
  129OSM    C4S13868   2.782   4.746   5.656 -0.3673  0.4322 -0.1915
  129OSM    H4S13869   2.683   4.704   5.681  0.9315 -1.8761  1.1984
  129OSM    C5S13870   2.815   4.753   5.526  0.1804 -0.4165 -0.0619
  129OSM    H5S13871   2.898   4.824   5.511  1.1047 -1.5370 -0.3116
  129OSM    C6S13872   2.735   4.713   5.412  0.2730 -0.1840  0.1054
  129OSM    H6S13873   2.639   4.669   5.447  0.8533 -2.3706 -0.9091
  129OSM    H6T13874   2.774   4.624   5.358 -1.7669 -0.7919 -0.3949
  129OSM    C7S13875   2.702   4.826   5.301 -0.7815  0.8296  0.7503
  129OSM    H7S13876   2.799   4.870   5.269 -1.1349  1.3324  0.3525
  129OSM    H7T13877   2.643   4.905   5.351 -0.6997 -0.0582  2.2770
  129OSM    C8S13878   2.619   4.768   5.187 -0.4370 -0.3712  0.8008
  129OSM    H8S13879   2.519   4.742   5.229 -1.3610 -0.5199 -1.4330
  129OSM    H8T13880   2.662   4.674   5.147 -0.7571 -0.2082  0.0712
  129OSM    C9S13881   2.613   4.871   5.074  0.1619  0.2900 -0.2678
  129OSM    H9S13882   2.591   4.975   5.108  1.5311  0.3293  0.5268
  129OSM    H9T13883   2.529   4.844   5.007  0.9323  0.1586 -1.1875
  129OSM   C10S13884   2.729   4.864   4.974  0.6691 -0.0445 -0.1021
  129OSM   H10S13885   2.829   4.869   5.023  0.8398 -0.9452 -0.3567
  129OSM   H10T13886   2.721   4.958   4.915  2.6138  0.3070  0.1428
  129OSM   C11S13887   2.731   4.736   4.887 -0.0797  0.1966 -0.9263
  129OSM   H11S13888   2.639   4.718   4.828 -0.4376  0.5566 -0.4780
  129OSM   H11T13889   2.747   4.648   4.953 -2.2202  0.3655 -0.1537
  129OSM   C12S13890   2.854   4.734   4.798 -0.2054 -1.0396  0.1831
  129OSM   H12S13891   2.884   4.628   4.781 -3.6013 -2.3116  1.7080
  129OSM   H12T13892   2.928   4.783   4.865 -1.2926 -0.4957  0.9901
  129OSM   C13S13893   2.839   4.823   4.676 -0.3476 -0.8025 -0.3752
  129OSM   H13S13894   2.833   4.931   4.702  0.9879 -0.5357 -1.1323
  129OSM   H13T13895   2.736   4.804   4.638 -0.7181 -0.0958  0.2720
  129OSM   C14S13896   2.957   4.794   4.582 -0.5551  0.1072  0.3508
  129OSM   H14S13897   2.955   4.686   4.556 -0.0536  0.2946 -0.4813
  129OSM   H14T13898   3.043   4.824   4.645  0.2546 -1.8526  0.2086
  129OSM   C15S13899   2.940   4.878   4.450 -0.2116  0.2311 -0.5111
  129OSM   H15S13900   3.039   4.880   4.399 -0.2650 -0.4495 -0.6489
  129OSM   H15T13901   2.930   4.981   4.489  1.5836  0.6698 -1.1488
  129OSM   C16S13902   2.823   4.836   4.364 -0.0846  0.4818  0.3254
  129OSM   H16S13903   2.751   4.780   4.427 -1.1747  1.1848 -0.2871
  129OSM   H16T13904   2.857   4.759   4.291 -2.2589 -1.5956  1.4249
  129OSM   C17S13905   2.763   4.958   4.289 -0.3913  0.9300  0.6634
  129OSM   H17S13906   2.732   5.027   4.369  1.1208 -0.0714  2.1344
  129OSM   H17T13907   2.672   4.925   4.233 -0.0400 -0.7655  1.0439
  129OSM   C18S13908   2.853   5.019   4.177 -0.5154 -0.2170 -0.3485
  129OSM   H18S13909   2.897   4.931   4.125  0.3618  1.2801 -2.2054
  129OSM   H18T13910   2.925   5.088   4.227 -0.6140  0.3716 -1.0071
  129OSM   H18U13911   2.791   5.069   4.100  1.0654 -0.7240 -1.9918
  129OSM    C1F13912   2.922   4.435   5.910 -0.3190  0.5760  0.8954
  129OSM     OF13913   2.830   4.411   5.992  0.0651 -0.1459  0.2263
  129OSM    C2F13914   3.025   4.334   5.886  0.5793  0.5251  0.2737
  129OSM    H2F13915   3.031   4.315   5.777 -0.2027 -0.5349  0.4084
  129OSM    H2G13916   2.979   4.242   5.928  0.5515 -0.6015 -2.1660
  129OSM    C3F13917   3.166   4.364   5.949 -0.9138  0.1155  0.2694
  129OSM    H3F13918   3.242   4.284   5.937  0.0288  0.7613  1.7533
  129OSM    H3G13919   3.165   4.370   6.060 -0.0195  0.2607  0.2732
  129OSM    C4F13920   3.235   4.493   5.897 -0.2798 -0.2679 -0.3514
  129OSM    H4F13921   3.332   4.523   5.942 -1.0665 -1.5947  2.3023
  129OSM    H4G13922   3.166   4.580   5.909  0.4648  0.1848  0.7515
  129OSM    C5F13923   3.260   4.486   5.748 -0.0753 -0.3518  0.1973
  129OSM    H5F13924   3.172   4.457   5.688  0.5965 -2.6321  0.2686
  129OSM    H5G13925   3.339   4.409   5.735  0.5271  0.3870 -0.6068
  129OSM    C6F13926   3.303   4.622   5.696 -0.0353 -0.1353  0.8487
  129OSM    H6F13927   3.376   4.589   5.620 -1.0811  1.4755 -0.8964
  129OSM    H6G13928   3.345   4.684   5.779  1.8985  1.2510 -1.1300
  129OSM    C7F13929   3.182   4.688   5.627  0.0689  0.0615  0.3838
  129OSM    H7F13930   3.167   4.798   5.640  2.0181  0.1426  2.0852
  129OSM    H7G13931   3.090   4.652   5.679  0.4586 -1.0208  0.3376
  129OSM    C8F13932   3.171   4.670   5.473  0.3186  0.6183 -0.1177
  129OSM    H8F13933   3.262   4.722   5.436 -0.8626  1.0064 -2.5316
  129OSM    H8G13934   3.081   4.724   5.438  0.4106  0.3638 -0.7497
  129OSM    C9F13935   3.184   4.528   5.418 -0.6268  0.0318 -0.2315
  129OSM    H9F13936   3.247   4.461   5.478 -2.2315 -0.7639  0.5967
  129OSM   C10F13937   3.131   4.494   5.295 -0.2395  0.1503 -0.9081
  129OSM   H10F13938   3.141   4.391   5.257 -2.7030 -0.5035  0.1318
  129OSM   C11F13939   3.053   4.584   5.203 -0.5006  0.0570 -0.8281
  129OSM   H11F13940   3.063   4.692   5.226  2.3742 -0.5469  0.9109
  129OSM   H11G13941   2.947   4.567   5.234 -0.5529 -1.5102 -1.8253
  129OSM   C12F13942   3.071   4.547   5.055 -0.2393  0.7623  0.1695
  129OSM   H12F13943   2.986   4.589   4.998 -0.6586  0.9678  0.9354
  129OSM   H12G13944   3.051   4.441   5.029 -2.8622  0.7075  2.2197
  129OSM   C13F13945   3.205   4.602   5.011 -0.3494 -0.2815 -0.2542
  129OSM   H13F13946   3.295   4.554   5.056 -0.3583 -0.0801 -0.0220
  129OSM   H13G13947   3.202   4.713   5.023 -1.9453 -0.3379  0.0084
  129OSM   C14F13948   3.246   4.585   4.864  0.0914 -0.3433 -0.4597
  129OSM   H14F13949   3.321   4.655   4.823 -0.7371  0.7631 -0.1004
  129OSM   H14G13950   3.160   4.614   4.799  0.0613  0.4059 -0.0862
  129OSM   C15F13951   3.304   4.443   4.822  0.3809 -0.0381 -0.2975
  129OSM   H15F13952   3.227   4.363   4.828  0.0811  0.2211 -0.6660
  129OSM   H15G13953   3.377   4.414   4.900 -0.8692 -0.2134  0.8359
  129OSM   C16F13954   3.354   4.447   4.680 -0.6837  0.8296  0.0157
  129OSM   H16F13955   3.385   4.552   4.658 -0.5280  0.5735 -0.9954
  129OSM   H16G13956   3.281   4.411   4.604  0.7578 -0.9383 -0.5506
  129OSM   C17F13957   3.484   4.362   4.666 -0.2598  0.3615  0.5170
  129OSM   H17F13958   3.467   4.253   4.677 -0.6936  0.3008 -0.6693
  129OSM   H17G13959   3.547   4.394   4.752 -1.6305  0.8202  1.3689
  129OSM   C18F13960   3.571   4.389   4.544 -0.6791  0.3633 -0.3881
  129OSM   H18F13961   3.590   4.498   4.538  0.2231  0.3703  2.0051
  129OSM   H18G13962   3.524   4.350   4.451  2.2327 -0.3819 -1.6206
  129OSM   H18H13963   3.669   4.336   4.550 -0.6475  0.6352  1.4696
  130OSM      N13964   4.095   5.751   6.694 -0.4090 -0.5262 -0.1281
  130OSM    C1513965   4.031   5.683   6.806 -0.3535 -0.1733  0.2182
  130OSM   H15A13966   3.925   5.703   6.808 -0.2451  0.5226 -0.5194
  130OSM   H15B13967   4.083   5.698   6.900 -0.7641 -0.5008  0.4975
  130OSM   H15C13968   4.046   5.579   6.780  1.4494  0.8565 -3.2503
  130OSM    C1413969   4.119   5.892   6.725  0.2700 -0.0112  0.2280
  130OSM   H14A13970   4.024   5.943   6.734  0.6869  0.5010  1.8109
  130OSM   H14B13971   4.182   5.941   6.652  1.5683  1.1627  2.1021
  130OSM   H14C13972   4.158   5.903   6.825 -1.5095 -1.9431  1.1792
  130OSM    C1313973   4.228   5.687   6.681 -0.1656  0.0518  0.4228
  130OSM   H13A13974   4.288   5.710   6.768  0.8939 -1.9488  0.2680
  130OSM   H13B13975   4.278   5.720   6.591  0.7152 -0.0109  0.8806
  130OSM   H13C13976   4.212   5.582   6.660 -1.4095  0.2887  0.1271
  130OSM    C1213977   4.015   5.728   6.566  0.2236  0.1906 -0.1463
  130OSM   H12A13978   4.051   5.778   6.478  0.1581 -0.9071 -0.8064
  130OSM   H12B13979   3.915   5.765   6.584  0.3446  0.5304 -0.1709
  130OSM    C1113980   3.992   5.584   6.518 -0.0079  0.4214  0.3370
  130OSM   H11A13981   3.906   5.578   6.448  1.9408  0.0694 -2.0960
  130OSM   H11B13982   3.973   5.518   6.605 -0.9193 -1.0209 -0.9109
  130OSM      P13983   4.106   5.394   6.389 -0.2057  0.1217  0.2248
  130OSM    O1313984   4.245   5.340   6.390  0.2371  0.2605  0.3598
  130OSM    O1413985   4.005   5.305   6.446  0.1605 -0.4598 -0.3233
  130OSM    O1113986   4.081   5.424   6.239  0.0361 -0.5558 -0.1505
  130OSM    O1213987   4.109   5.539   6.454  0.1947 -0.9609 -0.5396
  130OSM    C1S13988   3.949   5.446   6.187  0.5254  0.2397 -0.4099
  130OSM    H1S13989   3.912   5.548   6.209  0.9387  0.8658 -2.4938
  130OSM    H1T13990   3.883   5.363   6.222  1.0337  0.0177  0.0229
  130OSM     NF13991   3.812   5.460   5.982 -0.8492  0.4037 -0.4886
  130OSM    HNF13992   3.750   5.382   5.976  2.3749 -2.1374 -2.1700
  130OSM    C2S13993   3.945   5.431   6.024  0.2057  0.3342  0.1968
  130OSM    H2S13994   4.017   5.504   5.982  1.2272 -0.3454  0.7720
  130OSM    C3S13995   3.994   5.289   5.985 -0.4910 -0.2696 -0.5468
  130OSM    H3S13996   3.957   5.214   6.058  1.7900 -1.7428 -0.8549
  130OSM     O313997   4.133   5.282   6.001 -0.2637 -0.3681 -0.1137
  130OSM    HO313998   4.151   5.363   6.049  1.2389 -2.7749  3.6614
  130OSM    C4S13999   3.949   5.256   5.844 -0.8054  0.8376  0.0260
  130OSM    H4S14000   3.963   5.334   5.768  2.3081  2.9685  2.6592
  130OSM    C5S14001   3.871   5.154   5.808  0.1665  0.1850 -0.3726
  130OSM    H5S14002   3.823   5.087   5.882 -2.5327 -0.8476 -2.9318
  130OSM    C6S14003   3.822   5.127   5.670 -0.0194  0.8304  0.1363
  130OSM    H6S14004   3.723   5.077   5.679  0.8383 -0.8380  0.4555
  130OSM    H6T14005   3.892   5.051   5.628 -1.3181 -1.1094  1.3866
  130OSM    C7S14006   3.808   5.247   5.573 -0.2318  0.4996 -0.5126
  130OSM    H7S14007   3.890   5.320   5.556 -0.3024  0.8705  0.6767
  130OSM    H7T14008   3.722   5.309   5.608 -0.0106 -0.2019  1.3228
  130OSM    C8S14009   3.760   5.195   5.432  0.2835  0.5456  0.6505
  130OSM    H8S14010   3.665   5.142   5.455  1.8202 -1.3139  2.8445
  130OSM    H8T14011   3.827   5.117   5.388 -2.0078 -0.4071 -1.2767
  130OSM    C9S14012   3.728   5.307   5.338  0.3297 -0.1617  0.2404
  130OSM    H9S14013   3.823   5.360   5.317  0.6941 -0.5520  0.8484
  130OSM    H9T14014   3.653   5.370   5.390  0.1610  0.3394 -0.6036
  130OSM   C10S14015   3.664   5.263   5.206 -0.7203 -0.9117 -0.0024
  130OSM   H10S14016   3.614   5.350   5.158 -0.2110 -0.3314  0.5139
  130OSM   H10T14017   3.588   5.188   5.236  0.4248 -1.2948  2.0547
  130OSM   C11S14018   3.750   5.194   5.091 -0.4240  0.3479  0.1523
  130OSM   H11S14019   3.785   5.094   5.125  1.8461  0.3450 -2.0090
  130OSM   H11T14020   3.836   5.264   5.077  1.2124 -1.3744  1.3309
  130OSM   C12S14021   3.674   5.188   4.964  0.0297 -0.0611  0.1951
  130OSM   H12S14022   3.625   5.285   4.941  0.2168  0.4195  1.7133
  130OSM   H12T14023   3.588   5.120   4.979  0.1078 -0.6397 -1.8384
  130OSM   C13S14024   3.747   5.140   4.836 -0.5818  0.7314  0.5301
  130OSM   H13S14025   3.804   5.046   4.854  2.3226  2.7900  2.5023
  130OSM   H13T14026   3.811   5.229   4.819  1.2675 -1.0191 -2.0351
  130OSM   C14S14027   3.655   5.143   4.709 -0.1694  0.1074  0.0492
  130OSM   H14S14028   3.721   5.126   4.620  0.0090  1.4263 -0.0917
  130OSM   H14T14029   3.600   5.238   4.694 -0.8118 -0.7350 -3.5204
  130OSM   C15S14030   3.566   5.023   4.716 -0.2872  0.2027 -0.0653
  130OSM   H15S14031   3.538   4.998   4.821  2.3091  0.9527  0.8289
  130OSM   H15T14032   3.628   4.939   4.678  0.7674  1.3747 -0.9420
  130OSM   C16S14033   3.436   5.042   4.630  0.3117 -0.1933 -0.5269
  130OSM   H16S14034   3.465   5.057   4.524 -0.4712  1.2082 -0.5535
  130OSM   H16T14035   3.376   5.131   4.659 -1.0931 -0.6954 -1.8325
  130OSM   C17S14036   3.341   4.924   4.652  0.1745  0.7751  0.4722
  130OSM   H17S14037   3.240   4.970   4.650  0.6010  1.7360  0.7235
  130OSM   H17T14038   3.352   4.889   4.757 -0.0153  2.2346  0.9828
  130OSM   C18S14039   3.371   4.812   4.555  0.0723  0.5374  0.3311
  130OSM   H18S14040   3.290   4.737   4.546  0.0299  0.3404  2.1251
  130OSM   H18T14041   3.463   4.751   4.569  1.1482  1.7594 -1.3134
  130OSM   H18U14042   3.387   4.860   4.456  0.7274 -0.7076 -0.1622
  130OSM    C1F14043   3.769   5.586   6.001 -0.1783  0.0145 -0.3216
  130OSM     OF14044   3.849   5.679   6.008  0.1602 -1.0161  1.2468
  130OSM    C2F14045   3.618   5.611   6.009 -0.1982  0.2999  0.2139
  130OSM    H2F14046   3.574   5.544   6.085  0.4222 -0.3409  0.0183
  130OSM    H2G14047   3.585   5.571   5.911  1.0803  0.2362 -0.2050
  130OSM    C3F14048   3.578   5.751   6.015  0.5052 -0.4477  0.1759
  130OSM    H3F14049   3.598   5.809   5.922 -1.6576  0.0352 -0.0093
  130OSM    H3G14050   3.641   5.787   6.100  0.8688 -1.1096  0.1893
  130OSM    C4F14051   3.434   5.795   6.051 -0.3443 -0.3929 -0.3792
  130OSM    H4F14052   3.419   5.904   6.068  0.3967 -0.3686  0.1400
  130OSM    H4G14053   3.431   5.734   6.144 -1.3826  1.2804  0.7171
  130OSM    C5F14054   3.333   5.747   5.937  0.3497 -0.1784  0.4313
  130OSM    H5F14055   3.232   5.724   5.977  0.0280 -2.3661 -1.5592
  130OSM    H5G14056   3.369   5.652   5.892  0.2825  1.1634 -2.5951
  130OSM    C6F14057   3.336   5.849   5.816  0.1739 -0.4964 -0.1899
  130OSM    H6F14058   3.287   5.791   5.735  1.0757 -0.5938 -0.6720
  130OSM    H6G14059   3.432   5.895   5.781  0.0491  1.3331  1.7342
  130OSM    C7F14060   3.242   5.970   5.841 -0.1474 -0.5113  0.0595
  130OSM    H7F14061   3.282   6.016   5.934  1.2391 -2.1415  0.2905
  130OSM    H7G14062   3.148   5.930   5.887  0.0259 -0.8099  0.1545
  130OSM    C8F14063   3.224   6.068   5.727  0.0611 -0.2595 -0.7454
  130OSM    H8F14064   3.322   6.112   5.702 -1.1759  2.2900 -1.2096
  130OSM    H8G14065   3.152   6.150   5.746  0.6441 -0.0871  0.7973
  130OSM    C9F14066   3.169   5.994   5.604  0.6199 -0.0785  0.1499
  130OSM    H9F14067   3.076   5.939   5.623  2.3002 -3.2159 -0.2859
  130OSM   C10F14068   3.222   5.994   5.478 -0.5707  0.4416 -0.5579
  130OSM   H10F14069   3.174   5.930   5.402  1.3184 -0.3667 -1.1146
  130OSM   C11F14070   3.343   6.067   5.432  0.4429 -0.5214 -0.7809
  130OSM   H11F14071   3.380   6.140   5.507  0.6258 -0.3322 -1.0537
  130OSM   H11G14072   3.323   6.117   5.335 -0.0954  1.1581  0.1680
  130OSM   C12F14073   3.445   5.963   5.393  0.6889  0.4278 -0.1595
  130OSM   H12F14074   3.452   5.890   5.476  0.2383  0.9489  0.3414
  130OSM   H12G14075   3.539   6.022   5.385  2.5542 -2.3899  0.5163
  130OSM   C13F14076   3.421   5.896   5.258  0.3559  0.1839  0.6675
  130OSM   H13F14077   3.370   5.970   5.192  2.0087  1.7884  1.1704
  130OSM   H13G14078   3.347   5.812   5.256  1.4282 -0.8232  2.1635
  130OSM   C14F14079   3.546   5.848   5.185  0.2344  1.1407  0.1162
  130OSM   H14F14080   3.598   5.938   5.145 -0.6076  1.5757  0.0004
  130OSM   H14G14081   3.514   5.781   5.102 -2.1800 -0.2893  2.1229
  130OSM   C15F14082   3.636   5.762   5.272 -0.2893  0.0317  0.7334
  130OSM   H15F14083   3.583   5.681   5.326  1.3484 -1.3443  0.3131
  130OSM   H15G14084   3.688   5.821   5.350 -0.2503  1.0718 -0.0606
  130OSM   C16F14085   3.739   5.684   5.184  0.0546 -0.2082  0.4487
  130OSM   H16F14086   3.692   5.607   5.120 -1.3986 -1.0302  2.4467
  130OSM   H16G14087   3.795   5.621   5.257 -3.0390 -0.4795  2.6917
  130OSM   C17F14088   3.825   5.774   5.094 -0.1600  0.3660 -0.0331
  130OSM   H17F14089   3.845   5.868   5.151 -0.1894  0.6189 -0.4389
  130OSM   H17G14090   3.764   5.799   5.005  0.9089  1.0459 -0.5931
  130OSM   C18F14091   3.949   5.711   5.044 -0.0007 -0.1872 -0.5914
  130OSM   H18F14092   3.935   5.611   4.997 -1.5992  0.8078 -2.2999
  130OSM   H18G14093   4.017   5.688   5.129 -0.7584 -1.0170 -0.2024
  130OSM   H18H14094   4.012   5.782   4.988 -0.9361 -1.0518 -2.8001
  131OSM      N14095   4.000   1.953   6.565 -0.1931  0.5548  0.2051
  131OSM    C1514096   4.098   1.908   6.668  0.6505  0.4795  0.9269
  131OSM   H15A14097   4.198   1.944   6.646 -0.3511  2.7398 -0.0710
  131OSM   H15B14098   4.096   1.800   6.662 -0.8096  0.4380  2.0241
  131OSM   H15C14099   4.066   1.931   6.769 -3.0173  1.2899 -0.3591
  131OSM    C1414100   4.043   1.926   6.429 -0.4914 -0.0543 -0.1168
  131OSM   H14A14101   3.972   1.964   6.358 -1.8466 -2.1815  0.0706
  131OSM   H14B14102   4.063   1.822   6.409 -0.9417 -0.1894  0.1253
  131OSM   H14C14103   4.129   1.986   6.402  1.2338 -2.8727 -1.1235
  131OSM    C1314104   3.876   1.872   6.587  0.3430  0.5999 -0.1488
  131OSM   H13A14105   3.887   1.768   6.563 -0.1249  0.5362 -0.0942
  131OSM   H13B14106   3.803   1.896   6.511 -0.2603  3.3982  1.2323
  131OSM   H13C14107   3.822   1.880   6.680 -0.6855 -0.9505 -0.5899
  131OSM    C1214108   3.970   2.102   6.581 -0.2271 -0.0861  0.4235
  131OSM   H12A14109   4.063   2.156   6.582 -0.1877 -0.1599  0.9576
  131OSM   H12B14110   3.930   2.128   6.678  0.3160  0.5186  0.4908
  131OSM    C1114111   3.873   2.161   6.472 -0.3728  0.4169 -0.6401
  131OSM   H11A14112   3.833   2.259   6.506 -0.2556 -0.0491  0.8782
  131OSM   H11B14113   3.785   2.095   6.460 -1.4917  1.5042  1.3752
  131OSM      P14114   4.051   2.265   6.314  0.0035 -0.1077 -0.4137
  131OSM    O1314115   4.016   2.403   6.358 -0.5450  0.3042  0.1749
  131OSM    O1414116   4.171   2.198   6.370  0.0765 -0.1767 -0.1160
  131OSM    O1114117   4.070   2.272   6.156  0.0519 -0.0987 -0.5142
  131OSM    O1214118   3.919   2.171   6.340 -0.4833 -0.4319  0.3167
  131OSM    C1S14119   4.173   2.195   6.093 -0.2168 -0.1005 -0.3074
  131OSM    H1S14120   4.198   2.100   6.145 -1.2084  0.9137  2.1366
  131OSM    H1T14121   4.265   2.256   6.090 -1.0818  1.2475  0.1114
  131OSM     NF14122   4.240   2.088   5.881 -0.0424 -0.4697 -0.5925
  131OSM    HNF14123   4.311   2.133   5.828  0.9472 -0.0039  1.1087
  131OSM    C2S14124   4.142   2.167   5.937  0.2047  0.5767 -0.5363
  131OSM    H2S14125   4.040   2.124   5.934  0.0442  1.0343 -1.7867
  131OSM    C3S14126   4.138   2.315   5.865 -0.5165 -0.0597  0.3981
  131OSM    H3S14127   4.243   2.351   5.867 -0.2583 -0.7886 -0.1834
  131OSM     O314128   4.063   2.409   5.935  0.5459  0.1101  0.2087
  131OSM    HO314129   4.044   2.370   6.021 -0.2816 -1.2434 -0.5674
  131OSM    C4S14130   4.083   2.300   5.735 -0.2605 -0.0854 -0.4045
  131OSM    H4S14131   3.974   2.312   5.731 -0.1625  0.7236 -0.7832
  131OSM    C5S14132   4.153   2.306   5.621 -0.0210  0.7920  0.2764
  131OSM    H5S14133   4.262   2.307   5.611 -0.1355 -0.6811 -1.2923
  131OSM    C6S14134   4.079   2.296   5.488  0.0517 -0.7039 -0.0485
  131OSM    H6S14135   4.108   2.378   5.418  1.2952  1.1338  2.5137
  131OSM    H6T14136   3.969   2.300   5.502 -0.0016  1.3509 -0.8655
  131OSM    C7S14137   4.123   2.167   5.422 -0.8700 -0.1708  0.0231
  131OSM    H7S14138   4.117   2.079   5.489 -1.3574  0.0811  0.3113
  131OSM    H7T14139   4.230   2.174   5.391 -0.8459  0.4589  0.2497
  131OSM    C8S14140   4.036   2.144   5.295 -0.3893  0.1420  0.0766
  131OSM    H8S14141   3.942   2.201   5.309  1.6073  3.1981  1.6246
  131OSM    H8T14142   4.018   2.034   5.298 -0.1908  0.1278  1.1404
  131OSM    C9S14143   4.102   2.167   5.154  0.4891 -0.0173 -0.0675
  131OSM    H9S14144   4.185   2.094   5.150 -0.3454 -0.9788  0.1237
  131OSM    H9T14145   4.138   2.272   5.149 -1.7341  0.6907 -1.9797
  131OSM   C10S14146   4.001   2.137   5.040 -0.2502  0.3769 -0.2036
  131OSM   H10S14147   3.911   2.194   5.072  1.0663  2.0108  0.6561
  131OSM   H10T14148   3.978   2.028   5.041  0.8648  0.1325  0.3639
  131OSM   C11S14149   4.046   2.177   4.902  0.0594 -0.5050  0.2481
  131OSM   H11S14150   4.148   2.146   4.869 -1.1743 -3.4498 -0.9493
  131OSM   H11T14151   4.036   2.288   4.906  0.9019 -0.4520  1.2158
  131OSM   C12S14152   3.950   2.142   4.790  0.2891 -0.2799  0.4489
  131OSM   H12S14153   3.877   2.224   4.773  2.8479  1.8528 -0.7831
  131OSM   H12T14154   3.903   2.045   4.817 -0.5438 -0.7914 -2.5945
  131OSM   C13S14155   4.011   2.135   4.654  0.1689  0.0215 -0.6577
  131OSM   H13S14156   4.099   2.068   4.646  1.1212  0.9900  1.2281
  131OSM   H13T14157   4.052   2.236   4.630  1.6949 -0.6424 -0.8906
  131OSM   C14S14158   3.898   2.086   4.551 -0.1789 -0.6209 -0.4574
  131OSM   H14S14159   3.809   2.144   4.583 -0.4370 -1.0106 -0.4684
  131OSM   H14T14160   3.878   1.977   4.561 -2.4420 -0.0707  1.3010
  131OSM   C15S14161   3.935   2.120   4.411 -0.0207 -0.2915  0.4630
  131OSM   H15S14162   4.031   2.070   4.386 -1.7256 -3.1837 -0.5686
  131OSM   H15T14163   3.940   2.231   4.406  0.4805 -0.2854  0.9778
  131OSM   C16S14164   3.824   2.087   4.304 -0.4337  0.2489 -0.4912
  131OSM   H16S14165   3.725   2.116   4.346  0.5057  0.1831  1.8681
  131OSM   H16T14166   3.842   1.978   4.288  1.9483  0.5799 -0.2506
  131OSM   C17S14167   3.835   2.162   4.173 -0.0382  0.2164  0.0360
  131OSM   H17S14168   3.753   2.123   4.109  0.3561  2.2632 -1.8012
  131OSM   H17T14169   3.931   2.140   4.121 -0.2315 -3.6316  1.2242
  131OSM   C18S14170   3.817   2.318   4.165 -0.1874  0.2144  0.6580
  131OSM   H18S14171   3.725   2.368   4.203 -0.2998  2.2928 -2.1748
  131OSM   H18T14172   3.832   2.348   4.059  1.6872  3.1531  1.6880
  131OSM   H18U14173   3.902   2.369   4.216  2.6101 -4.0192  0.4558
  131OSM    C1F14174   4.241   1.947   5.896  0.3384  0.1501 -1.1334
  131OSM     OF14175   4.137   1.888   5.928  0.3004  0.1753 -0.4268
  131OSM    C2F14176   4.371   1.875   5.880 -0.1557  0.0449 -0.3460
  131OSM    H2F14177   4.425   1.883   5.977  1.6038  1.5603 -1.4031
  131OSM    H2G14178   4.428   1.933   5.804  0.8679  1.1584  1.2239
  131OSM    C3F14179   4.373   1.734   5.825 -0.4144  0.9534  0.4082
  131OSM    H3F14180   4.319   1.669   5.896  0.3134 -0.5879 -0.4230
  131OSM    H3G14181   4.478   1.698   5.827 -0.8382 -0.2139  1.4890
  131OSM    C4F14182   4.323   1.722   5.675 -0.2336  0.0302  0.0292
  131OSM    H4F14183   4.215   1.745   5.663 -0.3332 -0.5132 -0.1301
  131OSM    H4G14184   4.333   1.612   5.665 -0.7894  0.0171 -0.4052
  131OSM    C5F14185   4.408   1.798   5.570  0.4262 -0.2901  0.6058
  131OSM    H5F14186   4.516   1.808   5.592  0.0254  1.6561  1.7383
  131OSM    H5G14187   4.375   1.904   5.576 -0.8896 -0.6470 -0.1839
  131OSM    C6F14188   4.385   1.749   5.424 -0.1948  0.3804 -0.0442
  131OSM    H6F14189   4.438   1.652   5.422 -1.6283 -0.4176 -0.7960
  131OSM    H6G14190   4.454   1.807   5.360  2.3784 -2.2447  0.2573
  131OSM    C7F14191   4.248   1.735   5.370  0.4233 -0.2858  0.4316
  131OSM    H7F14192   4.197   1.834   5.360 -2.4207 -1.5826  1.4978
  131OSM    H7G14193   4.181   1.692   5.447 -0.8407  0.4146 -0.2580
  131OSM    C8F14194   4.240   1.653   5.234 -1.2492  0.0281 -0.5911
  131OSM    H8F14195   4.288   1.556   5.258 -2.5984 -0.5374 -0.1264
  131OSM    H8G14196   4.316   1.700   5.168 -1.7474 -2.2382 -2.8976
  131OSM    C9F14197   4.099   1.641   5.177 -0.2314  0.7830  0.0783
  131OSM    H9F14198   4.035   1.565   5.222  1.3859  0.2989  1.6353
  131OSM   C10F14199   4.050   1.693   5.064  0.2144 -0.2970 -0.3895
  131OSM   H10F14200   3.947   1.673   5.030 -0.4624  0.5095  1.1718
  131OSM   C11F14201   4.130   1.782   4.978  0.9631 -0.0419  0.1688
  131OSM   H11F14202   4.205   1.840   5.037 -0.5899  0.3536  1.7860
  131OSM   H11G14203   4.059   1.862   4.946 -0.5864 -1.2418  0.5469
  131OSM   C12F14204   4.205   1.705   4.865  0.0765 -0.2781 -0.0009
  131OSM   H12F14205   4.293   1.650   4.907  0.1374 -0.5371 -0.4726
  131OSM   H12G14206   4.243   1.777   4.790 -1.3653  0.3424 -0.1413
  131OSM   C13F14207   4.120   1.609   4.779  0.1868  0.6922 -0.0925
  131OSM   H13F14208   4.032   1.670   4.751 -0.3833 -0.1984 -0.2661
  131OSM   H13G14209   4.089   1.523   4.842  1.6488  1.3521  1.5786
  131OSM   C14F14210   4.205   1.550   4.660 -0.1455  0.0751  0.3163
  131OSM   H14F14211   4.289   1.484   4.691 -2.5552 -1.8159  3.1102
  131OSM   H14G14212   4.266   1.636   4.624  0.1481 -0.6744 -0.9978
  131OSM   C15F14213   4.132   1.479   4.543  1.1911  0.1472  1.0658
  131OSM   H15F14214   4.207   1.459   4.464 -1.7381 -1.6725 -1.3819
  131OSM   H15G14215   4.054   1.545   4.498 -1.6477 -1.6807  3.1375
  131OSM   C16F14216   4.062   1.346   4.582  0.4841  0.3255 -0.4004
  131OSM   H16F14217   4.094   1.318   4.685 -2.6716  0.5534  0.6940
  131OSM   H16G14218   4.083   1.267   4.506 -0.0956 -0.4527  0.2303
  131OSM   C17F14219   3.907   1.355   4.600  0.1202  0.1705  0.7285
  131OSM   H17F14220   3.882   1.444   4.662  0.8152  1.3664 -0.6618
  131OSM   H17G14221   3.869   1.262   4.647  1.6224  0.5782  2.7928
  131OSM   C18F14222   3.831   1.377   4.469 -0.3746  0.4689  0.7574
  131OSM   H18F14223   3.857   1.482   4.442  3.9712 -0.4504  0.8864
  131OSM   H18G14224   3.723   1.378   4.493 -0.5130  1.1069  0.1092
  131OSM   H18H14225   3.863   1.297   4.399 -1.0007 -0.4585  1.5044
  132OSM      N14226   4.835   5.557   6.258  0.4542  0.1921 -0.0843
  132OSM    C1514227   4.734   5.477   6.182  1.2472  0.0374  0.1438
  132OSM   H15A14228   4.708   5.378   6.216  0.4789  0.4755  0.8626
  132OSM   H15B14229   4.771   5.458   6.082  0.8146 -2.2747  0.3964
  132OSM   H15C14230   4.646   5.539   6.185  1.6015  0.4797  1.7911
  132OSM    C1414231   4.842   5.693   6.207  0.0401  0.4433  0.1836
  132OSM   H14A14232   4.746   5.742   6.200  0.7809  2.0732  0.9075
  132OSM   H14B14233   4.891   5.696   6.111 -1.9504  0.9793 -0.8439
  132OSM   H14C14234   4.902   5.757   6.271 -0.3252 -0.6672  1.6780
  132OSM    C1314235   4.776   5.557   6.395 -0.7167 -0.2026  0.5036
  132OSM   H13A14236   4.672   5.588   6.394 -0.6623 -0.0015 -2.3700
  132OSM   H13B14237   4.812   5.628   6.468  1.7854  0.4127 -1.2775
  132OSM   H13C14238   4.774   5.455   6.432 -2.1050 -0.4431 -0.1856
  132OSM    C1214239   4.966   5.486   6.262 -0.6486 -0.3085  0.1247
  132OSM   H12A14240   4.946   5.385   6.295  0.8992 -0.7915 -0.3389
  132OSM   H12B14241   5.029   5.519   6.343 -1.3258  0.2406  0.4272
  132OSM    C1114242   5.046   5.477   6.130 -0.4207 -0.2643 -0.7005
  132OSM   H11A14243   4.978   5.450   6.047 -0.7127 -0.3417 -0.4371
  132OSM   H11B14244   5.120   5.396   6.145  0.1714  0.4745  0.4575
  132OSM      P14245   5.243   5.656   6.177  0.0539 -0.1141  0.2765
  132OSM    O1314246   5.299   5.783   6.130 -0.0564  0.5172  0.3683
  132OSM    O1414247   5.213   5.663   6.324 -0.5358  0.5883 -0.0370
  132OSM    O1114248   5.350   5.536   6.154 -0.2281 -0.3678  0.0360
  132OSM    O1214249   5.108   5.607   6.111 -0.0587  0.7188 -0.4280
  132OSM    C1S14250   5.362   5.485   6.021  0.1196 -0.4254  0.1936
  132OSM    H1S14251   5.403   5.567   5.957 -3.8507  0.9916 -0.6390
  132OSM    H1T14252   5.260   5.458   5.988  0.3246 -1.2955  0.2514
  132OSM     NF14253   5.498   5.332   5.879  0.7391 -0.0618  0.2294
  132OSM    HNF14254   5.438   5.271   5.827  2.7124 -1.5172 -0.3985
  132OSM    C2S14255   5.449   5.357   6.015  0.4500 -0.5646 -0.4785
  132OSM    H2S14256   5.530   5.379   6.088  1.1814 -0.0390 -1.4407
  132OSM    C3S14257   5.371   5.236   6.078  0.2391 -0.1903  0.6247
  132OSM    H3S14258   5.286   5.223   6.009  0.5870  0.3183  0.0992
  132OSM     O314259   5.327   5.251   6.212 -0.3012 -0.7338  0.4753
  132OSM    HO314260   5.344   5.344   6.230  3.0635 -0.5883 -2.7957
  132OSM    C4S14261   5.463   5.116   6.092  0.3662  0.4139  0.4775
  132OSM    H4S14262   5.531   5.126   6.178 -1.0516  1.1959  1.5359
  132OSM    C5S14263   5.469   5.007   6.014  0.1405 -0.3418 -0.3863
  132OSM    H5S14264   5.410   5.000   5.921  1.1743 -0.7119 -1.0298
  132OSM    C6S14265   5.556   4.886   6.036  0.6204  0.2650 -0.3879
  132OSM    H6S14266   5.490   4.797   6.033  1.8950 -0.6975 -0.1180
  132OSM    H6T14267   5.598   4.895   6.138 -0.1158  3.1353 -0.2738
  132OSM    C7S14268   5.666   4.871   5.929 -0.1003 -0.3941  0.4187
  132OSM    H7S14269   5.619   4.886   5.830 -0.6638 -3.1361  0.2088
  132OSM    H7T14270   5.712   4.770   5.935  0.1716 -0.2172  1.4329
  132OSM    C8S14271   5.783   4.967   5.951  0.5557  0.3062  0.3568
  132OSM    H8S14272   5.806   4.972   6.060  0.7162 -0.0477  0.3402
  132OSM    H8T14273   5.749   5.071   5.933 -1.3828 -0.6431 -1.5845
  132OSM    C9S14274   5.912   4.931   5.877  1.0318  0.5027 -0.0903
  132OSM    H9S14275   5.942   4.825   5.895  0.6976 -0.1483 -3.0412
  132OSM    H9T14276   5.995   4.995   5.915  1.1731 -0.9719  2.1585
  132OSM   C10S14277   5.903   4.960   5.730 -0.0365 -0.3670  0.3966
  132OSM   H10S14278   5.865   5.062   5.708  1.5544  0.3476  0.8756
  132OSM   H10T14279   5.842   4.889   5.672 -0.3194  0.6597 -0.5672
  132OSM   C11S14280   6.043   4.953   5.669 -0.9551  0.5400 -0.1017
  132OSM   H11S14281   6.091   4.859   5.703 -2.0571  0.0165  0.0167
  132OSM   H11T14282   6.105   5.041   5.697 -0.5630 -0.3149  1.7589
  132OSM   C12S14283   6.033   4.961   5.509 -0.2075  0.2745 -0.5152
  132OSM   H12S14284   6.041   5.067   5.479  1.5653  0.0726 -0.7978
  132OSM   H12T14285   5.932   4.934   5.471  0.2271  0.0274 -1.5073
  132OSM   C13S14286   6.145   4.887   5.434  0.1812 -0.0401 -0.2037
  132OSM   H13S14287   6.132   4.777   5.441 -0.2002 -0.3657 -4.6397
  132OSM   H13T14288   6.240   4.922   5.480  0.4335  1.0369 -1.5135
  132OSM   C14S14289   6.131   4.928   5.286 -0.0124  0.3266 -0.3148
  132OSM   H14S14290   6.155   5.036   5.281  2.3189 -0.1854 -0.6423
  132OSM   H14T14291   6.025   4.910   5.257 -0.7780  1.1987  1.8505
  132OSM   C15S14292   6.227   4.860   5.197  0.5350  0.0649 -0.2560
  132OSM   H15S14293   6.208   4.751   5.195 -1.8476  0.4632 -1.3825
  132OSM   H15T14294   6.329   4.867   5.239  0.5940 -1.1597 -0.1871
  132OSM   C16S14295   6.224   4.913   5.055 -0.5109  0.2307 -0.1277
  132OSM   H16S14296   6.301   4.862   4.993 -0.3350  0.2401  0.0814
  132OSM   H16T14297   6.256   5.020   5.055  1.5089 -0.3062  2.6655
  132OSM   C17S14298   6.083   4.886   4.989  0.1142  0.4905  0.1103
  132OSM   H17S14299   6.015   4.962   5.034 -0.7011  0.1446 -0.5142
  132OSM   H17T14300   6.045   4.784   5.009  0.7671  0.4716  1.2389
  132OSM   C18S14301   6.078   4.907   4.835 -0.2411  0.2659  0.4776
  132OSM   H18S14302   6.142   4.837   4.777 -1.4976 -0.5361  0.0413
  132OSM   H18T14303   6.098   5.014   4.811 -0.3034  0.0447 -0.5995
  132OSM   H18U14304   5.976   4.886   4.797 -0.1649  0.4984  0.1361
  132OSM    C1F14305   5.598   5.396   5.829 -0.2896 -0.3788 -0.8994
  132OSM     OF14306   5.669   5.473   5.895  0.0191  0.7661 -0.3628
  132OSM    C2F14307   5.630   5.358   5.689 -0.4242 -0.4139  0.2188
  132OSM    H2F14308   5.538   5.323   5.639 -1.1675  1.9919 -0.1316
  132OSM    H2G14309   5.701   5.272   5.693  0.3362  0.1876 -0.1109
  132OSM    C3F14310   5.707   5.475   5.609  0.7794  0.3012  0.3404
  132OSM    H3F14311   5.788   5.519   5.671  0.6279 -1.7796  2.1090
  132OSM    H3G14312   5.634   5.558   5.595  1.0980  0.4013 -0.7656
  132OSM    C4F14313   5.769   5.445   5.476  0.0337  0.1210  0.5973
  132OSM    H4F14314   5.799   5.546   5.440  1.1624 -0.3448  0.1863
  132OSM    H4G14315   5.691   5.418   5.402 -1.1871  1.4704  1.3683
  132OSM    C5F14316   5.883   5.346   5.481 -0.5537 -0.1342  0.1381
  132OSM    H5F14317   5.843   5.243   5.497  0.1078 -0.5983 -1.1016
  132OSM    H5G14318   5.955   5.372   5.561  0.0832 -2.5373  0.3870
  132OSM    C6F14319   5.966   5.339   5.356 -0.4799 -0.4535 -0.3476
  132OSM    H6F14320   6.053   5.278   5.388 -1.6938 -2.4173 -0.6441
  132OSM    H6G14321   6.000   5.440   5.325  0.2825 -1.5604 -3.3007
  132OSM    C7F14322   5.904   5.269   5.238 -0.0346 -0.2712  0.0863
  132OSM    H7F14323   5.813   5.215   5.270  0.8705 -0.6882  1.9835
  132OSM    H7G14324   5.964   5.184   5.200  0.4393 -0.3385  0.9990
  132OSM    C8F14325   5.860   5.367   5.125  0.0363 -0.0558 -0.4159
  132OSM    H8F14326   5.934   5.450   5.126  2.2026 -1.9178 -1.6889
  132OSM    H8G14327   5.756   5.397   5.147  0.0110  0.8814 -1.7921
  132OSM    C9F14328   5.872   5.314   4.989 -0.4962 -0.1559  0.4413
  132OSM    H9F14329   5.849   5.206   4.988 -3.2370  0.3995  0.7475
  132OSM   C10F14330   5.908   5.373   4.880 -1.6662  0.7798  0.5868
  132OSM   H10F14331   5.917   5.314   4.788  1.7840  2.7637 -0.4857
  132OSM   C11F14332   5.952   5.515   4.866  0.6114 -0.3021 -0.0024
  132OSM   H11F14333   6.063   5.522   4.856  0.3992  1.5025 -1.3643
  132OSM   H11G14334   5.943   5.580   4.956 -0.4801  0.6980 -0.8326
  132OSM   C12F14335   5.879   5.589   4.753  0.9672  0.1518  0.0753
  132OSM   H12F14336   5.857   5.693   4.786 -2.2692  0.1044 -1.7060
  132OSM   H12G14337   5.781   5.540   4.736  0.7182  0.4488  0.6596
  132OSM   C13F14338   5.970   5.610   4.630 -0.1962  0.4301  0.0310
  132OSM   H13F14339   6.021   5.512   4.617  0.2816  0.3903  2.0534
  132OSM   H13G14340   6.046   5.689   4.648  0.0313  0.6441 -1.8115
  132OSM   C14F14341   5.899   5.647   4.500 -0.2150  0.2553  0.1170
  132OSM   H14F14342   5.829   5.568   4.466  0.8103 -0.9119  0.6530
  132OSM   H14G14343   5.983   5.647   4.426 -0.9110 -0.5497 -0.6807
  132OSM   C15F14344   5.820   5.764   4.517  0.0244 -0.1391  0.4770
  132OSM   H15F14345   5.877   5.845   4.567 -1.8034  1.6760 -0.2822
  132OSM   H15G14346   5.727   5.738   4.573  1.2986 -1.9252  1.8248
  132OSM   C16F14347   5.786   5.811   4.375  0.2264  0.3538 -0.5176
  132OSM   H16F14348   5.704   5.753   4.330  0.7084 -1.5255  0.9499
  132OSM   H16G14349   5.877   5.808   4.312  0.4292 -1.1203 -0.1718
  132OSM   C17F14350   5.735   5.961   4.363 -0.1782 -0.0991 -0.0687
  132OSM   H17F14351   5.828   6.021   4.360  1.6088 -2.7465  0.4184
  132OSM   H17G14352   5.674   5.978   4.454 -1.6713 -0.8696 -0.9025
  132OSM   C18F14353   5.643   5.970   4.242  0.0160 -0.2347  0.4587
  132OSM   H18F14354   5.695   5.912   4.163  0.9134 -1.8347  2.1745
  132OSM   H18G14355   5.612   6.076   4.228 -2.7516 -1.0014  0.4236
  132OSM   H18H14356   5.551   5.913   4.267 -1.0533  0.1494 -2.3681
  133OSM      N14357   1.890   5.383   6.450  0.5433  0.4768 -0.3093
  133OSM    C1514358   1.926   5.237   6.449  0.1604 -0.0106  0.5197
  133OSM   H15A14359   1.922   5.197   6.349 -1.0250  0.3358  0.4112
  133OSM   H15B14360   1.845   5.183   6.496 -0.5051  0.6631  0.1807
  133OSM   H15C14361   2.021   5.214   6.495  1.2017  0.9968 -1.0637
  133OSM    C1414362   1.765   5.415   6.363  0.2158  0.1573  0.3203
  133OSM   H14A14363   1.775   5.387   6.260  1.8986  0.3769  0.4107
  133OSM   H14B14364   1.732   5.518   6.365 -1.0563 -0.2483  0.1838
  133OSM   H14C14365   1.679   5.369   6.409 -0.7766  1.4645 -0.1785
  133OSM    C1314366   1.879   5.436   6.585  0.3891 -0.0017 -0.4194
  133OSM   H13A14367   1.870   5.543   6.593 -0.8129 -0.1415  0.1556
  133OSM   H13B14368   1.964   5.419   6.650 -0.6803  0.1799  1.0547
  133OSM   H13C14369   1.800   5.387   6.640  2.0873 -0.0450  2.0664
  133OSM    C1214370   2.005   5.476   6.378  0.2316  0.4726  0.1457
  133OSM   H12A14371   1.975   5.579   6.385 -1.1661  0.1409 -0.7899
  133OSM   H12B14372   2.005   5.458   6.271  3.6059  0.0491  0.1351
  133OSM    C1114373   2.152   5.464   6.428  0.3624 -0.2814  0.0161
  133OSM   H11A14374   2.153   5.489   6.536  2.1855 -1.9982  0.4224
  133OSM   H11B14375   2.212   5.532   6.364  0.5835 -2.1002 -1.7741
  133OSM      P14376   2.248   5.270   6.271 -0.0084  0.1216 -0.3719
  133OSM    O1314377   2.274   5.123   6.282  0.4861  0.3524  0.1342
  133OSM    O1414378   2.147   5.310   6.173 -0.2114 -0.5454  0.1583
  133OSM    O1114379   2.384   5.346   6.259 -1.4082  0.6056 -0.0338
  133OSM    O1214380   2.205   5.329   6.410  0.1976 -0.2528  0.8211
  133OSM    C1S14381   2.479   5.310   6.155  0.1293 -0.0324  0.4449
  133OSM    H1S14382   2.496   5.200   6.154  2.6274  0.2644  3.2439
  133OSM    H1T14383   2.579   5.351   6.183 -0.0245  0.7262 -0.0976
  133OSM     NF14384   2.539   5.322   5.916 -0.0709  0.0335  0.0244
  133OSM    HNF14385   2.617   5.383   5.899  1.1013 -0.8427  2.1175
  133OSM    C2S14386   2.443   5.370   6.016 -0.4003  0.6097 -0.0324
  133OSM    H2S14387   2.339   5.341   5.992 -0.7001  0.9355  0.8198
  133OSM    C3S14388   2.447   5.522   6.029  0.2352  0.4272  0.2285
  133OSM    H3S14389   2.543   5.554   6.075  0.7625 -0.1066 -0.4823
  133OSM     O314390   2.352   5.569   6.121  0.3397  0.2438 -0.0129
  133OSM    HO314391   2.301   5.494   6.154 -2.1830  1.2288 -1.5213
  133OSM    C4S14392   2.405   5.586   5.900  0.3225  0.8521 -0.4963
  133OSM    H4S14393   2.301   5.554   5.880  0.7469 -0.0973 -1.1811
  133OSM    C5S14394   2.482   5.655   5.816  0.4065  0.3876  0.3603
  133OSM    H5S14395   2.590   5.666   5.837  1.3726  0.9704 -4.3942
  133OSM    C6S14396   2.440   5.718   5.679  0.3383  0.4920  0.1468
  133OSM    H6S14397   2.500   5.801   5.637 -0.7354  1.3957  0.3475
  133OSM    H6T14398   2.336   5.756   5.688  0.3305  1.0122 -1.9178
  133OSM    C7S14399   2.435   5.605   5.579 -0.1430 -0.0016  0.2991
  133OSM    H7S14400   2.366   5.527   5.616  0.1055  0.6808  2.2570
  133OSM    H7T14401   2.540   5.572   5.564  0.5667  2.3240 -0.0732
  133OSM    C8S14402   2.375   5.644   5.438  0.1645 -0.3245  0.1399
  133OSM    H8S14403   2.281   5.701   5.449  0.5431  0.2046  0.7402
  133OSM    H8T14404   2.350   5.551   5.384 -3.4727  1.5579 -1.5656
  133OSM    C9S14405   2.479   5.723   5.347  0.5850  0.3279  0.4049
  133OSM    H9S14406   2.551   5.646   5.311  0.7684 -0.6982  2.8358
  133OSM    H9T14407   2.535   5.786   5.419  1.9056  0.9411 -1.1324
  133OSM   C10S14408   2.416   5.815   5.249 -0.0522  1.3510 -0.7856
  133OSM   H10S14409   2.495   5.870   5.195  0.6892 -0.9974 -2.1641
  133OSM   H10T14410   2.354   5.897   5.290 -1.2846 -1.3882  3.2201
  133OSM   C11S14411   2.338   5.736   5.149 -0.2198 -0.8956 -0.2349
  133OSM   H11S14412   2.283   5.805   5.081  0.0922 -0.9266 -0.5168
  133OSM   H11T14413   2.249   5.685   5.192 -1.7246  1.2764 -0.6484
  133OSM   C12S14414   2.436   5.647   5.064 -0.2270 -0.6018 -0.2551
  133OSM   H12S14415   2.461   5.556   5.122 -0.7452 -0.1437  0.7059
  133OSM   H12T14416   2.530   5.706   5.053 -0.1367 -0.7288 -0.1542
  133OSM   C13S14417   2.401   5.603   4.924 -0.1022 -0.3658 -0.1111
  133OSM   H13S14418   2.400   5.696   4.864  0.1441 -1.0617 -1.1995
  133OSM   H13T14419   2.296   5.567   4.930  0.0076 -0.3041  3.2987
  133OSM   C14S14420   2.497   5.498   4.869  0.3733 -0.1680  0.4989
  133OSM   H14S14421   2.507   5.414   4.942 -0.2194 -0.0895  0.6751
  133OSM   H14T14422   2.594   5.551   4.853 -1.6151  4.0934  1.6943
  133OSM   C15S14423   2.475   5.428   4.730  0.4107 -0.5943 -0.6662
  133OSM   H15S14424   2.374   5.382   4.730  0.2549 -0.2700 -2.3617
  133OSM   H15T14425   2.556   5.353   4.714  0.5259 -0.7735  0.6561
  133OSM   C16S14426   2.470   5.532   4.618  0.6421  0.0578 -0.4606
  133OSM   H16S14427   2.557   5.601   4.625  2.2253 -1.9260  0.2004
  133OSM   H16T14428   2.376   5.591   4.621  1.0319  0.6297  0.9818
  133OSM   C17S14429   2.468   5.453   4.490  0.1473 -0.0882 -0.4417
  133OSM   H17S14430   2.372   5.396   4.494 -0.5196  1.0951  0.9376
  133OSM   H17T14431   2.556   5.386   4.485 -0.0031 -0.2074 -1.5469
  133OSM   C18S14432   2.473   5.540   4.361  0.2736 -0.5539 -0.4276
  133OSM   H18S14433   2.557   5.613   4.371  0.5571 -1.1148  1.4357
  133OSM   H18T14434   2.376   5.584   4.332  1.0334  0.4067 -1.5657
  133OSM   H18U14435   2.508   5.476   4.277  3.4850  0.5673 -0.0187
  133OSM    C1F14436   2.531   5.202   5.852  0.1134 -0.1196 -0.2901
  133OSM     OF14437   2.467   5.112   5.903 -0.1712  0.5996 -0.0033
  133OSM    C2F14438   2.620   5.198   5.734 -1.0412  0.5706  0.1472
  133OSM    H2F14439   2.719   5.155   5.760 -2.1730 -1.8302  0.6311
  133OSM    H2G14440   2.632   5.301   5.694 -0.3368  1.0982  1.6628
  133OSM    C3F14441   2.576   5.102   5.617  0.3369  0.5744  0.5723
  133OSM    H3F14442   2.570   4.996   5.650  2.1858  0.9042  2.0618
  133OSM    H3G14443   2.653   5.105   5.538 -1.0754  2.0156 -0.7766
  133OSM    C4F14444   2.448   5.139   5.550 -0.2287  0.1261 -0.1778
  133OSM    H4F14445   2.371   5.167   5.624 -0.2138 -1.8997  0.6474
  133OSM    H4G14446   2.405   5.050   5.499  0.3893  0.2719 -0.9744
  133OSM    C5F14447   2.458   5.242   5.436  0.5287 -0.5527 -0.0502
  133OSM    H5F14448   2.535   5.317   5.463  1.0220 -1.0906  0.0524
  133OSM    H5G14449   2.363   5.298   5.426  0.6498 -0.3080  0.1546
  133OSM    C6F14450   2.479   5.170   5.302  0.1545  0.1903 -0.9039
  133OSM    H6F14451   2.388   5.109   5.281 -0.3104  0.5853 -0.1062
  133OSM    H6G14452   2.564   5.100   5.315  0.9056  1.2239 -0.1827
  133OSM    C7F14453   2.508   5.269   5.188 -0.0206 -0.0643  0.6746
  133OSM    H7F14454   2.416   5.326   5.165  0.5274  1.5222  2.2943
  133OSM    H7G14455   2.522   5.196   5.105 -4.1435 -0.1928 -0.0129
  133OSM    C8F14456   2.631   5.351   5.198 -0.0409  0.3363 -0.2006
  133OSM    H8F14457   2.617   5.418   5.286 -0.1534 -0.5629  0.4684
  133OSM    H8G14458   2.641   5.425   5.115 -1.3952  0.2426 -0.4551
  133OSM    C9F14459   2.763   5.281   5.204 -0.0860 -0.3832 -0.2828
  133OSM    H9F14460   2.797   5.252   5.305 -1.7738  0.8622  0.6541
  133OSM   C10F14461   2.833   5.253   5.096  0.3606 -0.4655  0.1354
  133OSM   H10F14462   2.935   5.214   5.105  1.2344  1.8881  0.7194
  133OSM   C11F14463   2.794   5.289   4.955  0.4853 -0.1081  0.1226
  133OSM   H11F14464   2.769   5.398   4.959  3.3353  0.5598  1.2681
  133OSM   H11G14465   2.708   5.229   4.917  0.1871  1.4972 -1.8749
  133OSM   C12F14466   2.912   5.260   4.865  0.0080  0.4696  0.0443
  133OSM   H12F14467   2.971   5.170   4.892 -3.2657 -1.3547  1.3107
  133OSM   H12G14468   2.981   5.348   4.858  0.2707  0.3614  1.0836
  133OSM   C13F14469   2.864   5.252   4.720  0.1443 -0.5702 -0.6734
  133OSM   H13F14470   2.818   5.352   4.704  0.9271  0.4203  2.7945
  133OSM   H13G14471   2.781   5.179   4.720 -1.4260  1.1719  0.5412
  133OSM   C14F14472   2.978   5.226   4.615 -0.7199  0.6439 -0.5591
  133OSM   H14F14473   2.934   5.191   4.520 -0.2306  0.6608 -0.7905
  133OSM   H14G14474   3.029   5.139   4.661 -1.4388  1.0903  1.1385
  133OSM   C15F14475   3.074   5.349   4.583 -0.1840  0.8240  0.2707
  133OSM   H15F14476   3.110   5.375   4.685 -1.2872  0.8060  0.6757
  133OSM   H15G14477   3.008   5.434   4.555  0.2784  0.9670 -0.4035
  133OSM   C16F14478   3.180   5.318   4.482  0.7710 -0.0041 -0.0640
  133OSM   H16F14479   3.245   5.242   4.530 -1.2225 -1.5805  0.1996
  133OSM   H16G14480   3.239   5.410   4.465 -0.8371  1.5620  2.3993
  133OSM   C17F14481   3.123   5.280   4.343  0.2753 -0.1981  0.2872
  133OSM   H17F14482   3.032   5.337   4.315  1.0487  0.7401 -0.3586
  133OSM   H17G14483   3.096   5.174   4.355 -0.5323  0.0454  0.6176
  133OSM   C18F14484   3.229   5.276   4.235  0.4124  0.0544  0.6944
  133OSM   H18F14485   3.254   5.381   4.210 -3.1131  0.6501 -0.6483
  133OSM   H18G14486   3.204   5.230   4.137 -0.8146  1.5263  0.3042
  133OSM   H18H14487   3.327   5.238   4.272  0.1876 -0.4151  0.8172
  134OSM      N14488   1.633   2.365   6.341 -0.3275  0.1558  0.0041
  134OSM    C1514489   1.586   2.411   6.207 -0.1599  0.4418 -0.1798
  134OSM   H15A14490   1.607   2.334   6.134  0.2789 -0.0626  0.4770
  134OSM   H15B14491   1.654   2.489   6.177 -0.2161  0.6333  0.1875
  134OSM   H15C14492   1.483   2.442   6.207 -1.0705 -2.4062  0.0223
  134OSM    C1414493   1.584   2.464   6.440 -0.0079  0.3063  0.0510
  134OSM   H14A14494   1.618   2.562   6.411  0.8315 -0.5972 -2.1250
  134OSM   H14B14495   1.634   2.445   6.534  0.1415 -3.0127 -0.6225
  134OSM   H14C14496   1.477   2.468   6.451 -0.0057  1.3202 -0.2676
  134OSM    C1314497   1.578   2.230   6.378 -0.7121  0.7913 -0.9326
  134OSM   H13A14498   1.471   2.226   6.364 -0.7869 -3.2045  0.1032
  134OSM   H13B14499   1.602   2.205   6.480  0.5209  2.3829 -0.8078
  134OSM   H13C14500   1.617   2.148   6.320  0.5842  1.1970 -0.6491
  134OSM    C1214501   1.786   2.370   6.339 -0.2994  0.0935 -0.6007
  134OSM   H12A14502   1.829   2.320   6.254  0.8715 -0.4477  0.3026
  134OSM   H12B14503   1.812   2.321   6.431 -1.0259  0.6624 -0.0773
  134OSM    C1114504   1.845   2.508   6.343  0.1208 -0.5458  0.7189
  134OSM   H11A14505   1.953   2.485   6.357  0.8286  0.7023 -2.3123
  134OSM   H11B14506   1.814   2.557   6.438 -0.9558  0.7674 -0.2761
  134OSM      P14507   1.918   2.706   6.215 -0.3254 -0.1112  0.2240
  134OSM    O1314508   1.886   2.807   6.314 -0.1664 -0.6334 -0.5085
  134OSM    O1414509   2.053   2.652   6.206  0.0503  0.0037 -0.0712
  134OSM    O1114510   1.883   2.762   6.075  0.0647  0.6602  0.0951
  134OSM    O1214511   1.818   2.579   6.224  0.3285  0.1826  0.1226
  134OSM    C1S14512   1.804   2.698   5.975 -0.0396  0.6183  0.2371
  134OSM    H1S14513   1.843   2.596   5.951 -0.5817  0.6026 -0.6109
  134OSM    H1T14514   1.817   2.749   5.877  1.5945 -0.5285 -0.1837
  134OSM     NF14515   1.583   2.663   5.885 -0.2085 -0.0652  0.2268
  134OSM    HNF14516   1.514   2.727   5.854 -0.2385 -1.2514 -2.3055
  134OSM    C2S14517   1.656   2.697   6.007 -0.1355  0.1077 -0.1522
  134OSM    H2S14518   1.640   2.616   6.081 -0.1851  1.4356  1.3148
  134OSM    C3S14519   1.594   2.823   6.067  0.0711 -0.0591  0.1744
  134OSM    H3S14520   1.631   2.843   6.169  0.9378  0.3683 -0.2147
  134OSM     O314521   1.455   2.807   6.086  0.5051  0.2279  0.0445
  134OSM    HO314522   1.439   2.721   6.046  1.9568 -1.3943  2.8503
  134OSM    C4S14523   1.610   2.941   5.978 -0.6151  0.4438  0.3121
  134OSM    H4S14524   1.533   2.951   5.899  0.0360 -0.5560 -0.4632
  134OSM    C5S14525   1.709   3.028   5.987  0.0932  0.6913  0.1795
  134OSM    H5S14526   1.789   3.013   6.061  2.7506  0.8292 -2.5422
  134OSM    C6S14527   1.724   3.147   5.900 -0.1247  0.2872 -0.1186
  134OSM    H6S14528   1.785   3.227   5.947 -0.4097  1.3616 -1.5235
  134OSM    H6T14529   1.630   3.198   5.868  1.3651  0.8535 -3.8975
  134OSM    C7S14530   1.802   3.106   5.773  0.9414  1.4395 -0.3923
  134OSM    H7S14531   1.891   3.049   5.810 -0.3486  0.1140  0.7377
  134OSM    H7T14532   1.835   3.194   5.713 -2.3749  3.3238  0.4120
  134OSM    C8S14533   1.725   3.025   5.674 -0.2779 -0.1570  0.3651
  134OSM    H8S14534   1.618   3.055   5.678  0.7790  3.7743  0.5479
  134OSM    H8T14535   1.719   2.917   5.701  1.2696 -0.3183  0.1305
  134OSM    C9S14536   1.778   3.032   5.524  0.1338  0.8543  1.2241
  134OSM    H9S14537   1.889   3.030   5.517 -0.0039 -0.8145 -0.9632
  134OSM    H9T14538   1.765   3.138   5.494  2.2952  0.5081 -1.0713
  134OSM   C10S14539   1.700   2.939   5.426 -0.4231  0.1282 -0.3039
  134OSM   H10S14540   1.590   2.947   5.439 -0.3183  3.4857 -1.0170
  134OSM   H10T14541   1.730   2.833   5.432 -0.8624  0.0870  1.4556
  134OSM   C11S14542   1.744   2.979   5.281 -0.1561 -0.1491  0.0771
  134OSM   H11S14543   1.854   2.966   5.289 -0.1529  1.0093  2.4827
  134OSM   H11T14544   1.731   3.088   5.261  0.2019 -0.5028 -2.1376
  134OSM   C12S14545   1.679   2.900   5.168 -0.4855 -0.5124  0.1055
  134OSM   H12S14546   1.742   2.815   5.137 -2.8613 -1.3876 -2.5152
  134OSM   H12T14547   1.664   2.969   5.082  0.2975 -0.2001  0.2147
  134OSM   C13S14548   1.537   2.846   5.194  0.0143 -0.6935  0.3979
  134OSM   H13S14549   1.464   2.929   5.188  1.1287  0.3885  1.2558
  134OSM   H13T14550   1.552   2.789   5.289  0.7841 -1.8221 -0.3831
  134OSM   C14S14551   1.502   2.724   5.095 -0.1436  0.1711  0.4966
  134OSM   H14S14552   1.569   2.715   5.006 -2.3957  0.2945 -1.2783
  134OSM   H14T14553   1.401   2.746   5.053  0.2721 -1.2516 -1.3480
  134OSM   C15S14554   1.504   2.585   5.159  0.3727  0.5242 -0.2024
  134OSM   H15S14555   1.431   2.519   5.108 -1.5123  0.3854  2.5625
  134OSM   H15T14556   1.470   2.596   5.265 -0.8378 -1.1392 -0.3933
  134OSM   C16S14557   1.641   2.529   5.174 -1.1081 -0.2431 -0.1298
  134OSM   H16S14558   1.696   2.600   5.240  0.3730  0.6665 -2.2571
  134OSM   H16T14559   1.683   2.525   5.071 -2.4569  0.5082 -0.7190
  134OSM   C17S14560   1.643   2.379   5.214  0.7202  0.3433  0.2705
  134OSM   H17S14561   1.587   2.323   5.136  0.2961  0.0423  0.7950
  134OSM   H17T14562   1.581   2.354   5.302  1.4735  1.3368  1.0883
  134OSM   C18S14563   1.779   2.318   5.228 -0.7887 -0.7337 -0.1193
  134OSM   H18S14564   1.755   2.210   5.219 -0.2222 -0.8157 -0.7158
  134OSM   H18T14565   1.827   2.338   5.326 -0.3621 -1.0928 -0.2504
  134OSM   H18U14566   1.850   2.341   5.145  0.5943  1.3853  1.6078
  134OSM    C1F14567   1.600   2.553   5.809  0.6167  0.0602 -1.3168
  134OSM     OF14568   1.657   2.458   5.861 -0.0139  0.1429  0.4264
  134OSM    C2F14569   1.541   2.548   5.671 -1.6072 -1.2062 -0.0173
  134OSM    H2F14570   1.516   2.441   5.652 -1.5910 -0.8802 -1.9169
  134OSM    H2G14571   1.618   2.584   5.600 -0.9612 -0.9867  0.7843
  134OSM    C3F14572   1.412   2.633   5.651 -0.2508 -0.4244 -0.2713
  134OSM    H3F14573   1.340   2.589   5.723  0.1284  1.7597  1.4830
  134OSM    H3G14574   1.376   2.593   5.554  1.5179 -1.0726 -0.6713
  134OSM    C4F14575   1.417   2.792   5.655 -1.0486  0.2461  0.2559
  134OSM    H4F14576   1.449   2.824   5.553 -1.3591  1.0828  0.4169
  134OSM    H4G14577   1.500   2.834   5.716 -0.7890  0.3859 -0.1902
  134OSM    C5F14578   1.281   2.845   5.663  0.0342  0.2911 -0.2104
  134OSM    H5F14579   1.251   2.797   5.759  0.2306 -1.0577 -0.8086
  134OSM    H5G14580   1.205   2.824   5.584  1.7556  0.5776 -1.9745
  134OSM    C6F14581   1.275   2.997   5.698 -0.2038  0.1213  0.1994
  134OSM    H6F14582   1.328   3.048   5.615 -1.0830  0.6747 -0.0266
  134OSM    H6G14583   1.330   3.018   5.793 -1.4126  0.5820  0.8115
  134OSM    C7F14584   1.128   3.052   5.718  0.2798  0.6430  0.1392
  134OSM    H7F14585   1.135   3.153   5.765 -2.2452 -0.0029  2.0060
  134OSM    H7G14586   1.077   2.993   5.797  1.6503 -1.9291 -0.8292
  134OSM    C8F14587   1.051   3.049   5.586 -0.2895  0.1691  0.2108
  134OSM    H8F14588   0.950   3.095   5.581 -1.5210 -2.5236 -0.2125
  134OSM    H8G14589   1.037   2.942   5.559 -0.8732  0.4323 -0.5517
  134OSM    C9F14590   1.135   3.113   5.469 -0.3736  0.1115 -0.3381
  134OSM    H9F14591   1.191   3.201   5.505 -0.0450 -0.6082  0.9581
  134OSM   C10F14592   1.138   3.069   5.346 -0.4234  0.0094 -0.3358
  134OSM   H10F14593   1.209   3.112   5.274 -1.4734 -0.2632 -1.5627
  134OSM   C11F14594   1.062   2.955   5.282 -0.6000 -0.4710  0.3859
  134OSM   H11F14595   0.955   2.947   5.311 -0.5636 -1.6425  0.2232
  134OSM   H11G14596   1.104   2.860   5.321  0.5973 -0.3819 -0.6516
  134OSM   C12F14597   1.066   2.956   5.131  0.2010  0.5419  0.1453
  134OSM   H12F14598   1.168   2.989   5.099  1.6261 -1.4394  2.4009
  134OSM   H12G14599   0.983   3.019   5.094  0.2835 -0.4366 -1.7498
  134OSM   C13F14600   1.057   2.811   5.063 -1.0308  0.0160  0.2538
  134OSM   H13F14601   0.961   2.763   5.093 -1.1510  0.3596  0.4310
  134OSM   H13G14602   1.134   2.745   5.107  1.4190  2.7515  0.2502
  134OSM   C14F14603   1.066   2.821   4.908 -0.8090  0.7281  0.8119
  134OSM   H14F14604   1.160   2.868   4.872  0.0709 -2.0086 -0.6196
  134OSM   H14G14605   0.980   2.884   4.878 -2.5159 -0.9615  2.0652
  134OSM   C15F14606   1.040   2.684   4.840 -0.6452  0.7793 -0.1055
  134OSM   H15F14607   0.930   2.665   4.839 -0.5427  0.0604 -2.7900
  134OSM   H15G14608   1.089   2.605   4.901 -3.0557 -0.3806  0.3945
  134OSM   C16F14609   1.089   2.685   4.697 -0.3133  0.2479  0.2881
  134OSM   H16F14610   1.195   2.720   4.691  0.0847 -0.8277  0.8119
  134OSM   H16G14611   1.034   2.749   4.625 -1.0927 -1.1140 -0.3418
  134OSM   C17F14612   1.089   2.538   4.642  0.5008  0.0253 -0.0440
  134OSM   H17F14613   1.161   2.488   4.710  1.5948  0.0641 -1.1495
  134OSM   H17G14614   1.127   2.535   4.538  0.2004 -1.8716 -0.1139
  134OSM   C18F14615   0.965   2.452   4.643 -0.0846 -0.4938  0.0515
  134OSM   H18F14616   0.884   2.511   4.594  1.6036  0.9372 -1.0634
  134OSM   H18G14617   0.935   2.431   4.748 -1.7340 -0.6450 -0.4342
  134OSM   H18H14618   0.972   2.356   4.589  1.6179  0.4201 -1.4024
  135OSM      N14619   2.875   2.552   6.401  0.6036 -1.1566  0.0082
  135OSM    C1514620   2.846   2.699   6.414  0.3047 -0.3721  0.3218
  135OSM   H15A14621   2.784   2.728   6.498  1.7000 -0.5517  1.4174
  135OSM   H15B14622   2.790   2.732   6.327 -0.6496 -1.4925  0.5046
  135OSM   H15C14623   2.935   2.759   6.401  0.3850 -0.8346 -1.4004
  135OSM    C1414624   2.978   2.532   6.300 -0.1761 -0.6572 -0.5440
  135OSM   H14A14625   2.948   2.563   6.201 -0.6305 -1.9170 -0.8163
  135OSM   H14B14626   3.011   2.429   6.296  0.4040 -0.4203 -1.9851
  135OSM   H14C14627   3.067   2.585   6.328 -0.8198 -0.1543  0.5826
  135OSM    C1314628   2.917   2.499   6.538 -0.2215 -0.1094 -0.3703
  135OSM   H13A14629   2.941   2.394   6.536  1.5463  0.2877 -1.1026
  135OSM   H13B14630   2.832   2.507   6.604  1.1673 -2.4996  1.8174
  135OSM   H13C14631   2.999   2.552   6.583  1.1581 -1.9484 -0.6544
  135OSM    C1214632   2.745   2.485   6.353 -0.5402 -0.1133 -0.2966
  135OSM   H12A14633   2.684   2.505   6.440  0.1821  1.3404 -0.1084
  135OSM   H12B14634   2.767   2.379   6.353  0.6968  0.0686  3.0053
  135OSM    C1114635   2.683   2.541   6.223 -0.1021 -0.4214  0.6926
  135OSM   H11A14636   2.612   2.470   6.175 -0.6328  0.4116  0.2239
  135OSM   H11B14637   2.762   2.557   6.147 -1.5458 -1.4881 -1.0790
  135OSM      P14638   2.474   2.663   6.301  0.1178  0.0379  0.1376
  135OSM    O1314639   2.451   2.550   6.392  1.2162  0.2665 -0.5095
  135OSM    O1414640   2.442   2.797   6.353  0.2155  0.0041  0.6647
  135OSM    O1114641   2.398   2.627   6.158 -0.2583  0.7086 -0.7468
  135OSM    O1214642   2.625   2.670   6.251 -0.4089 -0.5310 -0.3589
  135OSM    C1S14643   2.462   2.651   6.028  0.1531 -0.1652  0.4851
  135OSM    H1S14644   2.488   2.548   5.995 -0.3980 -0.7418  1.8338
  135OSM    H1T14645   2.551   2.718   6.025  0.9801 -1.2810  0.1814
  135OSM     NF14646   2.404   2.706   5.793  0.0306  0.3583  0.1869
  135OSM    HNF14647   2.427   2.793   5.751 -2.0184  0.3729 -0.9402
  135OSM    C2S14648   2.361   2.717   5.930  0.0280  0.1041 -0.6958
  135OSM    H2S14649   2.271   2.652   5.937  0.8750 -0.7623  2.9719
  135OSM    C3S14650   2.334   2.860   5.970 -0.5510  0.4855 -0.9050
  135OSM    H3S14651   2.426   2.922   5.982  0.8580 -1.8327  0.7026
  135OSM     O314652   2.257   2.874   6.091  0.7577 -0.1952 -0.4961
  135OSM    HO314653   2.237   2.784   6.118 -0.9717  0.4606  0.4910
  135OSM    C4S14654   2.258   2.937   5.868 -0.5784  0.0313 -0.7727
  135OSM    H4S14655   2.153   2.905   5.859 -0.0583 -1.7013 -0.9838
  135OSM    C5S14656   2.295   3.050   5.802 -0.9384 -0.2049 -0.0589
  135OSM    H5S14657   2.389   3.106   5.813 -0.8577 -0.2332 -0.5910
  135OSM    C6S14658   2.199   3.109   5.701 -0.7021  0.3674  0.1658
  135OSM    H6S14659   2.195   3.220   5.707 -2.1064  0.3238  0.3203
  135OSM    H6T14660   2.094   3.074   5.713 -0.5413 -0.6039 -1.1525
  135OSM    C7S14661   2.227   3.056   5.562 -0.0244 -0.0135 -0.5790
  135OSM    H7S14662   2.175   2.958   5.558  0.8479 -0.5097  0.1727
  135OSM    H7T14663   2.338   3.053   5.552 -0.0099 -0.0048 -0.4229
  135OSM    C8S14664   2.155   3.154   5.458 -0.4433  0.3773 -0.1047
  135OSM    H8S14665   2.208   3.251   5.456  2.4528 -1.1628 -0.8103
  135OSM    H8T14666   2.053   3.166   5.502  0.7624 -0.8461  3.2336
  135OSM    C9S14667   2.143   3.096   5.318 -0.2253 -0.0656 -0.1787
  135OSM    H9S14668   2.108   2.991   5.313 -2.7717  0.6517  1.5523
  135OSM    H9T14669   2.240   3.104   5.264 -0.3667  1.1039 -0.2711
  135OSM   C10S14670   2.044   3.191   5.238 -0.4127 -0.1103 -0.7806
  135OSM   H10S14671   2.079   3.296   5.252  2.1597 -0.9759 -0.5177
  135OSM   H10T14672   1.949   3.181   5.295 -1.3703 -1.1176 -2.5146
  135OSM   C11S14673   2.015   3.144   5.094 -0.0398  0.1495  0.3054
  135OSM   H11S14674   1.927   3.199   5.055 -1.7162 -1.7942  1.2199
  135OSM   H11T14675   1.984   3.037   5.084  0.1969  0.0252  0.8833
  135OSM   C12S14676   2.119   3.177   4.996 -0.1580 -0.2836 -0.7621
  135OSM   H12S14677   2.204   3.108   5.014 -1.0119 -0.8449  1.2048
  135OSM   H12T14678   2.148   3.281   5.020  0.1352 -0.5047 -0.1521
  135OSM   C13S14679   2.070   3.186   4.848 -0.1059 -0.6209  0.2238
  135OSM   H13S14680   2.164   3.177   4.789 -0.2828 -0.6274 -0.0612
  135OSM   H13T14681   2.014   3.280   4.831  0.1433 -0.2814  1.2990
  135OSM   C14S14682   1.979   3.074   4.802 -0.3677 -0.1364 -1.0546
  135OSM   H14S14683   1.889   3.085   4.866  2.0624 -1.0684  2.7241
  135OSM   H14T14684   2.021   2.975   4.833 -0.2453  0.1326 -0.3501
  135OSM   C15S14685   1.938   3.090   4.656  0.4572  0.1386  0.4352
  135OSM   H15S14686   2.022   3.118   4.589 -0.0731 -0.9189 -0.6905
  135OSM   H15T14687   1.875   3.182   4.654  1.4008  0.7696 -1.8841
  135OSM   C16S14688   1.867   2.968   4.594  0.6377  0.0680 -0.1727
  135OSM   H16S14689   1.943   2.889   4.577 -0.6099 -1.0371 -0.7536
  135OSM   H16T14690   1.822   2.990   4.495 -0.6019 -3.1401 -0.3831
  135OSM   C17S14691   1.754   2.901   4.670 -0.0997  0.2873  0.4564
  135OSM   H17S14692   1.672   2.969   4.703 -0.4966 -1.5928  3.5384
  135OSM   H17T14693   1.780   2.859   4.769  0.7852 -0.9212 -0.2689
  135OSM   C18S14694   1.699   2.782   4.589  0.3214  0.7524 -0.8309
  135OSM   H18S14695   1.618   2.733   4.647 -0.1300 -0.6609 -2.5792
  135OSM   H18T14696   1.778   2.706   4.574 -2.3393 -2.5491  1.3136
  135OSM   H18U14697   1.664   2.823   4.491  0.7015 -0.7275 -1.5999
  135OSM    C1F14698   2.431   2.593   5.727 -0.2336  0.9738 -0.1597
  135OSM     OF14699   2.427   2.491   5.789 -0.1570 -0.3648 -0.1855
  135OSM    C2F14700   2.460   2.599   5.575 -0.2342 -0.1888 -0.0188
  135OSM    H2F14701   2.565   2.623   5.546 -0.3710  0.5465  0.0721
  135OSM    H2G14702   2.408   2.681   5.521  0.9781  0.2649 -0.5359
  135OSM    C3F14703   2.434   2.466   5.506  0.3864  1.4449 -1.4250
  135OSM    H3F14704   2.332   2.427   5.527  1.2126  0.6467  1.2664
  135OSM    H3G14705   2.509   2.395   5.548 -1.1995  0.7647  0.3021
  135OSM    C4F14706   2.461   2.485   5.355 -0.9382  0.6344 -0.5434
  135OSM    H4F14707   2.415   2.573   5.306 -0.4096  1.5431  0.5593
  135OSM    H4G14708   2.570   2.497   5.338 -0.9172  0.6500 -0.3956
  135OSM    C5F14709   2.423   2.353   5.288  0.1824  0.1221 -0.1839
  135OSM    H5F14710   2.438   2.258   5.343  1.2465  0.5541  0.2817
  135OSM    H5G14711   2.475   2.341   5.191 -0.8001 -2.7781 -0.4080
  135OSM    C6F14712   2.275   2.362   5.247 -0.4297 -0.5589 -0.0796
  135OSM    H6F14713   2.257   2.448   5.179 -0.3632 -0.7996 -0.4018
  135OSM    H6G14714   2.211   2.389   5.334 -0.9255 -2.9122  0.3365
  135OSM    C7F14715   2.218   2.231   5.187  0.5041 -0.2801 -0.5386
  135OSM    H7F14716   2.112   2.252   5.165  0.5259  1.6053  0.9576
  135OSM    H7G14717   2.201   2.145   5.255  0.8592  0.4054  0.4475
  135OSM    C8F14718   2.295   2.178   5.058 -0.1129 -0.6422  0.2839
  135OSM    H8F14719   2.232   2.098   5.014  0.7338 -0.5660 -1.0878
  135OSM    H8G14720   2.385   2.128   5.100 -1.8532 -1.3245  3.3226
  135OSM    C9F14721   2.338   2.277   4.949  0.0821 -0.2429  0.1279
  135OSM    H9F14722   2.424   2.343   4.971 -0.4839  0.6070 -0.1551
  135OSM   C10F14723   2.287   2.289   4.824  0.1469  0.0135 -0.0754
  135OSM   H10F14724   2.323   2.371   4.760 -0.7483  1.4925  1.3088
  135OSM   C11F14725   2.180   2.207   4.744  0.1593  0.0335 -0.6220
  135OSM   H11F14726   2.126   2.271   4.671  0.8435  0.8311 -0.4353
  135OSM   H11G14727   2.112   2.155   4.815  0.1317  1.8436  0.7304
  135OSM   C12F14728   2.263   2.093   4.668 -0.0673  0.7094  0.4700
  135OSM   H12F14729   2.195   2.006   4.656 -0.6079  0.7951  2.6984
  135OSM   H12G14730   2.357   2.066   4.720  0.3324  0.3134 -0.4509
  135OSM   C13F14731   2.301   2.132   4.526  0.0119  0.2521  0.6794
  135OSM   H13F14732   2.368   2.221   4.524 -0.1473  0.3747 -2.9450
  135OSM   H13G14733   2.223   2.144   4.447  2.0231 -1.3401 -1.6445
  135OSM   C14F14734   2.395   2.026   4.473  0.3848 -0.1406 -0.1020
  135OSM   H14F14735   2.480   2.001   4.541  0.6295  1.7743  0.3056
  135OSM   H14G14736   2.433   2.058   4.373  1.8072 -0.4851  0.3064
  135OSM   C15F14737   2.316   1.891   4.447  0.0338  0.1124 -0.0416
  135OSM   H15F14738   2.238   1.894   4.368  1.1739  1.4762 -1.1349
  135OSM   H15G14739   2.257   1.854   4.534  1.2776 -0.0945  0.7270
  135OSM   C16F14740   2.420   1.780   4.423  0.2016  0.3993 -0.1119
  135OSM   H16F14741   2.493   1.774   4.507  3.2982  2.7865 -2.5275
  135OSM   H16G14742   2.482   1.809   4.336  0.7469  1.5144  0.6460
  135OSM   C17F14743   2.371   1.637   4.429  0.5595 -0.0761  0.1258
  135OSM   H17F14744   2.317   1.623   4.525 -0.0710 -1.2256 -0.3859
  135OSM   H17G14745   2.447   1.557   4.424 -0.1492 -0.7245 -0.3838
  135OSM   C18F14746   2.258   1.604   4.334 -0.3979 -0.0484 -0.0202
  135OSM   H18F14747   2.290   1.624   4.229  2.1528  0.2849  0.7979
  135OSM   H18G14748   2.172   1.673   4.349  0.6412  1.1591  0.4185
  135OSM   H18H14749   2.230   1.499   4.359  0.1093  0.2592  1.8895
  136OSM      N14750   6.548   4.024   6.522 -1.1456 -0.5498  0.1406
  136OSM    C1514751   6.459   3.947   6.609  0.6373  0.1743  0.0007
  136OSM   H15A14752   6.504   3.928   6.706 -0.5094  2.3381  0.9923
  136OSM   H15B14753   6.422   3.860   6.557  2.5559  0.0376 -1.1879
  136OSM   H15C14754   6.367   3.998   6.631 -1.3738 -3.5769  0.7853
  136OSM    C1414755   6.570   4.161   6.578  0.9526  0.6808  0.0358
  136OSM   H14A14756   6.614   4.149   6.676 -0.0377  1.5092  0.5861
  136OSM   H14B14757   6.477   4.206   6.608 -0.2997 -1.5266 -0.3843
  136OSM   H14C14758   6.625   4.227   6.514  2.0029 -1.8640 -1.7912
  136OSM    C1314759   6.686   3.956   6.510 -0.2782 -1.0399  0.0675
  136OSM   H13A14760   6.742   4.014   6.438  1.2605 -0.6858  1.5320
  136OSM   H13B14761   6.665   3.858   6.470 -1.0482 -0.2400 -1.5650
  136OSM   H13C14762   6.741   3.950   6.603  1.0558  1.4644 -0.5185
  136OSM    C1214763   6.492   4.043   6.379  0.1106 -0.8169  0.2536
  136OSM   H12A14764   6.569   4.079   6.313 -0.8049 -0.7327 -0.7671
  136OSM   H12B14765   6.413   4.117   6.387  0.5986 -0.3572  0.9285
  136OSM    C1114766   6.428   3.916   6.323  0.6190 -0.3073  0.6354
  136OSM   H11A14767   6.478   3.818   6.335  1.2492 -0.1520 -0.6301
  136OSM   H11B14768   6.434   3.916   6.212 -0.6092 -1.1814  0.5643
  136OSM      P14769   6.178   3.985   6.301 -0.2611  0.0702  0.1081
  136OSM    O1314770   6.061   3.903   6.338  0.1051 -0.6588  0.6924
  136OSM    O1414771   6.193   4.123   6.342 -0.1970  0.3080  0.5212
  136OSM    O1114772   6.204   3.982   6.146  0.4160  0.0200  0.0866
  136OSM    O1214773   6.294   3.909   6.369 -0.0491  0.1958  0.0576
  136OSM    C1S14774   6.263   4.084   6.067 -0.8024  0.2675 -0.0829
  136OSM    H1S14775   6.372   4.095   6.087  0.0890 -0.0207 -4.2783
  136OSM    H1T14776   6.204   4.177   6.082 -1.5162 -0.2099  0.1129
  136OSM     NF14777   6.325   4.179   5.839 -0.2990  0.2114  0.1775
  136OSM    HNF14778   6.272   4.263   5.825 -0.7574 -0.2370 -0.8141
  136OSM    C2S14779   6.260   4.070   5.911  0.7605 -0.1354 -0.4048
  136OSM    H2S14780   6.306   3.972   5.888 -1.0426 -0.8377 -1.1157
  136OSM    C3S14781   6.112   4.050   5.869 -0.0626  0.3634 -0.2172
  136OSM    H3S14782   6.045   4.138   5.882 -0.1833  0.1910  0.3658
  136OSM     O314783   6.049   3.942   5.938 -0.0447 -0.3060  0.1598
  136OSM    HO314784   6.085   3.950   6.026  2.2512  1.5764 -0.8878
  136OSM    C4S14785   6.109   4.030   5.719  0.0118 -0.4889 -0.3767
  136OSM    H4S14786   6.108   4.130   5.673 -1.2882 -1.2179 -1.9595
  136OSM    C5S14787   6.127   3.916   5.651 -0.6168  0.1880 -0.5996
  136OSM    H5S14788   6.143   3.828   5.715 -0.8673  2.0005  2.0783
  136OSM    C6S14789   6.117   3.893   5.497 -0.1716  0.1389  0.0614
  136OSM    H6S14790   6.124   3.991   5.446 -0.7202 -1.2273 -2.6975
  136OSM    H6T14791   6.023   3.847   5.460  1.6572 -1.0599 -3.3533
  136OSM    C7S14792   6.242   3.820   5.444  0.1843 -0.6714 -1.1533
  136OSM    H7S14793   6.257   3.722   5.493 -0.2828 -1.4516 -2.5411
  136OSM    H7T14794   6.331   3.884   5.463 -0.6788 -0.4920  2.7978
  136OSM    C8S14795   6.220   3.793   5.296 -0.0746 -0.1278 -0.4134
  136OSM    H8S14796   6.137   3.719   5.289 -0.0231 -0.2716  0.4754
  136OSM    H8T14797   6.306   3.736   5.254  1.6277  1.3429  1.0116
  136OSM    C9S14798   6.202   3.918   5.209  0.2857  0.2442  0.0893
  136OSM    H9S14799   6.281   3.987   5.248  0.2689  1.6486 -2.2976
  136OSM    H9T14800   6.104   3.966   5.230  0.2714  0.5451 -0.6589
  136OSM   C10S14801   6.222   3.890   5.063 -0.1578  0.1030  0.5992
  136OSM   H10S14802   6.331   3.885   5.046 -0.5012  0.4191 -1.7973
  136OSM   H10T14803   6.183   3.972   4.999  2.9495  0.7133 -0.5677
  136OSM   C11S14804   6.139   3.766   5.014 -1.2310  0.3992 -0.2743
  136OSM   H11S14805   6.039   3.770   5.060 -1.3258 -2.4727 -0.1362
  136OSM   H11T14806   6.189   3.673   5.046 -1.0348  1.1190  1.5365
  136OSM   C12S14807   6.117   3.762   4.860 -0.5121  0.0512  0.1184
  136OSM   H12S14808   6.063   3.856   4.835 -1.5960 -0.2074  1.4537
  136OSM   H12T14809   6.055   3.671   4.843  0.7338 -1.0804  1.4702
  136OSM   C13S14810   6.240   3.737   4.767 -0.1351 -0.4604 -0.0162
  136OSM   H13S14811   6.296   3.645   4.795  0.4156 -0.0022  0.4109
  136OSM   H13T14812   6.308   3.820   4.796 -0.9625  0.0585  0.4678
  136OSM   C14S14813   6.208   3.734   4.613 -0.1882 -0.3222  0.4423
  136OSM   H14S14814   6.150   3.640   4.598  2.1702 -1.8190  0.5047
  136OSM   H14T14815   6.306   3.733   4.560 -0.7988 -1.2526 -0.6787
  136OSM   C15S14816   6.104   3.838   4.561  0.0026  0.6327 -0.0076
  136OSM   H15S14817   6.124   3.944   4.588  2.0183  0.2275  0.1840
  136OSM   H15T14818   6.003   3.817   4.603  0.7568 -1.9921  0.6125
  136OSM   C16S14819   6.090   3.843   4.412  0.0892  0.2488  0.3487
  136OSM   H16S14820   6.020   3.763   4.377 -0.0815 -0.9119  3.1976
  136OSM   H16T14821   6.183   3.839   4.351 -1.6152  0.0031 -2.3192
  136OSM   C17S14822   6.025   3.981   4.372 -0.2760  0.2920 -0.2908
  136OSM   H17S14823   6.103   4.059   4.387 -1.6815  1.9325 -1.3090
  136OSM   H17T14824   5.943   4.005   4.443 -0.2919 -1.5240  0.3092
  136OSM   C18S14825   5.972   3.984   4.235 -0.3939  0.6254  0.0330
  136OSM   H18S14826   5.928   4.085   4.220 -0.7811  1.0568  3.7317
  136OSM   H18T14827   5.900   3.903   4.211  1.6936 -1.2443 -0.1395
  136OSM   H18U14828   6.047   3.956   4.158 -0.6171  1.0687 -0.3482
  136OSM    C1F14829   6.452   4.210   5.848  0.6394 -0.2251 -0.1713
  136OSM     OF14830   6.540   4.139   5.907  0.1424 -0.1572  0.0894
  136OSM    C2F14831   6.497   4.338   5.777  0.3913  0.7787  0.2910
  136OSM    H2F14832   6.564   4.392   5.846 -0.9803 -0.2345  2.4953
  136OSM    H2G14833   6.412   4.408   5.761 -0.2661 -0.4614 -1.8581
  136OSM    C3F14834   6.563   4.319   5.643 -0.3756  0.4856  0.7100
  136OSM    H3F14835   6.635   4.236   5.663 -2.1002 -1.1488  0.3057
  136OSM    H3G14836   6.629   4.406   5.623  1.2888 -1.1160 -1.1035
  136OSM    C4F14837   6.454   4.305   5.533 -0.3674 -0.9238  0.0717
  136OSM    H4F14838   6.362   4.365   5.545 -0.6118 -1.5454  1.3960
  136OSM    H4G14839   6.418   4.199   5.527 -0.5108 -0.7573 -2.2971
  136OSM    C5F14840   6.502   4.337   5.389 -0.0690  0.0334  0.2863
  136OSM    H5F14841   6.588   4.272   5.362 -0.9161  0.0349 -2.5180
  136OSM    H5G14842   6.531   4.444   5.390  0.1617 -0.0132 -1.1080
  136OSM    C6F14843   6.404   4.309   5.285 -0.0861  0.3052 -0.4523
  136OSM    H6F14844   6.323   4.380   5.311 -0.8264 -0.3614 -0.9396
  136OSM    H6G14845   6.361   4.207   5.290  1.5438 -0.4197 -0.7744
  136OSM    C7F14846   6.456   4.336   5.145 -0.2212  0.5089  0.6552
  136OSM    H7F14847   6.542   4.265   5.136 -0.0347  0.6129  1.5720
  136OSM    H7G14848   6.493   4.441   5.151  1.8733 -0.2902  2.5061
  136OSM    C8F14849   6.361   4.308   5.025 -0.0407  0.0506 -0.3535
  136OSM    H8F14850   6.318   4.205   5.029  1.1779 -0.4024  1.6937
  136OSM    H8G14851   6.423   4.308   4.934 -1.9408  0.7351 -1.6828
  136OSM    C9F14852   6.266   4.422   4.993 -0.0702 -0.6946  0.2910
  136OSM    H9F14853   6.269   4.493   5.077  1.0163 -1.0899  0.5921
  136OSM   C10F14854   6.197   4.438   4.879 -0.5417  0.4124 -0.9815
  136OSM   H10F14855   6.131   4.525   4.864 -0.8554  0.4877  0.7501
  136OSM   C11F14856   6.204   4.349   4.757 -0.1532  0.3132  0.1992
  136OSM   H11F14857   6.106   4.354   4.706  0.3996 -0.1815 -0.9341
  136OSM   H11G14858   6.222   4.240   4.771 -3.7265 -0.8277 -3.1313
  136OSM   C12F14859   6.322   4.382   4.667  0.4082  0.2444  0.4062
  136OSM   H12F14860   6.418   4.377   4.722  2.2296 -1.2796 -2.7553
  136OSM   H12G14861   6.296   4.477   4.616 -1.8337 -1.0096 -0.8856
  136OSM   C13F14862   6.322   4.285   4.541 -0.9666 -0.0050 -0.1308
  136OSM   H13F14863   6.231   4.289   4.477 -0.4623 -0.0542 -0.8472
  136OSM   H13G14864   6.327   4.182   4.583 -2.7484 -0.5722 -1.2431
  136OSM   C14F14865   6.434   4.323   4.446  0.4914 -0.3327  0.4253
  136OSM   H14F14866   6.529   4.321   4.504  0.7486 -1.5977 -0.0311
  136OSM   H14G14867   6.416   4.424   4.402 -0.0909 -1.0672 -1.0497
  136OSM   C15F14868   6.451   4.233   4.326  0.1338  0.0958  0.1753
  136OSM   H15F14869   6.351   4.191   4.300  0.1572 -0.1273  0.4449
  136OSM   H15G14870   6.512   4.150   4.368 -0.4073 -1.0806 -1.2960
  136OSM   C16F14871   6.510   4.292   4.203  1.1614  0.7047  0.3232
  136OSM   H16F14872   6.466   4.391   4.179 -0.2348 -0.2221 -1.1138
  136OSM   H16G14873   6.484   4.231   4.113 -2.7471 -2.7170  3.5117
  136OSM   C17F14874   6.659   4.302   4.210 -0.0369 -1.0006  0.2234
  136OSM   H17F14875   6.688   4.365   4.297 -1.5887 -0.2638  0.2316
  136OSM   H17G14876   6.687   4.356   4.117  0.6014 -0.5952  0.6497
  136OSM   C18F14877   6.737   4.175   4.226 -0.6145  0.2986 -0.5552
  136OSM   H18F14878   6.720   4.142   4.331  1.3375  0.1310 -0.2789
  136OSM   H18G14879   6.843   4.199   4.201 -0.3504 -1.0645 -0.7682
  136OSM   H18H14880   6.698   4.102   4.152 -1.6903  0.4946 -0.1942
  137OSM      N14881   2.603   1.352   6.193  0.7538  0.2422 -0.2287
  137OSM    C1514882   2.650   1.272   6.077 -0.1898  0.0361 -0.6678
  137OSM   H15A14883   2.603   1.175   6.080  3.6693 -1.8975  0.4835
  137OSM   H15B14884   2.756   1.266   6.100 -0.1444  1.0141 -0.6212
  137OSM   H15C14885   2.629   1.324   5.985  0.3732 -1.9014 -1.9380
  137OSM    C1414886   2.457   1.380   6.176 -0.4620  0.1125  0.1968
  137OSM   H14A14887   2.420   1.287   6.135 -0.2575 -0.3615  1.0518
  137OSM   H14B14888   2.437   1.465   6.112 -2.8846 -0.8813 -0.4228
  137OSM   H14C14889   2.405   1.405   6.268  0.4095  3.5509 -0.1844
  137OSM    C1314890   2.611   1.262   6.317  0.3118 -0.2171 -0.4517
  137OSM   H13A14891   2.715   1.247   6.342  0.1897 -0.1634  0.0919
  137OSM   H13B14892   2.581   1.162   6.290 -0.3459 -0.1529  0.0292
  137OSM   H13C14893   2.554   1.296   6.402 -1.4934  2.8297 -2.7495
  137OSM    C1214894   2.679   1.481   6.217  0.3693  0.9731  0.6298
  137OSM   H12A14895   2.639   1.555   6.150 -2.0674 -0.7017  0.1893
  137OSM   H12B14896   2.784   1.462   6.200  0.9468  0.3579  4.4156
  137OSM    C1114897   2.666   1.544   6.363  0.1967 -0.2009  0.2056
  137OSM   H11A14898   2.706   1.469   6.434  2.4754 -0.9383 -1.8170
  137OSM   H11B14899   2.561   1.558   6.396  0.1810 -0.7961  0.4246
  137OSM      P14900   2.684   1.791   6.448 -0.1927  0.1693  0.0325
  137OSM    O1314901   2.669   1.765   6.596 -0.3773 -0.1534  0.3611
  137OSM    O1414902   2.767   1.906   6.412  0.1619  0.1622  0.1452
  137OSM    O1114903   2.550   1.810   6.369  0.1167 -0.2581 -0.1556
  137OSM    O1214904   2.748   1.658   6.383 -0.1752 -0.8011 -0.4034
  137OSM    C1S14905   2.558   1.874   6.240 -0.2391 -0.8224 -0.1945
  137OSM    H1S14906   2.640   1.837   6.175  1.0039 -0.1545  0.9783
  137OSM    H1T14907   2.593   1.978   6.256 -0.9974 -0.7455  0.9993
  137OSM     NF14908   2.446   1.903   6.021 -0.0646 -0.0274  0.3212
  137OSM    HNF14909   2.433   2.000   5.998 -0.0648  0.0403  0.6119
  137OSM    C2S14910   2.423   1.871   6.159  0.3885 -0.0342  0.7898
  137OSM    H2S14911   2.381   1.768   6.168  0.6482 -0.4313 -2.0071
  137OSM    C3S14912   2.319   1.964   6.228 -0.4480  0.6697 -0.1727
  137OSM    H3S14913   2.349   2.069   6.208 -0.9655  0.8648  0.0705
  137OSM     O314914   2.323   1.953   6.373  0.6590  0.3035 -0.7444
  137OSM    HO314915   2.389   1.887   6.397 -1.2841 -2.2565 -2.1467
  137OSM    C4S14916   2.180   1.941   6.173 -0.4046  0.5290 -0.4347
  137OSM    H4S14917   2.178   1.937   6.063 -0.8637  1.4242 -0.4644
  137OSM    C5S14918   2.069   1.903   6.236  0.2597 -0.5295  0.7614
  137OSM    H5S14919   2.073   1.909   6.345  1.0549  0.0164  0.7100
  137OSM    C6S14920   1.932   1.880   6.177  0.6051 -0.7368  0.0393
  137OSM    H6S14921   1.871   1.968   6.204 -0.5670 -0.9892 -1.6705
  137OSM    H6T14922   1.887   1.786   6.215  1.1562 -0.8649  0.3679
  137OSM    C7S14923   1.921   1.876   6.027  0.0207 -0.6592 -0.3389
  137OSM    H7S14924   1.958   1.969   5.978  0.2524  0.0622  1.1680
  137OSM    H7T14925   1.816   1.867   5.991 -0.9680  1.4182  1.8733
  137OSM    C8S14926   1.985   1.747   5.964 -0.5616  0.6732 -0.4042
  137OSM    H8S14927   1.919   1.671   6.012 -1.1571  0.6264 -1.2900
  137OSM    H8T14928   2.086   1.734   6.010 -2.2944  0.7017  3.6503
  137OSM    C9S14929   2.005   1.749   5.811  0.1005  0.0163  0.2700
  137OSM    H9S14930   2.037   1.851   5.781 -1.0102  0.4847  0.6398
  137OSM    H9T14931   1.913   1.730   5.752  1.0475  1.1034 -1.5779
  137OSM   C10S14932   2.122   1.661   5.760  1.0011  0.2842  0.5207
  137OSM   H10S14933   2.098   1.554   5.777  0.9326  0.8522  4.5008
  137OSM   H10T14934   2.215   1.666   5.822  1.3276 -1.5586  0.1988
  137OSM   C11S14935   2.146   1.679   5.609  0.0582 -0.1470 -0.1425
  137OSM   H11S14936   2.147   1.789   5.592 -1.3758 -0.1426 -0.2906
  137OSM   H11T14937   2.062   1.646   5.544  0.8530  0.4951 -1.5174
  137OSM   C12S14938   2.279   1.611   5.569  0.4238  0.3639  0.1832
  137OSM   H12S14939   2.272   1.503   5.545  1.1017  0.3045  0.2235
  137OSM   H12T14940   2.337   1.624   5.663  1.3004 -0.3361 -0.2513
  137OSM   C13S14941   2.361   1.684   5.461 -0.3054 -0.3891 -0.0262
  137OSM   H13S14942   2.443   1.612   5.439  0.7238  0.2927  1.4847
  137OSM   H13T14943   2.422   1.770   5.494  0.5230 -2.1024  3.0759
  137OSM   C14S14944   2.271   1.707   5.332  0.0144  0.5531 -0.0674
  137OSM   H14S14945   2.211   1.797   5.356 -0.6576  0.2778 -0.7164
  137OSM   H14T14946   2.195   1.626   5.335 -0.5188  1.0667  0.4381
  137OSM   C15S14947   2.360   1.729   5.210  0.2907  0.3315 -0.5870
  137OSM   H15S14948   2.399   1.631   5.174 -0.8981 -0.2469 -0.3267
  137OSM   H15T14949   2.452   1.785   5.234  0.5519  0.7535 -2.4649
  137OSM   C16S14950   2.281   1.793   5.096 -0.1901  0.4135  0.5202
  137OSM   H16S14951   2.275   1.903   5.110  1.3131  0.7873 -1.4861
  137OSM   H16T14952   2.176   1.760   5.079  0.4459 -0.7842 -1.3111
  137OSM   C17S14953   2.364   1.749   4.975 -0.2294 -0.2165 -0.5728
  137OSM   H17S14954   2.382   1.640   4.978  0.5393 -0.0783  0.1004
  137OSM   H17T14955   2.457   1.808   4.993 -0.0821 -0.3303 -0.9625
  137OSM   C18S14956   2.293   1.775   4.846 -0.3248  0.3595  0.9275
  137OSM   H18S14957   2.196   1.723   4.852 -0.7113  0.9627  0.1281
  137OSM   H18T14958   2.346   1.729   4.760  0.1171  2.0600  0.2575
  137OSM   H18U14959   2.271   1.881   4.819 -0.2365  0.1109 -0.1528
  137OSM    C1F14960   2.505   1.820   5.935  0.0515 -0.3531  0.0725
  137OSM     OF14961   2.512   1.703   5.961 -0.2502 -0.0468  0.3615
  137OSM    C2F14962   2.561   1.880   5.813  0.1235 -0.1253 -0.8799
  137OSM    H2F14963   2.543   1.813   5.726  0.9508 -0.3033 -0.9169
  137OSM    H2G14964   2.672   1.878   5.818  0.1002 -0.0957 -0.2938
  137OSM    C3F14965   2.495   2.020   5.771  0.4603 -0.1693 -0.6377
  137OSM    H3F14966   2.567   2.053   5.693  1.5028 -2.8430 -0.8816
  137OSM    H3G14967   2.496   2.088   5.858  0.2350 -0.7318 -0.1921
  137OSM    C4F14968   2.355   2.014   5.701  0.4370 -0.5048 -0.4423
  137OSM    H4F14969   2.265   1.974   5.752  0.0204  1.4979  0.4572
  137OSM    H4G14970   2.367   1.955   5.608 -1.0666 -0.1480 -0.8708
  137OSM    C5F14971   2.302   2.152   5.660 -0.1997 -0.0584  1.1268
  137OSM    H5F14972   2.390   2.201   5.613 -0.3559 -2.5851 -1.9241
  137OSM    H5G14973   2.266   2.213   5.746 -1.7538  0.8439 -0.1179
  137OSM    C6F14974   2.193   2.140   5.557 -0.5098  0.3195  0.6470
  137OSM    H6F14975   2.217   2.054   5.491  1.4216  0.4266  1.1929
  137OSM    H6G14976   2.190   2.235   5.498  0.0754  0.5302  0.9546
  137OSM    C7F14977   2.053   2.120   5.614  0.9403  0.0020  0.5065
  137OSM    H7F14978   2.063   2.096   5.722  0.1953 -0.3030  0.5107
  137OSM    H7G14979   2.011   2.034   5.558 -0.8057  0.8548  0.4718
  137OSM    C8F14980   1.956   2.243   5.600 -0.6509 -0.1853 -0.5840
  137OSM    H8F14981   1.853   2.204   5.586 -0.4457 -0.5534 -1.1191
  137OSM    H8G14982   1.983   2.304   5.511 -0.6757 -0.9544 -1.1251
  137OSM    C9F14983   1.968   2.329   5.726  0.3611 -0.3695 -0.3006
  137OSM    H9F14984   1.919   2.296   5.819  1.5671  0.7313  0.7437
  137OSM   C10F14985   2.020   2.456   5.723  0.4862 -0.1611 -0.0224
  137OSM   H10F14986   2.020   2.502   5.823 -0.5697  0.1090 -0.1402
  137OSM   C11F14987   2.085   2.535   5.613  0.7934  0.7946  0.0865
  137OSM   H11F14988   2.097   2.473   5.522 -0.3631 -0.3535  0.6919
  137OSM   H11G14989   2.184   2.573   5.647  0.3442  1.8299  0.2614
  137OSM   C12F14990   1.999   2.663   5.577 -0.2373  0.0279 -0.2147
  137OSM   H12F14991   1.996   2.728   5.668 -2.1201 -3.5820  2.3901
  137OSM   H12G14992   1.898   2.625   5.555  0.7237 -1.6260 -1.8774
  137OSM   C13F14993   2.041   2.739   5.443  0.3561  1.0795 -0.0922
  137OSM   H13F14994   2.149   2.762   5.448  0.2683  1.7167 -0.9647
  137OSM   H13G14995   1.980   2.831   5.436 -1.3226  0.1354  1.6000
  137OSM   C14F14996   2.008   2.650   5.320 -0.3619  0.2416 -0.1455
  137OSM   H14F14997   1.899   2.658   5.301 -0.9857 -0.3673  2.8673
  137OSM   H14G14998   2.044   2.545   5.323  1.7567  0.9487  0.2844
  137OSM   C15F14999   2.069   2.712   5.188 -1.1046  0.4558  0.0243
  137OSM   H15F15000   2.180   2.711   5.193 -1.0553  0.5749 -0.9760
  137OSM   H15G15001   2.046   2.820   5.176  1.2226  0.9128 -0.6004
  137OSM   C16F15002   2.028   2.639   5.061  0.0813  0.0798 -0.2775
  137OSM   H16F15003   1.920   2.659   5.048  0.3282  2.0529  0.5272
  137OSM   H16G15004   2.036   2.529   5.072  0.2040  0.3392  2.4136
  137OSM   C17F15005   2.110   2.684   4.937 -0.7671  0.6059 -0.4462
  137OSM   H17F15006   2.219   2.667   4.950 -1.0719 -3.0655 -2.1696
  137OSM   H17G15007   2.084   2.792   4.936 -1.7470  0.4135  1.7173
  137OSM   C18F15008   2.081   2.613   4.809 -0.5506 -0.0256 -0.2582
  137OSM   H18F15009   2.147   2.644   4.725 -3.1611  0.2233 -2.2824
  137OSM   H18G15010   1.976   2.625   4.773 -0.8057  0.3540  0.6082
  137OSM   H18H15011   2.093   2.503   4.817 -1.0043 -0.1660 -1.3460
  138OSM      N15012   6.104   2.706   6.524  0.5858 -0.0739  0.0464
  138OSM    C1515013   6.110   2.554   6.547 -0.1235 -0.1262 -0.0598
  138OSM   H15A15014   6.154   2.523   6.454  0.6774  1.3327 -0.1846
  138OSM   H15B15015   6.010   2.514   6.554  0.1326 -0.5503  1.5506
  138OSM   H15C15016   6.180   2.510   6.617 -1.9121 -0.4434  1.5603
  138OSM    C1415017   6.025   2.765   6.640  0.1505  0.4885 -0.1318
  138OSM   H14A15018   6.069   2.734   6.733 -2.4752 -1.4132  0.5262
  138OSM   H14B15019   5.925   2.724   6.643  0.5016 -0.5451 -1.8079
  138OSM   H14C15020   6.036   2.872   6.635 -1.2120  0.6505  0.2021
  138OSM    C1315021   6.243   2.756   6.535 -0.0244  0.9898  0.6122
  138OSM   H13A15022   6.316   2.711   6.469 -0.7428 -0.9098  1.0679
  138OSM   H13B15023   6.276   2.733   6.635 -0.2185 -0.2003  0.4080
  138OSM   H13C15024   6.232   2.863   6.527 -2.5672  0.6459 -1.5122
  138OSM    C1215025   6.043   2.726   6.385  0.3954  0.5423  0.7401
  138OSM   H12A15026   6.012   2.829   6.377 -0.0758  0.3114 -0.4992
  138OSM   H12B15027   5.946   2.680   6.367 -0.4366  3.2071 -2.0972
  138OSM    C1115028   6.134   2.686   6.263  0.2947  0.4038 -1.1707
  138OSM   H11A15029   6.237   2.721   6.285  0.2204  0.1735 -0.4433
  138OSM   H11B15030   6.093   2.737   6.173 -1.2782 -0.6245 -1.0615
  138OSM      P15031   6.233   2.459   6.184 -0.3913  0.2258 -0.3985
  138OSM    O1315032   6.363   2.530   6.189 -0.4767  0.2603  0.3895
  138OSM    O1415033   6.229   2.321   6.231 -0.3431 -0.4610  0.1441
  138OSM    O1115034   6.176   2.479   6.035  0.6280  0.1021 -0.4051
  138OSM    O1215035   6.131   2.543   6.263 -0.0190 -0.3316 -0.3465
  138OSM    C1S15036   6.051   2.537   6.000  0.0721  0.0789 -0.5002
  138OSM    H1S15037   6.065   2.647   5.985  0.6560 -0.2572 -2.5973
  138OSM    H1T15038   5.978   2.520   6.082  0.4753  2.0818  0.2990
  138OSM     NF15039   5.912   2.541   5.775  0.2640  0.5265 -0.2331
  138OSM    HNF15040   5.820   2.503   5.779  0.5564 -0.0685  1.2074
  138OSM    C2S15041   6.008   2.473   5.865  0.6577 -0.3833 -0.2189
  138OSM    H2S15042   6.099   2.456   5.804  0.2557  0.8958 -1.1999
  138OSM    C3S15043   5.949   2.327   5.889 -0.7044  0.2265 -0.4929
  138OSM    H3S15044   5.853   2.337   5.944  0.0887  1.6273  0.6903
  138OSM     O315045   6.037   2.250   5.972  0.3682  0.2574  0.2666
  138OSM    HO315046   6.099   2.315   6.006  2.2081 -0.2078 -2.0377
  138OSM    C4S15047   5.936   2.240   5.765  0.4225  0.5679 -0.1640
  138OSM    H4S15048   6.018   2.253   5.693  0.4633  0.0817 -0.2030
  138OSM    C5S15049   5.829   2.168   5.737 -0.1071  0.4143  0.5159
  138OSM    H5S15050   5.744   2.162   5.807 -0.2695 -0.4727  0.2485
  138OSM    C6S15051   5.808   2.090   5.616 -0.2747  0.3465 -0.3195
  138OSM    H6S15052   5.711   2.129   5.579 -0.3041  1.8964  1.3124
  138OSM    H6T15053   5.778   1.987   5.644  0.7064  1.1023  3.8319
  138OSM    C7S15054   5.908   2.089   5.498  0.1477 -0.7171 -0.6877
  138OSM    H7S15055   6.007   2.060   5.539  0.5659 -0.9250 -1.8290
  138OSM    H7T15056   5.921   2.192   5.460 -2.6877  0.4663  1.2837
  138OSM    C8S15057   5.863   1.995   5.387  0.6396  0.1200 -0.0389
  138OSM    H8S15058   5.774   2.048   5.346  1.2277  2.8049  2.0570
  138OSM    H8T15059   5.830   1.899   5.433  0.7263  0.1368  0.0565
  138OSM    C9S15060   5.974   1.977   5.281 -0.0449  0.0054  0.3414
  138OSM    H9S15061   6.069   1.947   5.330  0.6169  2.1986  0.4113
  138OSM    H9T15062   5.992   2.070   5.224  0.1959 -0.6444 -0.6634
  138OSM   C10S15063   5.932   1.878   5.170 -0.1379  0.9213 -0.3452
  138OSM   H10S15064   5.828   1.899   5.138  0.6902 -0.5048 -4.3188
  138OSM   H10T15065   5.933   1.771   5.198 -0.5908  1.0078 -0.0058
  138OSM   C11S15066   6.023   1.886   5.043  0.8509 -0.6619  0.5879
  138OSM   H11S15067   6.131   1.885   5.071  1.7129  5.2413 -1.6141
  138OSM   H11T15068   5.997   1.980   4.989 -0.0417 -0.7979  0.7751
  138OSM   C12S15069   5.989   1.778   4.941  0.2440 -0.0951  0.1801
  138OSM   H12S15070   5.885   1.801   4.909  0.0069 -0.3830  0.7189
  138OSM   H12T15071   5.985   1.674   4.980  1.6419 -0.3467 -0.3326
  138OSM   C13S15072   6.085   1.765   4.824  0.2704 -0.2789  0.2841
  138OSM   H13S15073   6.191   1.758   4.856  1.5699 -0.9368 -3.8288
  138OSM   H13T15074   6.062   1.854   4.762  0.8339  1.4868  2.5581
  138OSM   C14S15075   6.048   1.643   4.742 -0.4156 -0.2975 -0.0325
  138OSM   H14S15076   5.940   1.657   4.719 -0.3125 -0.4491 -0.6170
  138OSM   H14T15077   6.060   1.550   4.802  2.9600 -0.6142 -1.0560
  138OSM   C15S15078   6.122   1.627   4.610 -0.4173  0.7904  0.3774
  138OSM   H15S15079   6.129   1.715   4.543  0.8222  0.1471 -0.3456
  138OSM   H15T15080   6.064   1.551   4.554  1.8236 -0.6454 -0.0466
  138OSM   C16S15081   6.265   1.579   4.631  0.3948  0.2981 -0.1281
  138OSM   H16S15082   6.265   1.497   4.706  0.9137  1.0426  0.6934
  138OSM   H16T15083   6.321   1.667   4.670 -0.9512  0.8691  0.5440
  138OSM   C17S15084   6.329   1.539   4.494  0.3530  0.6465  0.0182
  138OSM   H17S15085   6.314   1.622   4.421 -1.1144 -2.0868 -2.9326
  138OSM   H17T15086   6.267   1.456   4.454 -2.4209  2.3730  0.5590
  138OSM   C18S15087   6.473   1.500   4.489 -0.2687  0.3436 -0.8227
  138OSM   H18S15088   6.489   1.409   4.552 -1.7554  0.2329 -0.5785
  138OSM   H18T15089   6.550   1.575   4.516 -1.3517  0.8439  1.0293
  138OSM   H18U15090   6.508   1.469   4.389  0.7674  0.2163 -0.4220
  138OSM    C1F15091   5.931   2.647   5.710  0.3507  0.3493  0.3851
  138OSM     OF15092   6.041   2.700   5.716 -0.8414  0.1218 -0.1699
  138OSM    C2F15093   5.822   2.697   5.614  0.1639 -0.2771 -0.4095
  138OSM    H2F15094   5.866   2.783   5.558 -0.5454  0.8949  0.8301
  138OSM    H2G15095   5.725   2.711   5.666 -0.9508  1.3326 -2.8420
  138OSM    C3F15096   5.801   2.588   5.508  0.1548 -0.4226 -0.4865
  138OSM    H3F15097   5.758   2.491   5.541 -1.2138 -0.8500 -3.3385
  138OSM    H3G15098   5.890   2.554   5.451  1.3247  1.4635  0.2093
  138OSM    C4F15099   5.704   2.643   5.401  0.3989  0.0397 -0.2701
  138OSM    H4F15100   5.722   2.753   5.402  1.1498  0.0195 -3.8571
  138OSM    H4G15101   5.599   2.628   5.435 -0.6121  0.6750 -2.9988
  138OSM    C5F15102   5.719   2.585   5.258  0.1572  0.5725 -0.0256
  138OSM    H5F15103   5.809   2.632   5.213  0.2465 -0.1740 -0.6310
  138OSM    H5G15104   5.625   2.615   5.206 -0.2233  3.4079  2.1014
  138OSM    C6F15105   5.753   2.434   5.241  0.6759  0.5473 -0.5073
  138OSM    H6F15106   5.698   2.369   5.312  0.0874  2.9511  1.3165
  138OSM    H6G15107   5.860   2.413   5.257  0.3908 -0.8734 -0.4116
  138OSM    C7F15108   5.711   2.376   5.109  0.0300  0.2558  0.2415
  138OSM    H7F15109   5.763   2.433   5.029 -0.7359  0.3209 -0.2158
  138OSM    H7G15110   5.606   2.412   5.096 -0.1305 -0.1543  0.4045
  138OSM    C8F15111   5.726   2.224   5.092  0.5806 -0.1604  0.4117
  138OSM    H8F15112   5.779   2.180   5.179 -0.7765 -3.7691 -0.4892
  138OSM    H8G15113   5.782   2.207   4.997 -1.9559  0.4629 -1.2540
  138OSM    C9F15114   5.601   2.150   5.076 -0.1453  0.2014 -0.3055
  138OSM    H9F15115   5.554   2.132   5.174  0.6813 -1.8161 -0.2588
  138OSM   C10F15116   5.533   2.117   4.960 -0.4334 -0.3168 -0.7785
  138OSM   H10F15117   5.447   2.048   4.966  0.3416 -1.2357 -0.0109
  138OSM   C11F15118   5.584   2.152   4.822  0.0886  0.0899 -0.2288
  138OSM   H11F15119   5.618   2.257   4.817 -2.0791  0.9155  1.5993
  138OSM   H11G15120   5.496   2.145   4.753  0.1156  1.3512 -0.4055
  138OSM   C12F15121   5.689   2.051   4.763  0.1863  0.5519  0.0098
  138OSM   H12F15122   5.658   1.945   4.757 -1.6467  1.1725 -1.6784
  138OSM   H12G15123   5.784   2.046   4.821 -0.5887  0.0373  1.2509
  138OSM   C13F15124   5.735   2.097   4.622 -0.0725  0.7185  0.0542
  138OSM   H13F15125   5.786   2.196   4.634  1.1870  0.3344 -1.8501
  138OSM   H13G15126   5.645   2.110   4.558 -0.2052  0.0328  0.1032
  138OSM   C14F15127   5.819   1.987   4.563  0.5318  0.2013  0.5669
  138OSM   H14F15128   5.892   1.935   4.629 -0.5130 -0.8489  0.9204
  138OSM   H14G15129   5.875   2.034   4.480  1.7069  0.8384  1.6960
  138OSM   C15F15130   5.735   1.868   4.505  0.1462  0.0209  0.5662
  138OSM   H15F15131   5.657   1.920   4.445 -0.7501 -0.1114  1.6043
  138OSM   H15G15132   5.686   1.817   4.590 -2.0141 -0.3870 -0.8859
  138OSM   C16F15133   5.824   1.773   4.427  0.0386 -0.0360  0.1848
  138OSM   H16F15134   5.905   1.746   4.498 -0.7026 -0.8129  0.7453
  138OSM   H16G15135   5.859   1.818   4.332 -0.0588 -0.5324 -0.0936
  138OSM   C17F15136   5.738   1.649   4.380 -0.2773 -0.8304 -0.0500
  138OSM   H17F15137   5.658   1.685   4.312  0.0005 -1.1263 -0.5344
  138OSM   H17G15138   5.689   1.601   4.467  1.8200 -0.8108  1.1943
  138OSM   C18F15139   5.822   1.542   4.304 -0.3069  0.3872 -0.3267
  138OSM   H18F15140   5.914   1.526   4.364 -2.4962 -0.2681  2.9813
  138OSM   H18G15141   5.839   1.588   4.205  0.4481  2.2784  0.6518
  138OSM   H18H15142   5.765   1.449   4.284  0.1926 -0.5901  2.5714
  139OSM      N15143   5.932   5.382   6.121 -0.1543 -0.3615 -0.2201
  139OSM    C1515144   5.809   5.298   6.124 -0.1068  0.1791 -0.0755
  139OSM   H15A15145   5.760   5.312   6.219 -0.2340  0.8190 -0.2307
  139OSM   H15B15146   5.829   5.192   6.114 -1.2314  0.0358 -0.9202
  139OSM   H15C15147   5.745   5.336   6.046  1.5323  0.1752 -1.4678
  139OSM    C1415148   6.036   5.308   6.196  0.1213  0.3720 -0.0731
  139OSM   H14A15149   5.992   5.262   6.283  0.1566 -0.8033 -0.6724
  139OSM   H14B15150   6.120   5.373   6.217  1.2059 -0.9515 -0.2804
  139OSM   H14C15151   6.082   5.229   6.139  1.2034  2.6780 -2.4654
  139OSM    C1315152   5.967   5.402   5.982  0.3037  0.1288  0.3579
  139OSM   H13A15153   5.888   5.442   5.920  1.4764  1.3289 -0.3805
  139OSM   H13B15154   5.991   5.308   5.936 -1.0972  0.3838 -0.9338
  139OSM   H13C15155   6.052   5.466   5.964 -0.9565  0.9416 -3.1831
  139OSM    C1215156   5.906   5.511   6.190 -0.5709  0.1788 -0.8531
  139OSM   H12A15157   5.876   5.493   6.292  1.7148  0.4225 -0.1026
  139OSM   H12B15158   5.833   5.566   6.133  0.8558  1.4083 -1.5532
  139OSM    C1115159   6.013   5.621   6.179  0.0093 -0.3295  0.7347
  139OSM   H11A15160   5.962   5.697   6.242  0.6539  0.6228  0.1146
  139OSM   H11B15161   6.027   5.660   6.076 -0.3234 -0.8496  0.4887
  139OSM      P15162   6.267   5.659   6.198  0.1632 -0.2384  0.1476
  139OSM    O1315163   6.228   5.803   6.182  0.1581 -0.1575 -0.3816
  139OSM    O1415164   6.375   5.633   6.299 -0.5360 -0.4534 -0.1052
  139OSM    O1115165   6.311   5.607   6.055  0.2018 -0.3789  0.1592
  139OSM    O1215166   6.135   5.580   6.236 -0.6934  0.3659 -0.3902
  139OSM    C1S15167   6.360   5.706   5.957  0.5700  1.0699  0.2374
  139OSM    H1S15168   6.420   5.785   6.007 -2.5322  2.2512  2.2585
  139OSM    H1T15169   6.276   5.759   5.906  0.9309  1.6023  0.1953
  139OSM     NF15170   6.458   5.717   5.730 -0.1678 -0.5266  0.4267
  139OSM    HNF15171   6.404   5.703   5.648 -0.4988 -0.1041  0.5705
  139OSM    C2S15172   6.439   5.631   5.842 -0.1370  0.5171 -0.1418
  139OSM    H2S15173   6.536   5.600   5.886  1.1627  2.2433 -1.7146
  139OSM    C3S15174   6.368   5.497   5.801  0.1435  0.6941 -0.1741
  139OSM    H3S15175   6.261   5.515   5.778  0.2238  2.0028  0.4201
  139OSM     O315176   6.380   5.400   5.897  0.1581  0.2658  0.6121
  139OSM    HO315177   6.394   5.443   5.981 -3.7225 -1.7669  2.4218
  139OSM    C4S15178   6.435   5.438   5.682 -0.3296 -0.6887  0.1405
  139OSM    H4S15179   6.534   5.402   5.714 -0.3128  0.8342  1.8605
  139OSM    C5S15180   6.384   5.421   5.560 -0.6941 -0.1113  0.3562
  139OSM    H5S15181   6.283   5.462   5.544 -0.2920  0.1588 -1.5345
  139OSM    C6S15182   6.454   5.364   5.441 -0.0428  0.0551 -0.4513
  139OSM    H6S15183   6.512   5.280   5.483 -1.3602 -0.1871  0.9240
  139OSM    H6T15184   6.530   5.438   5.406  1.9050 -1.1845  1.0630
  139OSM    C7S15185   6.355   5.324   5.328  0.5260 -0.8071  0.4256
  139OSM    H7S15186   6.269   5.276   5.380 -0.1832  0.1482  0.1425
  139OSM    H7T15187   6.410   5.248   5.267  0.7527 -1.2612  1.1904
  139OSM    C8S15188   6.289   5.441   5.253 -0.2336 -0.2170 -0.6626
  139OSM    H8S15189   6.266   5.523   5.325 -0.7737 -1.5024  0.6639
  139OSM    H8T15190   6.187   5.419   5.214  0.3420  0.2728 -2.5001
  139OSM    C9S15191   6.371   5.499   5.139 -0.3663 -1.0226  0.4497
  139OSM    H9S15192   6.375   5.422   5.059  0.7933 -1.6167  1.0658
  139OSM    H9T15193   6.466   5.529   5.187 -1.3975 -0.0877  1.9684
  139OSM   C10S15194   6.290   5.620   5.075  0.0566  0.1721  0.1002
  139OSM   H10S15195   6.278   5.700   5.150  0.2454 -0.2233  0.5526
  139OSM   H10T15196   6.188   5.584   5.046  0.1783  1.1302 -1.5994
  139OSM   C11S15197   6.360   5.681   4.947  0.2686  0.0618  0.0397
  139OSM   H11S15198   6.394   5.597   4.882 -2.1710 -1.3970  0.5806
  139OSM   H11T15199   6.451   5.731   4.986  0.1039 -1.7274  2.8680
  139OSM   C12S15200   6.277   5.776   4.864  1.4041  0.4494  0.9157
  139OSM   H12S15201   6.184   5.730   4.824  2.1154 -0.9640  0.8487
  139OSM   H12T15202   6.338   5.802   4.775  1.4654  2.0293  1.4187
  139OSM   C13S15203   6.246   5.916   4.926  0.0200  0.5900 -0.5382
  139OSM   H13S15204   6.337   5.963   4.970 -0.6326  0.8753  0.5158
  139OSM   H13T15205   6.177   5.898   5.012 -0.2155 -0.0971 -0.8710
  139OSM   C14S15206   6.180   6.010   4.827  0.4212 -0.8654 -0.4674
  139OSM   H14S15207   6.227   6.004   4.727 -0.4940  0.5388 -0.9995
  139OSM   H14T15208   6.180   6.115   4.862  2.6420 -0.3828 -1.8239
  139OSM   C15S15209   6.027   5.973   4.808 -0.4329  0.1383 -0.3405
  139OSM   H15S15210   5.972   6.003   4.900  0.2824 -1.3433  0.5985
  139OSM   H15T15211   6.022   5.862   4.799 -0.5712  0.1703 -0.6569
  139OSM   C16S15212   5.961   6.047   4.696 -0.1177 -0.5016 -0.0418
  139OSM   H16S15213   5.856   6.011   4.700 -0.6329  0.3784 -3.6295
  139OSM   H16T15214   6.002   6.022   4.595  1.6395 -0.8636  0.7471
  139OSM   C17S15215   5.940   6.203   4.711 -0.1327 -0.1086  0.1931
  139OSM   H17S15216   6.038   6.253   4.697  0.4833 -1.6533 -1.1847
  139OSM   H17T15217   5.913   6.231   4.815 -1.0990 -0.2529 -0.0239
  139OSM   C18S15218   5.841   6.267   4.616  0.9117 -0.7565 -0.0374
  139OSM   H18S15219   5.770   6.192   4.575  2.1852 -2.3954  0.6706
  139OSM   H18T15220   5.899   6.298   4.526 -1.3178  0.0897 -1.2066
  139OSM   H18U15221   5.787   6.359   4.645  4.1356  0.9835  0.7262
  139OSM    C1F15222   6.528   5.827   5.736  0.1543  0.3943 -0.5769
  139OSM     OF15223   6.606   5.838   5.829  0.0395  0.2459  0.1303
  139OSM    C2F15224   6.517   5.920   5.617 -0.1264 -0.0725  0.2117
  139OSM    H2F15225   6.510   6.024   5.656  1.6057  1.0395 -2.3017
  139OSM    H2G15226   6.428   5.898   5.553  0.0745  0.2157 -0.1711
  139OSM    C3F15227   6.644   5.896   5.525 -0.1734  0.2698  0.5569
  139OSM    H3F15228   6.737   5.894   5.586 -0.0603  1.6597  0.4389
  139OSM    H3G15229   6.651   5.991   5.468 -2.1790  0.6252  0.8765
  139OSM    C4F15230   6.622   5.781   5.421 -0.4649  0.2328  0.2566
  139OSM    H4F15231   6.530   5.801   5.362  0.4800 -1.9214 -2.0620
  139OSM    H4G15232   6.614   5.682   5.470  1.3024  0.5760  1.2930
  139OSM    C5F15233   6.738   5.758   5.315  0.7724 -0.5824  0.2492
  139OSM    H5F15234   6.839   5.753   5.361  1.8080  0.1489 -1.9049
  139OSM    H5G15235   6.729   5.855   5.261 -1.2250 -1.7864 -1.6806
  139OSM    C6F15236   6.706   5.651   5.206 -0.8302 -0.5115  0.5409
  139OSM    H6F15237   6.615   5.671   5.146  0.0135 -0.5827 -0.7976
  139OSM    H6G15238   6.682   5.555   5.256  0.4261 -1.9377 -1.5126
  139OSM    C7F15239   6.809   5.632   5.098  0.4340  0.5352  0.8685
  139OSM    H7F15240   6.888   5.585   5.159 -0.2147  0.1365  1.4138
  139OSM    H7G15241   6.836   5.734   5.064  0.4368  0.3012  0.1778
  139OSM    C8F15242   6.762   5.547   4.976 -0.2291 -0.5713 -0.1155
  139OSM    H8F15243   6.844   5.551   4.902 -1.5106 -1.0510 -1.5798
  139OSM    H8G15244   6.673   5.592   4.926  0.4050  0.6296 -0.1719
  139OSM    C9F15245   6.725   5.403   5.015  0.3962  0.1191 -0.3577
  139OSM    H9F15246   6.757   5.371   5.115 -0.8765 -0.4305 -0.1117
  139OSM   C10F15247   6.659   5.314   4.939  0.3351 -0.3831  1.1234
  139OSM   H10F15248   6.624   5.221   4.986  0.2142 -1.0206 -0.2180
  139OSM   C11F15249   6.594   5.328   4.804 -0.9537  0.1993  0.3940
  139OSM   H11F15250   6.665   5.284   4.731 -0.6708  1.1636  0.0903
  139OSM   H11G15251   6.585   5.438   4.795  1.0096  0.5590  2.4497
  139OSM   C12F15252   6.453   5.266   4.788 -0.1051 -0.6004  1.0324
  139OSM   H12F15253   6.401   5.302   4.697  1.1366 -0.5173  0.3347
  139OSM   H12G15254   6.395   5.278   4.882  2.2788  2.5606  2.1911
  139OSM   C13F15255   6.454   5.117   4.781 -0.0400  0.0638 -0.3870
  139OSM   H13F15256   6.344   5.102   4.776  0.1796 -1.7697 -0.1723
  139OSM   H13G15257   6.499   5.062   4.867 -1.0514  0.1363  0.1960
  139OSM   C14F15258   6.509   5.060   4.654  0.2415  0.0271  0.1592
  139OSM   H14F15259   6.617   5.085   4.662 -0.0777  1.3269  0.6194
  139OSM   H14G15260   6.474   5.121   4.568  1.0369  1.9360  1.1700
  139OSM   C15F15261   6.479   4.909   4.632  0.1139  0.6071 -0.2055
  139OSM   H15F15262   6.369   4.895   4.624  0.1479 -2.1780  2.9894
  139OSM   H15G15263   6.511   4.843   4.715  2.3201 -2.8826 -3.6662
  139OSM   C16F15264   6.544   4.861   4.498  0.3262  0.1675  0.3382
  139OSM   H16F15265   6.655   4.858   4.508  0.2917  0.1496  0.7476
  139OSM   H16G15266   6.512   4.938   4.425 -0.3612  0.3649  0.8376
  139OSM   C17F15267   6.478   4.728   4.457 -0.4586  0.4082  0.2150
  139OSM   H17F15268   6.369   4.719   4.476 -0.0667  0.1345  2.3852
  139OSM   H17G15269   6.522   4.647   4.518 -3.1510 -1.7948 -0.6551
  139OSM   C18F15270   6.502   4.694   4.311 -0.6150 -0.1315  0.9280
  139OSM   H18F15271   6.612   4.679   4.308 -0.5175  0.7262 -3.3895
  139OSM   H18G15272   6.465   4.775   4.244 -3.3277 -2.0611  0.0176
  139OSM   H18H15273   6.447   4.601   4.284  0.7179 -0.2111 -1.7023
  140OSM      N15274   1.444   1.703   6.303  0.3464  0.3605  0.1298
  140OSM    C1515275   1.394   1.707   6.159  0.0930  0.2112  0.5837
  140OSM   H15A15276   1.286   1.702   6.155  0.0068  2.4364 -1.3374
  140OSM   H15B15277   1.436   1.626   6.102 -1.7655 -0.9417  0.8135
  140OSM   H15C15278   1.435   1.798   6.118 -1.0244  0.5336  0.1572
  140OSM    C1415279   1.370   1.801   6.385  0.2170  0.3305 -0.3094
  140OSM   H14A15280   1.365   1.905   6.358  0.6289  0.8008  1.3639
  140OSM   H14B15281   1.412   1.803   6.485 -0.7674  0.5770  0.0997
  140OSM   H14C15282   1.267   1.771   6.397  0.6000 -0.3085  1.5706
  140OSM    C1315283   1.426   1.568   6.358 -0.4336  0.1734 -0.5123
  140OSM   H13A15284   1.337   1.521   6.321  0.3273 -1.4970 -0.2672
  140OSM   H13B15285   1.446   1.560   6.464 -0.3723  1.8300 -0.3825
  140OSM   H13C15286   1.494   1.498   6.312 -1.7845 -0.6166 -1.3365
  140OSM    C1215287   1.592   1.741   6.297  0.8477  0.1353 -0.5764
  140OSM   H12A15288   1.606   1.847   6.283  2.0373  0.1256  0.4846
  140OSM   H12B15289   1.634   1.680   6.219  2.1802  0.3215 -0.0069
  140OSM    C1115290   1.673   1.704   6.418  0.1708 -0.2386  0.4844
  140OSM   H11A15291   1.629   1.751   6.509  0.0300  1.3184 -0.3731
  140OSM   H11B15292   1.771   1.757   6.419  0.6086 -1.0022 -0.8044
  140OSM      P15293   1.839   1.503   6.389  0.1534  0.0348 -0.1918
  140OSM    O1315294   1.952   1.586   6.444  0.3169  0.8303  0.0147
  140OSM    O1415295   1.835   1.361   6.434  0.1615  0.3084  0.3438
  140OSM    O1115296   1.833   1.509   6.229 -0.5395  0.0344 -0.5128
  140OSM    O1215297   1.705   1.566   6.428 -0.0300  0.0014 -0.2719
  140OSM    C1S15298   1.719   1.442   6.158  0.6199 -0.1081 -0.3030
  140OSM    H1S15299   1.631   1.508   6.167 -0.2120 -0.9838 -1.8708
  140OSM    H1T15300   1.692   1.348   6.211 -0.3556  1.4064  1.9431
  140OSM     NF15301   1.631   1.371   5.941 -0.4699  0.2799  0.5951
  140OSM    HNF15302   1.623   1.274   5.921 -0.1955  0.6176 -1.2570
  140OSM    C2S15303   1.756   1.413   6.005 -0.5217  0.4636 -0.2578
  140OSM    H2S15304   1.792   1.509   5.964 -0.6001  1.2440  1.4669
  140OSM    C3S15305   1.869   1.311   5.997 -0.2852 -0.0254  0.1464
  140OSM    H3S15306   1.827   1.211   6.024 -1.3261  0.3283 -0.1608
  140OSM     O315307   1.973   1.343   6.081 -0.2661  0.1734  0.2430
  140OSM    HO315308   1.925   1.407   6.133  0.6216  2.7684 -1.9772
  140OSM    C4S15309   1.906   1.297   5.848 -0.2891 -0.7023 -0.2592
  140OSM    H4S15310   1.961   1.384   5.809 -0.1391 -1.6063 -2.1053
  140OSM    C5S15311   1.883   1.190   5.778 -0.7611 -0.0656 -0.6089
  140OSM    H5S15312   1.869   1.099   5.839  4.1840  0.6604  1.8736
  140OSM    C6S15313   1.909   1.158   5.640  0.3969  0.2527  0.1896
  140OSM    H6S15314   1.820   1.116   5.588 -1.7506  2.6160  1.8215
  140OSM    H6T15315   1.998   1.091   5.636 -0.8563 -1.3624 -1.7484
  140OSM    C7S15316   1.922   1.284   5.556 -0.5897  0.0514 -0.4304
  140OSM    H7S15317   2.017   1.330   5.591  0.7110 -2.7993 -0.0916
  140OSM    H7T15318   1.835   1.353   5.559 -1.4513 -1.0716  0.6896
  140OSM    C8S15319   1.938   1.237   5.404 -0.0611  0.1606 -0.3797
  140OSM    H8S15320   1.839   1.195   5.375 -0.6970  0.7844  0.8320
  140OSM    H8T15321   2.016   1.159   5.395 -0.0859  0.2317 -1.2178
  140OSM    C9S15322   1.983   1.356   5.319 -0.3072 -0.2401 -0.5682
  140OSM    H9S15323   2.087   1.388   5.340  0.7080 -1.8238 -2.9682
  140OSM    H9T15324   1.907   1.435   5.337 -1.8018 -1.4737 -1.3764
  140OSM   C10S15325   1.984   1.325   5.165  0.4977  0.3155 -0.1083
  140OSM   H10S15326   1.879   1.298   5.141  0.2520  0.6469  0.5938
  140OSM   H10T15327   2.057   1.245   5.139  1.5481  1.2085  0.0633
  140OSM   C11S15328   2.027   1.437   5.080 -0.1955  0.3162  0.2276
  140OSM   H11S15329   2.125   1.478   5.115 -0.2834 -0.4398  1.3980
  140OSM   H11T15330   1.954   1.518   5.103  1.0485  1.6782 -0.5070
  140OSM   C12S15331   2.020   1.406   4.934 -0.5907 -0.9805  0.2438
  140OSM   H12S15332   2.103   1.341   4.899 -1.9464 -2.1176 -0.9478
  140OSM   H12T15333   2.047   1.500   4.881 -2.8992 -0.4248 -0.0108
  140OSM   C13S15334   1.886   1.351   4.874 -0.3982 -0.2654 -0.1955
  140OSM   H13S15335   1.795   1.403   4.909  0.2815  1.3702 -0.8025
  140OSM   H13T15336   1.872   1.245   4.905 -2.5812 -0.2785 -1.1532
  140OSM   C14S15337   1.895   1.358   4.725  0.7069 -0.1093  0.0707
  140OSM   H14S15338   1.994   1.325   4.688 -0.5918 -1.0864 -2.6163
  140OSM   H14T15339   1.875   1.462   4.690  3.9227 -0.2825 -2.4247
  140OSM   C15S15340   1.793   1.270   4.660 -0.5160  1.1669 -0.1128
  140OSM   H15S15341   1.702   1.326   4.629 -0.7965  1.5548  1.3732
  140OSM   H15T15342   1.754   1.198   4.737 -0.8788 -0.4203 -1.7420
  140OSM   C16S15343   1.848   1.191   4.541 -0.1344 -0.5784  0.5166
  140OSM   H16S15344   1.760   1.128   4.515 -1.0224  0.0414  1.9339
  140OSM   H16T15345   1.937   1.130   4.564  0.0535 -0.6683 -0.4260
  140OSM   C17S15346   1.873   1.292   4.422  0.1234 -0.2225 -0.2514
  140OSM   H17S15347   1.944   1.370   4.456 -1.3918  0.0457  2.4836
  140OSM   H17T15348   1.779   1.343   4.393 -0.1112 -0.1736  0.5705
  140OSM   C18S15349   1.926   1.228   4.289  0.1021 -0.7762 -0.0378
  140OSM   H18S15350   1.936   1.303   4.208 -0.2612 -1.5369 -0.8026
  140OSM   H18T15351   1.841   1.163   4.258  1.0325 -1.4560 -1.1599
  140OSM   H18U15352   2.023   1.177   4.303  0.0060 -0.1065  3.5301
  140OSM    C1F15353   1.534   1.466   5.918  0.1547 -0.3980  0.7100
  140OSM     OF15354   1.551   1.585   5.939  0.9551 -0.0066 -0.0530
  140OSM    C2F15355   1.397   1.414   5.866  1.0706  0.6970  0.2580
  140OSM    H2F15356   1.352   1.488   5.796 -0.0165 -0.8642 -0.7345
  140OSM    H2G15357   1.332   1.415   5.956  0.0991  1.4373 -0.4283
  140OSM    C3F15358   1.390   1.281   5.804  0.2203  0.0944 -0.5090
  140OSM    H3F15359   1.289   1.267   5.760 -0.6099  1.9040  0.7584
  140OSM    H3G15360   1.418   1.193   5.867  1.6173  1.2396  0.4920
  140OSM    C4F15361   1.493   1.261   5.682  0.0255  0.0257  0.5360
  140OSM    H4F15362   1.459   1.180   5.613  0.7595  0.6152 -0.5334
  140OSM    H4G15363   1.595   1.230   5.714  0.6569  0.6085 -0.8820
  140OSM    C5F15364   1.518   1.380   5.600 -0.0004 -0.0428  0.4314
  140OSM    H5F15365   1.604   1.430   5.650  1.4846 -1.1165 -0.9621
  140OSM    H5G15366   1.430   1.448   5.597 -1.1059 -1.4572  0.2853
  140OSM    C6F15367   1.556   1.335   5.463 -0.1277 -0.2817  0.2492
  140OSM    H6F15368   1.472   1.297   5.401 -1.3511 -2.7658  3.3145
  140OSM    H6G15369   1.626   1.249   5.471 -0.0783 -0.0190  2.9780
  140OSM    C7F15370   1.630   1.452   5.387  0.7700 -0.2355  0.3632
  140OSM    H7F15371   1.687   1.400   5.307  2.6742  2.1030  0.1628
  140OSM    H7G15372   1.709   1.503   5.447 -0.1742 -0.5688  1.9128
  140OSM    C8F15373   1.540   1.558   5.323 -0.5673  0.0814 -0.1683
  140OSM    H8F15374   1.603   1.626   5.262 -0.6164 -0.9013 -1.3147
  140OSM    H8G15375   1.497   1.615   5.409  0.0932 -0.9020  0.8340
  140OSM    C9F15376   1.425   1.502   5.248 -0.3258 -0.2369 -0.4656
  140OSM    H9F15377   1.355   1.440   5.305  0.1618  0.2970  0.7361
  140OSM   C10F15378   1.397   1.521   5.120 -0.3235  0.2616 -0.1386
  140OSM   H10F15379   1.307   1.470   5.082 -0.0532 -0.3471  0.0191
  140OSM   C11F15380   1.470   1.601   5.016 -0.4117  1.3499  0.4557
  140OSM   H11F15381   1.538   1.540   4.953 -0.5541  0.9290  0.7029
  140OSM   H11G15382   1.526   1.682   5.067  0.0698  0.5261  1.2575
  140OSM   C12F15383   1.385   1.669   4.909 -0.1419 -0.7617 -0.6360
  140OSM   H12F15384   1.453   1.740   4.856  0.6430 -1.2935 -0.3469
  140OSM   H12G15385   1.298   1.723   4.951  0.2416 -0.2867 -0.4439
  140OSM   C13F15386   1.328   1.574   4.805 -0.2424  0.3338  0.1666
  140OSM   H13F15387   1.305   1.478   4.856 -1.3395 -0.1179 -1.1432
  140OSM   H13G15388   1.411   1.549   4.735 -0.0228 -0.6014  0.7481
  140OSM   C14F15389   1.196   1.624   4.742  0.0343  0.4117  0.2446
  140OSM   H14F15390   1.225   1.714   4.683  0.7046  0.2387  0.3024
  140OSM   H14G15391   1.125   1.658   4.820 -1.0075  1.8158 -1.2692
  140OSM   C15F15392   1.138   1.522   4.646  0.2659  0.4252  0.6222
  140OSM   H15F15393   1.101   1.428   4.693  1.6275  0.1996  1.2526
  140OSM   H15G15394   1.216   1.497   4.571 -0.7096  1.4911 -0.7869
  140OSM   C16F15395   1.010   1.568   4.575  0.4858  0.0170 -0.1490
  140OSM   H16F15396   0.979   1.494   4.499 -0.3293  0.1312  0.0697
  140OSM   H16G15397   1.029   1.667   4.528  0.0707  0.9347  1.5658
  140OSM   C17F15398   0.897   1.575   4.678  0.1918 -0.1192  0.1437
  140OSM   H17F15399   0.919   1.642   4.764  1.3695  0.4508 -0.5872
  140OSM   H17G15400   0.902   1.479   4.734 -0.2594  0.8044  1.8143
  140OSM   C18F15401   0.754   1.601   4.625  0.6260 -0.2675  0.0537
  140OSM   H18F15402   0.764   1.695   4.566  0.8164 -1.8308 -2.4920
  140OSM   H18G15403   0.681   1.613   4.708 -1.7222 -0.5220 -1.9240
  140OSM   H18H15404   0.730   1.508   4.569  0.4683 -0.2141  0.0340
  141OSM      N15405   0.421   3.934   6.211 -0.2408  0.2288  0.1779
  141OSM    C1515406   0.424   4.032   6.324  0.2748 -0.3623 -0.5426
  141OSM   H15A15407   0.509   4.097   6.310  2.6406 -2.3440  3.5949
  141OSM   H15B15408   0.422   3.994   6.425 -2.2704  2.9069  0.7423
  141OSM   H15C15409   0.333   4.090   6.316  0.4963  0.2880  1.4728
  141OSM    C1415410   0.400   4.001   6.084  0.3343  0.3585 -1.2487
  141OSM   H14A15411   0.309   4.059   6.084  1.4164  2.1546  1.7444
  141OSM   H14B15412   0.401   3.917   6.015  3.7262 -0.4625 -0.2630
  141OSM   H14C15413   0.487   4.063   6.070  0.4451  0.0068 -2.1978
  141OSM    C1315414   0.551   3.857   6.202  0.4025 -0.0892  0.4112
  141OSM   H13A15415   0.564   3.784   6.280 -0.6206  1.5561  2.1813
  141OSM   H13B15416   0.635   3.925   6.207  1.9123 -1.8365 -0.6642
  141OSM   H13C15417   0.557   3.806   6.107  1.5969 -1.0027  0.9738
  141OSM    C1215418   0.310   3.835   6.231 -0.1567 -0.9218 -0.1510
  141OSM   H12A15419   0.297   3.780   6.138  0.0743 -0.9111 -0.1884
  141OSM   H12B15420   0.215   3.887   6.238  0.4476  0.0408  1.0015
  141OSM    C1115421   0.312   3.730   6.351 -0.4671  0.3333  0.0030
  141OSM   H11A15422   0.214   3.678   6.359 -0.4719  0.2821 -0.3694
  141OSM   H11B15423   0.327   3.795   6.440 -3.4294  1.3234 -0.1762
  141OSM      P15424   0.396   3.507   6.251 -0.0171  0.6823 -0.4776
  141OSM    O1315425   0.529   3.442   6.234  0.2239 -0.0143 -0.2874
  141OSM    O1415426   0.284   3.435   6.319 -0.0481  0.4142 -0.2398
  141OSM    O1115427   0.358   3.559   6.105 -0.1512  0.1070 -0.1839
  141OSM    O1215428   0.424   3.641   6.335 -0.0183  0.6026 -0.6869
  141OSM    C1S15429   0.335   3.467   5.996 -0.1062 -0.2664  0.0149
  141OSM    H1S15430   0.240   3.414   6.018 -0.6222  0.7973  0.4006
  141OSM    H1T15431   0.412   3.390   5.978 -1.0454 -0.7823 -1.9652
  141OSM     NF15432   0.269   3.457   5.753  0.5910 -0.4690 -0.9822
  141OSM    HNF15433   0.340   3.433   5.687  2.2761 -0.2210  0.6862
  141OSM    C2S15434   0.319   3.546   5.865  0.4876 -0.7732  0.2252
  141OSM    H2S15435   0.248   3.629   5.888  3.1881  0.9564  2.7329
  141OSM    C3S15436   0.450   3.622   5.826 -0.1235  0.3620  0.9781
  141OSM    H3S15437   0.539   3.557   5.817 -0.4465  0.2731 -2.7127
  141OSM     O315438   0.493   3.712   5.927 -0.0397  0.0687 -0.8568
  141OSM    HO315439   0.450   3.694   6.011  0.3763  1.6362 -0.2889
  141OSM    C4S15440   0.415   3.705   5.705 -0.6079  0.1399  0.6083
  141OSM    H4S15441   0.336   3.781   5.714  1.7347  2.6821  0.2710
  141OSM    C5S15442   0.486   3.693   5.591 -0.7534 -0.6588 -0.1914
  141OSM    H5S15443   0.558   3.610   5.586  0.7813  0.4347  2.3743
  141OSM    C6S15444   0.455   3.774   5.469  0.0613 -0.5103 -0.5913
  141OSM    H6S15445   0.542   3.833   5.432 -0.5990  2.2594  2.0311
  141OSM    H6T15446   0.372   3.847   5.482  1.1218  0.6933 -0.4663
  141OSM    C7S15447   0.404   3.696   5.351  0.8087 -0.1723 -0.4464
  141OSM    H7S15448   0.386   3.768   5.268 -1.5771 -0.7925 -0.4846
  141OSM    H7T15449   0.300   3.658   5.361  0.2475  2.0691  2.9537
  141OSM    C8S15450   0.502   3.597   5.297 -0.1651  1.2675  0.0137
  141OSM    H8S15451   0.526   3.522   5.375 -0.7707  0.2356 -0.7793
  141OSM    H8T15452   0.598   3.645   5.268  0.0995 -0.0969 -1.4322
  141OSM    C9S15453   0.459   3.529   5.161  0.2062  0.5459 -0.0025
  141OSM    H9S15454   0.545   3.513   5.092  0.1898 -1.3110  0.3930
  141OSM    H9T15455   0.389   3.606   5.123  0.0434  0.6377  0.4951
  141OSM   C10S15456   0.391   3.393   5.190 -0.4213 -0.3900 -0.0996
  141OSM   H10S15457   0.297   3.405   5.249  0.0051 -0.9641  0.7022
  141OSM   H10T15458   0.460   3.330   5.250 -0.5963  0.6858  1.2587
  141OSM   C11S15459   0.370   3.316   5.056 -0.0374 -0.2252 -0.2850
  141OSM   H11S15460   0.465   3.305   5.000 -0.6217 -1.2634 -1.0760
  141OSM   H11T15461   0.309   3.381   4.991  2.1600  1.2580 -0.9234
  141OSM   C12S15462   0.292   3.194   5.083  0.5187  0.3952  0.8128
  141OSM   H12S15463   0.192   3.229   5.118 -0.2184 -1.3751  0.5103
  141OSM   H12T15464   0.349   3.135   5.158  1.4081 -0.1930 -0.3238
  141OSM   C13S15465   0.263   3.110   4.957 -0.0050  0.5327 -0.8321
  141OSM   H13S15466   0.191   3.035   4.995  1.5015  0.4718  2.0076
  141OSM   H13T15467   0.351   3.058   4.912 -0.6934 -2.4055  1.1034
  141OSM   C14S15468   0.193   3.185   4.845 -0.4517 -0.1719  0.2123
  141OSM   H14S15469   0.262   3.266   4.813  1.8346 -1.6407  1.2989
  141OSM   H14T15470   0.096   3.229   4.880 -0.5511  0.4120 -0.7761
  141OSM   C15S15471   0.164   3.089   4.731  0.9517 -0.2427  1.0304
  141OSM   H15S15472   0.090   3.015   4.767  0.2057  0.2866  0.5861
  141OSM   H15T15473   0.253   3.038   4.689  1.1243  0.7594  0.1350
  141OSM   C16S15474   0.083   3.154   4.622  0.1793  0.1444  0.1596
  141OSM   H16S15475   0.129   3.246   4.579  0.7856  0.6152  1.7522
  141OSM   H16T15476  -0.011   3.197   4.663 -0.3635 -1.7312  0.9068
  141OSM   C17S15477   0.064   3.054   4.508 -0.0088  0.6383 -0.2689
  141OSM   H17S15478   0.022   2.964   4.559  0.2465  0.4135 -0.4531
  141OSM   H17T15479   0.160   3.026   4.459 -2.0213 -2.4339 -2.6752
  141OSM   C18S15480  -0.029   3.111   4.403 -0.5231  0.6593 -0.1961
  141OSM   H18S15481  -0.012   3.047   4.313 -1.8547  2.4277 -1.7527
  141OSM   H18T15482  -0.002   3.217   4.383  1.2629  0.0483 -1.2083
  141OSM   H18U15483  -0.134   3.103   4.438 -0.0520 -2.0769  0.6892
  141OSM    C1F15484   0.146   3.402   5.756  0.4744 -0.5749 -0.6250
  141OSM     OF15485   0.051   3.457   5.814 -0.5921  0.2436 -0.1132
  141OSM    C2F15486   0.123   3.280   5.669 -0.4947 -0.2149  0.5137
  141OSM    H2F15487   0.205   3.206   5.661 -0.7515 -0.4452 -0.0213
  141OSM    H2G15488   0.127   3.324   5.566  0.0673  0.2707  0.7415
  141OSM    C3F15489  -0.011   3.207   5.690  0.7899 -0.0747 -0.1425
  141OSM    H3F15490  -0.086   3.284   5.665  0.8664  0.2809  0.7281
  141OSM    H3G15491  -0.027   3.183   5.797  1.3154 -1.4125 -0.3524
  141OSM    C4F15492  -0.026   3.084   5.599 -0.9031  0.3590 -0.3293
  141OSM    H4F15493  -0.121   3.032   5.626 -0.7233 -1.0599 -2.3266
  141OSM    H4G15494   0.056   3.012   5.623 -1.5348 -0.4264 -0.4879
  141OSM    C5F15495  -0.024   3.120   5.452 -0.0024 -0.0972 -0.1967
  141OSM    H5F15496   0.075   3.130   5.404  0.0145 -2.3821 -0.6811
  141OSM    H5G15497  -0.077   3.218   5.446  0.1113  0.0772  1.4934
  141OSM    C6F15498  -0.090   3.005   5.357 -0.4144 -1.0141  0.8850
  141OSM    H6F15499  -0.201   3.013   5.358 -0.4508 -1.3747  3.3017
  141OSM    H6G15500  -0.064   2.903   5.393  0.1020 -0.7051  1.4010
  141OSM    C7F15501  -0.043   3.027   5.214 -1.4247  0.0487  0.4927
  141OSM    H7F15502   0.068   3.019   5.204 -0.9768  0.0040  4.5598
  141OSM    H7G15503  -0.063   3.132   5.184 -1.3029  0.7512  2.7479
  141OSM    C8F15504  -0.102   2.938   5.113  0.3407  0.1532  0.0775
  141OSM    H8F15505  -0.076   2.831   5.128  2.5701  0.9694  2.5125
  141OSM    H8G15506  -0.059   2.972   5.016  1.5350 -0.4815  0.3786
  141OSM    C9F15507  -0.254   2.955   5.105  0.3818 -0.0001  0.1697
  141OSM    H9F15508  -0.304   2.910   5.192 -1.5751 -3.2144 -2.4827
  141OSM   C10F15509  -0.328   3.015   5.008 -0.6523 -0.5557  0.5411
  141OSM   H10F15510  -0.438   3.013   5.007 -0.6381 -1.5034  0.6701
  141OSM   C11F15511  -0.283   3.084   4.883 -0.1328 -0.0188 -0.6587
  141OSM   H11F15512  -0.173   3.094   4.872  0.3320 -0.9115  2.6233
  141OSM   H11G15513  -0.321   3.188   4.869  0.7538  0.1820 -1.6661
  141OSM   C12F15514  -0.329   2.995   4.767 -0.1479  0.3766  0.0462
  141OSM   H12F15515  -0.427   2.946   4.785  0.2860 -0.3569  0.4570
  141OSM   H12G15516  -0.257   2.911   4.753 -1.1094 -0.7301  1.6203
  141OSM   C13F15517  -0.337   3.071   4.640 -0.1354  0.0074  0.2734
  141OSM   H13F15518  -0.246   3.132   4.626  0.0435 -0.7732 -2.3093
  141OSM   H13G15519  -0.427   3.137   4.637  0.8689  1.4272  1.0473
  141OSM   C14F15520  -0.363   2.979   4.517 -0.1307 -0.1692 -0.1506
  141OSM   H14F15521  -0.444   2.905   4.535 -0.5273  0.2980  0.0042
  141OSM   H14G15522  -0.262   2.938   4.495  0.3418  2.0755 -2.4390
  141OSM   C15F15523  -0.407   3.071   4.394  0.1889  0.1150  0.3268
  141OSM   H15F15524  -0.348   3.165   4.380 -1.4301  1.1900  0.5921
  141OSM   H15G15525  -0.513   3.085   4.421 -0.0663 -0.2352 -0.4926
  141OSM   C16F15526  -0.405   3.005   4.256  0.7024 -0.2171  0.6510
  141OSM   H16F15527  -0.468   2.913   4.260 -3.4834  2.4656 -0.0172
  141OSM   H16G15528  -0.302   2.969   4.238  1.2265  1.1568  0.8797
  141OSM   C17F15529  -0.464   3.103   4.153 -0.3873  0.0481  0.0534
  141OSM   H17F15530  -0.408   3.198   4.139  0.6079 -0.8030 -1.9335
  141OSM   H17G15531  -0.568   3.128   4.183 -0.2973  0.3395  0.1182
  141OSM   C18F15532  -0.487   3.041   4.015 -0.5828  0.3348 -0.0307
  141OSM   H18F15533  -0.577   2.976   4.021  0.7500 -1.6606 -0.9331
  141OSM   H18G15534  -0.399   2.989   3.970 -1.0500 -1.1523  0.7155
  141OSM   H18H15535  -0.506   3.128   3.948  0.7196 -0.0388 -0.9035
  142OSM      N15536   6.259   1.479   6.520 -0.2157  0.3410  0.7922
  142OSM    C1515537   6.164   1.562   6.601 -0.2074  0.4587 -0.0310
  142OSM   H15A15538   6.130   1.642   6.537  1.3043  0.6734 -0.6003
  142OSM   H15B15539   6.201   1.612   6.690  0.6162 -0.0624 -0.0751
  142OSM   H15C15540   6.077   1.506   6.630 -1.0487  2.4574  1.4293
  142OSM    C1415541   6.289   1.359   6.602 -0.3935 -0.4780  0.4418
  142OSM   H14A15542   6.203   1.296   6.618 -0.6389  0.2997  2.3980
  142OSM   H14B15543   6.328   1.385   6.700 -0.7577  1.4519  0.0873
  142OSM   H14C15544   6.369   1.306   6.552 -0.5844 -1.8201  1.5169
  142OSM    C1315545   6.188   1.440   6.393  0.0967 -0.6441 -1.2136
  142OSM   H13A15546   6.242   1.360   6.345  0.7659  0.0782 -1.6890
  142OSM   H13B15547   6.182   1.524   6.325 -0.3886  0.8360  0.6419
  142OSM   H13C15548   6.087   1.402   6.404  0.2393 -1.4558 -2.5699
  142OSM    C1215549   6.389   1.559   6.506  0.5006  0.0499 -0.0104
  142OSM   H12A15550   6.453   1.486   6.458 -1.2786 -0.7238 -1.2848
  142OSM   H12B15551   6.432   1.592   6.599  2.1068 -2.5992  0.2380
  142OSM    C1115552   6.394   1.686   6.419  0.7104 -0.3463 -0.0658
  142OSM   H11A15553   6.499   1.715   6.442  1.1699 -1.2131 -1.0483
  142OSM   H11B15554   6.324   1.763   6.457 -0.3470 -0.4465 -1.7743
  142OSM      P15555   6.394   1.767   6.178  0.4089 -0.4657  0.1115
  142OSM    O1315556   6.342   1.895   6.239 -0.4017  0.5067 -0.1950
  142OSM    O1415557   6.535   1.757   6.129  0.6614 -0.6463 -0.2700
  142OSM    O1115558   6.294   1.721   6.058  0.6962 -0.2031 -0.2199
  142OSM    O1215559   6.380   1.648   6.280  0.2382  0.8337 -0.0430
  142OSM    C1S15560   6.285   1.581   6.026 -0.0680 -0.6946 -0.0714
  142OSM    H1S15561   6.231   1.524   6.104  0.7952 -2.0007 -0.4198
  142OSM    H1T15562   6.386   1.541   6.001  0.8622  1.2424  0.4905
  142OSM     NF15563   6.297   1.585   5.784 -0.4609 -0.1675 -0.4308
  142OSM    HNF15564   6.318   1.681   5.766 -0.1096 -0.3486 -1.0016
  142OSM    C2S15565   6.204   1.562   5.891 -0.0343  0.7745 -0.7022
  142OSM    H2S15566   6.161   1.460   5.895  0.7879  0.4914  3.3935
  142OSM    C3S15567   6.076   1.652   5.890 -0.7466  0.0784 -0.2178
  142OSM    H3S15568   6.116   1.750   5.923  2.3045 -1.3659  0.5679
  142OSM     O315569   5.965   1.604   5.963 -0.3252 -0.1583  0.3216
  142OSM    HO315570   6.002   1.537   6.020 -0.9805  0.3383  1.3359
  142OSM    C4S15571   6.038   1.666   5.747  0.1296 -1.0642 -0.7657
  142OSM    H4S15572   6.073   1.761   5.703  1.0800 -0.6059  0.9321
  142OSM    C5S15573   5.968   1.578   5.670 -0.1868 -0.6986  0.3082
  142OSM    H5S15574   5.950   1.481   5.720  1.2941 -0.7707  0.7507
  142OSM    C6S15575   5.929   1.604   5.522 -0.2316  0.1681 -0.0365
  142OSM    H6S15576   5.964   1.703   5.488 -1.2675  1.6822  3.1468
  142OSM    H6T15577   5.818   1.603   5.517 -0.1884 -0.3505 -1.2934
  142OSM    C7S15578   5.983   1.482   5.438  1.3592  0.4890 -0.1222
  142OSM    H7S15579   5.966   1.498   5.329  3.0065 -1.4729 -0.6967
  142OSM    H7T15580   5.946   1.386   5.478  1.0598  0.5233 -0.3178
  142OSM    C8S15581   6.140   1.463   5.447  0.7420  0.6643  0.6326
  142OSM    H8S15582   6.168   1.355   5.443  0.8913  0.7375 -0.6444
  142OSM    H8T15583   6.179   1.491   5.547  0.8054 -1.1171  1.1383
  142OSM    C9S15584   6.224   1.547   5.349  0.2847 -0.3615 -0.7923
  142OSM    H9S15585   6.326   1.566   5.390 -0.5351  1.1799  0.6582
  142OSM    H9T15586   6.166   1.642   5.339  1.4092  0.2625 -1.4554
  142OSM   C10S15587   6.229   1.497   5.201  0.2256  0.7673 -0.1668
  142OSM   H10S15588   6.120   1.504   5.183  0.4022  0.2355 -1.4336
  142OSM   H10T15589   6.270   1.394   5.191 -1.6308 -0.0296  0.3694
  142OSM   C11S15590   6.293   1.604   5.107  0.4731 -0.7274  0.6938
  142OSM   H11S15591   6.233   1.693   5.138 -0.0601 -1.3231  1.3968
  142OSM   H11T15592   6.268   1.581   5.001 -1.4084  0.7084  0.7826
  142OSM   C12S15593   6.449   1.632   5.120  0.6498  0.2613 -0.5871
  142OSM   H12S15594   6.478   1.618   5.226 -0.3108  0.0050 -0.3549
  142OSM   H12T15595   6.464   1.738   5.094 -1.0174  0.7412  0.3307
  142OSM   C13S15596   6.515   1.533   5.025 -1.0715  0.2389  0.0945
  142OSM   H13S15597   6.456   1.522   4.931  0.0284  3.1344 -0.9592
  142OSM   H13T15598   6.511   1.433   5.075 -1.3187 -0.6179 -1.5888
  142OSM   C14S15599   6.660   1.564   4.993 -0.0554  0.1861 -0.8208
  142OSM   H14S15600   6.709   1.540   5.089  1.1270  0.0395 -1.4531
  142OSM   H14T15601   6.677   1.674   4.984  1.2709  0.1288  0.7557
  142OSM   C15S15602   6.707   1.496   4.872 -0.4922 -0.1413  0.0483
  142OSM   H15S15603   6.799   1.548   4.839  1.0229 -2.1083  1.1018
  142OSM   H15T15604   6.634   1.493   4.788 -0.5942  0.0624  0.1312
  142OSM   C16S15605   6.739   1.356   4.911 -0.0065 -0.2538 -0.3363
  142OSM   H16S15606   6.656   1.307   4.966 -1.6896  2.2650 -0.5381
  142OSM   H16T15607   6.825   1.349   4.982  1.0021  1.1892 -1.3753
  142OSM   C17S15608   6.754   1.273   4.784 -0.3515  0.1838 -0.3924
  142OSM   H17S15609   6.831   1.326   4.725 -0.9428  1.6595  0.1461
  142OSM   H17T15610   6.658   1.262   4.729  0.5176 -1.4203 -1.6372
  142OSM   C18S15611   6.807   1.129   4.807 -0.3741 -0.2002  0.2466
  142OSM   H18S15612   6.733   1.069   4.862  0.2666 -2.3259 -1.1528
  142OSM   H18T15613   6.886   1.138   4.884 -1.8039  2.7958  1.4570
  142OSM   H18U15614   6.833   1.072   4.715  0.3329 -0.4523  0.5961
  142OSM    C1F15615   6.385   1.492   5.746 -0.4707  0.5949  1.4369
  142OSM     OF15616   6.376   1.375   5.782 -0.3266  0.1779 -0.0934
  142OSM    C2F15617   6.502   1.529   5.663  0.6192 -0.7188 -0.0727
  142OSM    H2F15618   6.561   1.607   5.715  0.4925 -1.9467  1.9452
  142OSM    H2G15619   6.455   1.572   5.572 -0.7857  0.0470  0.9896
  142OSM    C3F15620   6.589   1.404   5.637 -0.9831  0.2466  0.0293
  142OSM    H3F15621   6.612   1.354   5.733 -1.9811 -0.3450 -0.0363
  142OSM    H3G15622   6.689   1.444   5.609  0.7857 -2.6920  1.8583
  142OSM    C4F15623   6.543   1.296   5.533 -0.8135 -0.6355 -0.8972
  142OSM    H4F15624   6.434   1.279   5.543 -1.0837  0.8902 -1.0582
  142OSM    H4G15625   6.584   1.198   5.563 -0.3310 -0.1275  0.1244
  142OSM    C5F15626   6.569   1.336   5.384  0.3688 -0.3036  0.2055
  142OSM    H5F15627   6.523   1.436   5.368  0.0260 -0.3060  1.1439
  142OSM    H5G15628   6.523   1.253   5.327  0.8589 -0.7114  0.4032
  142OSM    C6F15629   6.724   1.340   5.348 -0.1766  0.7844  0.9066
  142OSM    H6F15630   6.758   1.436   5.393  1.8060  0.5961 -0.1565
  142OSM    H6G15631   6.742   1.341   5.238  0.3026 -1.7245  0.9403
  142OSM    C7F15632   6.802   1.222   5.401 -0.7025 -0.0989 -0.4234
  142OSM    H7F15633   6.793   1.205   5.510  1.7965  0.1323 -0.1484
  142OSM    H7G15634   6.911   1.242   5.392 -0.4252 -1.3721  0.0223
  142OSM    C8F15635   6.780   1.094   5.322 -0.3123 -0.3044 -0.2369
  142OSM    H8F15636   6.773   1.128   5.216 -0.4583  2.5431  0.6421
  142OSM    H8G15637   6.672   1.080   5.345  0.3296 -2.2354  1.8100
  142OSM    C9F15638   6.877   0.981   5.364  0.9784  0.2020 -0.4507
  142OSM    H9F15639   6.864   0.962   5.472  1.9036  3.2741  0.2479
  142OSM   C10F15640   6.979   0.921   5.299  0.1665 -0.1299 -0.9531
  142OSM   H10F15641   7.030   0.836   5.346  0.1759  0.7533  0.6533
  142OSM   C11F15642   7.030   0.940   5.164  0.2096  0.1795 -0.5818
  142OSM   H11F15643   7.134   0.980   5.165  0.4498 -0.4811  1.5665
  142OSM   H11G15644   6.969   1.013   5.105 -0.1221 -1.7765 -2.7514
  142OSM   C12F15645   7.043   0.804   5.095  0.2271 -0.0638 -0.3551
  142OSM   H12F15646   6.948   0.747   5.099  2.9062 -4.8302  0.4212
  142OSM   H12G15647   7.120   0.738   5.142 -0.0700  0.0107  0.2384
  142OSM   C13F15648   7.088   0.827   4.951  0.1083  0.0645 -0.9444
  142OSM   H13F15649   7.197   0.848   4.944  0.0351 -0.0371 -2.6163
  142OSM   H13G15650   7.043   0.914   4.899 -2.0491  0.4783  1.4847
  142OSM   C14F15651   7.067   0.711   4.855  0.3072  0.1160 -0.7747
  142OSM   H14F15652   6.963   0.723   4.818 -0.4914 -1.1680  0.9714
  142OSM   H14G15653   7.065   0.614   4.909 -0.4759  0.4820 -0.1297
  142OSM   C15F15654   7.175   0.702   4.747  0.1992  0.2005 -0.4332
  142OSM   H15F15655   7.271   0.695   4.801 -0.3313 -3.3851  0.1962
  142OSM   H15G15656   7.161   0.802   4.701 -0.7480 -0.5991 -1.9501
  142OSM   C16F15657   7.155   0.594   4.647 -0.3487  0.0885 -0.6294
  142OSM   H16F15658   7.049   0.597   4.612 -1.2406 -3.6093  1.4983
  142OSM   H16G15659   7.187   0.504   4.704 -2.0739  0.3780  0.8334
  142OSM   C17F15660   7.235   0.601   4.520  0.1663  0.6145 -0.3821
  142OSM   H17F15661   7.196   0.700   4.489 -1.5963  0.2204  0.5170
  142OSM   H17G15662   7.198   0.525   4.448  0.6513 -0.9648  0.9769
  142OSM   C18F15663   7.385   0.601   4.534 -0.9508 -0.4131  0.2827
  142OSM   H18F15664   7.430   0.648   4.445  0.7654 -0.6929  0.9825
  142OSM   H18G15665   7.421   0.498   4.556 -1.7324 -0.8994 -0.7062
  142OSM   H18H15666   7.413   0.669   4.618 -0.7028  1.1772 -1.0734
  143OSM      N15667   0.137   5.100   6.529  0.7035 -0.8621  1.0241
  143OSM    C1515668   0.010   5.033   6.579 -0.0762 -0.0447  0.2361
  143OSM   H15A15669   0.013   5.016   6.685 -1.4695  0.4153  0.3577
  143OSM   H15B15670  -0.015   4.943   6.525  2.4414 -0.1718 -0.7753
  143OSM   H15C15671  -0.076   5.097   6.563  0.7577  1.2433  0.8249
  143OSM    C1415672   0.170   5.222   6.619  0.0775 -0.1219  0.9538
  143OSM   H14A15673   0.108   5.308   6.597  0.5678  0.0896  0.3976
  143OSM   H14B15674   0.263   5.269   6.592 -1.6223  2.4542 -0.5855
  143OSM   H14C15675   0.174   5.194   6.724 -0.9648  1.1875  1.3585
  143OSM    C1315676   0.245   5.000   6.556  0.2747 -0.5868  0.5166
  143OSM   H13A15677   0.256   4.984   6.662 -0.1987  0.4950  0.7370
  143OSM   H13B15678   0.335   5.042   6.514  1.5846 -0.7914  3.0259
  143OSM   H13C15679   0.225   4.906   6.507  0.6842  0.4049 -1.6078
  143OSM    C1215680   0.117   5.152   6.390  0.4592  0.4265  0.1140
  143OSM   H12A15681   0.098   5.062   6.334  1.2861 -1.8033  3.2776
  143OSM   H12B15682   0.211   5.188   6.351  1.4304 -0.9681  1.1200
  143OSM    C1115683   0.013   5.266   6.361  0.4904 -1.1456  0.7336
  143OSM   H11A15684  -0.088   5.258   6.407 -0.4940  0.8539 -0.9974
  143OSM   H11B15685  -0.017   5.266   6.254  0.5661  0.5222  0.6983
  143OSM      P15686   0.152   5.495   6.335 -0.5075  0.1278  0.2663
  143OSM    O1315687   0.132   5.633   6.389  0.4279 -0.1178 -0.1764
  143OSM    O1415688   0.287   5.447   6.347 -0.1793  0.1948 -0.3329
  143OSM    O1115689   0.101   5.479   6.184  0.2655  0.1813  0.4552
  143OSM    O1215690   0.059   5.392   6.411 -0.0646 -0.0484 -0.0005
  143OSM    C1S15691   0.190   5.496   6.075  0.2334 -0.5127 -0.0938
  143OSM    H1S15692   0.225   5.398   6.037 -0.1109 -1.2721  1.5003
  143OSM    H1T15693   0.276   5.565   6.087 -0.4437 -0.0040  2.0307
  143OSM     NF15694   0.189   5.603   5.846 -0.3256 -0.0608 -0.2909
  143OSM    HNF15695   0.203   5.701   5.837  1.3277 -0.4041 -1.5235
  143OSM    C2S15696   0.107   5.560   5.957 -0.1839 -0.3858 -0.2026
  143OSM    H2S15697   0.043   5.480   5.913 -1.0723  0.9234 -1.3224
  143OSM    C3S15698   0.011   5.681   6.002 -0.2353 -0.1110 -0.2420
  143OSM    H3S15699   0.074   5.759   6.051  0.7791 -1.8848  1.3527
  143OSM     O315700  -0.080   5.651   6.107  0.2534  0.0794  1.0892
  143OSM    HO315701  -0.050   5.565   6.138 -0.1568 -0.7475 -0.7764
  143OSM    C4S15702  -0.069   5.736   5.888 -0.1151 -0.1654  0.0182
  143OSM    H4S15703  -0.142   5.663   5.850  0.0884  0.5067 -1.6894
  143OSM    C5S15704  -0.062   5.857   5.835  0.4608 -1.0923  0.0511
  143OSM    H5S15705   0.004   5.937   5.873 -0.6123 -0.0572 -0.2493
  143OSM    C6S15706  -0.143   5.904   5.717  0.6832  0.4330 -0.3102
  143OSM    H6S15707  -0.090   5.989   5.670 -1.2855  0.6817 -2.1459
  143OSM    H6T15708  -0.241   5.941   5.755  0.1189 -0.7242 -0.6232
  143OSM    C7S15709  -0.169   5.792   5.612  0.2186  0.2964 -0.4040
  143OSM    H7S15710  -0.226   5.704   5.647  1.5640  0.3730  2.0413
  143OSM    H7T15711  -0.075   5.757   5.565 -0.8667 -3.7962  0.2631
  143OSM    C8S15712  -0.247   5.854   5.501 -0.0656  0.6418  0.3942
  143OSM    H8S15713  -0.325   5.920   5.545  0.9970  0.7170  2.1735
  143OSM    H8T15714  -0.307   5.772   5.455  1.3683 -1.0147  1.4222
  143OSM    C9S15715  -0.158   5.930   5.407 -0.2239  0.1082 -0.3507
  143OSM    H9S15716  -0.086   5.862   5.356 -0.3379  0.7189 -1.3365
  143OSM    H9T15717  -0.100   6.011   5.457  0.0535 -1.0168  1.1684
  143OSM   C10S15718  -0.242   5.983   5.290  0.4718 -0.2389 -0.0438
  143OSM   H10S15719  -0.338   6.026   5.326 -1.2148 -2.3021 -1.9531
  143OSM   H10T15720  -0.258   5.901   5.217  0.5640 -0.6536  0.3998
  143OSM   C11S15721  -0.170   6.103   5.221  0.5801  0.0386  0.0797
  143OSM   H11S15722  -0.068   6.071   5.191  0.5043 -0.7709  0.6679
  143OSM   H11T15723  -0.151   6.178   5.300 -1.6872  0.3508  0.3733
  143OSM   C12S15724  -0.244   6.156   5.096 -0.5034 -0.7251  0.2575
  143OSM   H12S15725  -0.174   6.212   5.030 -1.6484 -0.8996 -1.1294
  143OSM   H12T15726  -0.327   6.213   5.145  0.5675 -0.6491  2.0529
  143OSM   C13S15727  -0.315   6.053   5.005 -0.4939 -0.1528  0.7163
  143OSM   H13S15728  -0.397   6.014   5.070 -0.8099 -1.3594 -0.4000
  143OSM   H13T15729  -0.255   5.963   4.981 -0.4562 -0.6574  2.5795
  143OSM   C14S15730  -0.370   6.115   4.873  0.1037 -0.2517  0.2506
  143OSM   H14S15731  -0.406   6.037   4.803  0.0720  1.0079 -1.1695
  143OSM   H14T15732  -0.290   6.158   4.808 -1.4923 -0.0470 -1.6587
  143OSM   C15S15733  -0.484   6.217   4.891 -0.3171 -0.3418  0.0074
  143OSM   H15S15734  -0.487   6.285   4.803 -1.6742 -2.3773 -1.5481
  143OSM   H15T15735  -0.455   6.278   4.980  2.3111 -0.8103 -0.4764
  143OSM   C16S15736  -0.623   6.159   4.911 -0.0062 -0.0825  0.1095
  143OSM   H16S15737  -0.615   6.098   5.004 -1.1321  1.6039  1.3331
  143OSM   H16T15738  -0.647   6.089   4.828  0.5741  0.5492 -0.5911
  143OSM   C17S15739  -0.739   6.265   4.922  0.2150  0.4253  0.2128
  143OSM   H17S15740  -0.699   6.339   4.994 -0.4864 -0.5137  1.5853
  143OSM   H17T15741  -0.832   6.212   4.950  1.1796 -0.7217  1.2939
  143OSM   C18S15742  -0.775   6.328   4.780 -0.3725 -0.1993 -0.8342
  143OSM   H18S15743  -0.795   6.241   4.713  1.0036 -0.7694 -0.5121
  143OSM   H18T15744  -0.693   6.391   4.741  0.7788 -0.7145  0.7035
  143OSM   H18U15745  -0.859   6.399   4.791 -0.1376  0.1819 -1.4737
  143OSM    C1F15746   0.259   5.515   5.782  0.1072 -0.1716 -0.5608
  143OSM     OF15747   0.255   5.395   5.807  0.0714 -0.1348  0.5316
  143OSM    C2F15748   0.349   5.575   5.676 -0.4546  0.2021 -0.2090
  143OSM    H2F15749   0.453   5.555   5.710 -0.4329  2.8025  1.3520
  143OSM    H2G15750   0.338   5.684   5.658 -1.2792  0.2218  0.4040
  143OSM    C3F15751   0.324   5.517   5.539 -0.1598 -0.4478  0.2540
  143OSM    H3F15752   0.338   5.407   5.548  0.0923 -0.3374  1.2729
  143OSM    H3G15753   0.397   5.553   5.464 -3.6789  2.3451 -2.0373
  143OSM    C4F15754   0.183   5.543   5.475  0.3035  0.3709 -0.2272
  143OSM    H4F15755   0.158   5.650   5.492 -2.1572 -0.3990  1.2109
  143OSM    H4G15756   0.099   5.478   5.508  2.5415 -3.4336 -1.6717
  143OSM    C5F15757   0.204   5.510   5.326  0.0227 -0.5325 -0.5758
  143OSM    H5F15758   0.258   5.413   5.315 -0.1570 -0.4129 -2.8901
  143OSM    H5G15759   0.271   5.586   5.279 -1.5117  1.4454  0.3566
  143OSM    C6F15760   0.074   5.504   5.237  0.6561  0.6756 -0.2799
  143OSM    H6F15761  -0.005   5.438   5.278  0.2206  1.1137 -0.4106
  143OSM    H6G15762   0.105   5.473   5.134  2.1907 -1.0686  0.6724
  143OSM    C7F15763   0.020   5.644   5.217  0.4463  0.5158  0.2241
  143OSM    H7F15764   0.091   5.727   5.241  0.6654  0.7244 -1.1120
  143OSM    H7G15765  -0.068   5.650   5.284  0.6885 -1.4208  0.7536
  143OSM    C8F15766  -0.038   5.674   5.075  0.0579  0.6859  0.8507
  143OSM    H8F15767   0.036   5.655   4.994 -1.1837  1.1814 -0.4091
  143OSM    H8G15768  -0.055   5.782   5.090 -1.6100  0.3453  1.4922
  143OSM    C9F15769  -0.165   5.596   5.048  0.0170  0.0271  0.2928
  143OSM    H9F15770  -0.250   5.634   5.106 -0.5075  1.1503 -1.1846
  143OSM   C10F15771  -0.181   5.483   4.972  0.0776 -0.4741 -0.9484
  143OSM   H10F15772  -0.275   5.427   4.969 -1.3626  1.7541  1.0154
  143OSM   C11F15773  -0.076   5.410   4.894  0.3990 -0.0321  0.1851
  143OSM   H11F15774  -0.077   5.304   4.925  1.5797 -0.0585  0.1675
  143OSM   H11G15775   0.026   5.447   4.916  1.1449 -1.5425 -0.6969
  143OSM   C12F15776  -0.111   5.406   4.744  0.3781  0.0130  0.1202
  143OSM   H12F15777  -0.120   5.516   4.730  0.7277  0.0703  0.3457
  143OSM   H12G15778  -0.206   5.351   4.726 -0.2943  1.4726 -0.9149
  143OSM   C13F15779  -0.007   5.337   4.656  0.4773 -1.0801  0.4845
  143OSM   H13F15780   0.009   5.233   4.690  0.6152 -1.2083  0.0282
  143OSM   H13G15781   0.083   5.400   4.672 -0.4881  0.8033 -1.1927
  143OSM   C14F15782  -0.042   5.353   4.504 -0.0339 -0.0723 -0.3885
  143OSM   H14F15783  -0.077   5.456   4.482  1.2509  0.7083  1.1614
  143OSM   H14G15784  -0.131   5.291   4.477  0.5505 -0.2696 -1.9493
  143OSM   C15F15785   0.078   5.305   4.414 -0.0491 -0.1943 -0.9118
  143OSM   H15F15786   0.046   5.220   4.350 -0.7600 -0.6104 -0.0132
  143OSM   H15G15787   0.160   5.266   4.478 -0.3870  0.0374 -0.3305
  143OSM   C16F15788   0.127   5.414   4.318  0.6232  0.6744  0.0311
  143OSM   H16F15789   0.152   5.505   4.377  3.7780 -0.0214 -0.1116
  143OSM   H16G15790   0.045   5.441   4.249  0.4417  1.1270  0.4208
  143OSM   C17F15791   0.258   5.382   4.249 -0.2938  0.2112  0.3953
  143OSM   H17F15792   0.240   5.281   4.206  0.0684  0.3763 -0.1476
  143OSM   H17G15793   0.333   5.360   4.328 -0.2696  1.5357  0.7434
  143OSM   C18F15794   0.315   5.464   4.138  0.3408  0.9321 -0.5446
  143OSM   H18F15795   0.241   5.479   4.057  1.0854  0.4659 -1.3149
  143OSM   H18G15796   0.398   5.407   4.093 -0.7309 -2.0096  1.0524
  143OSM   H18H15797   0.351   5.561   4.179 -0.1131  0.7155  0.4028
  144OSM      N15798   0.686   4.637   6.220 -0.0025 -0.2250 -0.0202
  144OSM    C1515799   0.815   4.561   6.210  0.0691 -0.4266  0.2126
  144OSM   H15A15800   0.790   4.456   6.211  0.5688 -0.5607 -1.0403
  144OSM   H15B15801   0.882   4.587   6.292 -1.1464  1.4886  0.6288
  144OSM   H15C15802   0.866   4.592   6.120 -2.8554 -0.1321 -1.4091
  144OSM    C1415803   0.712   4.780   6.210  0.6077 -0.8169 -0.2017
  144OSM   H14A15804   0.788   4.814   6.278  0.3409  0.1125 -0.3597
  144OSM   H14B15805   0.629   4.848   6.201  2.7152  1.8200 -0.4180
  144OSM   H14C15806   0.755   4.799   6.113 -0.3308 -0.0663 -0.4768
  144OSM    C1315807   0.596   4.591   6.105 -0.8358 -0.1693  0.2602
  144OSM   H13A15808   0.600   4.485   6.088  0.6214  0.0311 -0.7480
  144OSM   H13B15809   0.625   4.636   6.011 -1.1971 -0.8629 -0.1868
  144OSM   H13C15810   0.501   4.634   6.133 -0.5845 -0.8308  2.1677
  144OSM    C1215811   0.625   4.603   6.357 -0.0392 -0.6321 -0.0473
  144OSM   H12A15812   0.691   4.627   6.439 -0.5184 -1.1716  0.4988
  144OSM   H12B15813   0.603   4.498   6.367  0.4148 -0.6948  0.3184
  144OSM    C1115814   0.483   4.658   6.396  0.1190  0.2041 -0.0074
  144OSM   H11A15815   0.489   4.769   6.391 -1.4697  0.2775 -0.5620
  144OSM   H11B15816   0.463   4.634   6.503 -1.1543 -0.6863 -0.4440
  144OSM      P15817   0.233   4.674   6.330  0.6688 -0.2456 -0.0248
  144OSM    O1315818   0.147   4.598   6.246 -0.7423  0.2278  0.0695
  144OSM    O1415819   0.192   4.684   6.472  0.3744 -0.4386 -0.2455
  144OSM    O1115820   0.248   4.818   6.274 -0.0547  0.1903  0.0897
  144OSM    O1215821   0.379   4.609   6.319  0.5178  0.4609  0.2462
  144OSM    C1S15822   0.314   4.839   6.158  0.3414 -0.5351 -0.5316
  144OSM    H1S15823   0.391   4.765   6.130  1.0547 -0.2210  0.5461
  144OSM    H1T15824   0.379   4.927   6.178  0.1154 -0.6430  0.7163
  144OSM     NF15825   0.287   4.902   5.911 -0.5719  0.2405 -0.0743
  144OSM    HNF15826   0.269   4.995   5.877 -1.0947  0.0485 -0.3373
  144OSM    C2S15827   0.220   4.866   6.041 -0.0136  0.5840  0.5383
  144OSM    H2S15828   0.159   4.775   6.030  2.1691 -0.8721  0.1676
  144OSM    C3S15829   0.110   4.980   6.068  0.2350  0.5476 -0.5967
  144OSM    H3S15830   0.177   5.066   6.092 -0.0047  0.7603 -0.6891
  144OSM     O315831   0.020   4.948   6.175  0.1561 -0.3810  0.0623
  144OSM    HO315832   0.053   4.864   6.209  0.6170  0.1086  0.8492
  144OSM    C4S15833   0.017   5.018   5.948 -0.3981 -0.0088  0.0789
  144OSM    H4S15834  -0.023   4.935   5.889 -2.3785  1.5775 -0.8346
  144OSM    C5S15835  -0.011   5.136   5.902  0.4310  0.2313 -0.2232
  144OSM    H5S15836   0.028   5.228   5.947 -0.7616  1.2089 -1.1234
  144OSM    C6S15837  -0.100   5.148   5.782 -1.0097  0.1202  0.0143
  144OSM    H6S15838  -0.180   5.213   5.822 -1.2425 -0.8089  1.0765
  144OSM    H6T15839  -0.149   5.052   5.756 -0.0427 -0.2983 -0.3093
  144OSM    C7S15840  -0.023   5.197   5.658 -0.4298  0.0610  0.5148
  144OSM    H7S15841   0.050   5.278   5.680  0.3342 -0.9020  1.6211
  144OSM    H7T15842  -0.095   5.237   5.584  1.8174  1.7487 -0.7947
  144OSM    C8S15843   0.049   5.084   5.586  0.0111  0.5729  0.3265
  144OSM    H8S15844  -0.020   5.013   5.535  1.7091  0.7673 -2.3666
  144OSM    H8T15845   0.114   5.032   5.660 -1.2546 -0.2964  0.8301
  144OSM    C9S15846   0.140   5.143   5.478  0.4814  0.3200 -0.5791
  144OSM    H9S15847   0.217   5.211   5.519 -0.3703  2.2389 -2.0410
  144OSM    H9T15848   0.080   5.207   5.409  0.1223  1.9238  1.1843
  144OSM   C10S15849   0.220   5.038   5.398 -0.1780 -0.0296 -0.5147
  144OSM   H10S15850   0.151   4.973   5.342  0.6028 -1.9720  0.7134
  144OSM   H10T15851   0.255   4.981   5.487 -2.8622 -2.5248 -1.0128
  144OSM   C11S15852   0.336   5.107   5.319  0.5316 -0.0207  0.4570
  144OSM   H11S15853   0.392   5.164   5.395  0.2504  1.8869 -0.7352
  144OSM   H11T15854   0.292   5.185   5.254 -2.9213 -1.3883  1.0449
  144OSM   C12S15855   0.407   5.006   5.228  0.1516  0.1813  0.6044
  144OSM   H12S15856   0.324   4.958   5.172  1.1415 -1.7034  0.7279
  144OSM   H12T15857   0.442   4.923   5.293  0.0185  0.2386  0.7501
  144OSM   C13S15858   0.514   5.066   5.132  0.3319  0.1852  0.0900
  144OSM   H13S15859   0.553   4.991   5.059 -1.0975 -0.6666  0.1654
  144OSM   H13T15860   0.590   5.105   5.202 -2.2203 -0.3810  3.3103
  144OSM   C14S15861   0.477   5.195   5.053 -0.1937  0.0076 -0.1078
  144OSM   H14S15862   0.564   5.246   5.006  0.2494 -0.4010  0.2661
  144OSM   H14T15863   0.443   5.277   5.120  0.1301 -0.3532  0.5039
  144OSM   C15S15864   0.364   5.184   4.947 -0.6083 -0.8826 -0.4714
  144OSM   H15S15865   0.290   5.108   4.980 -0.0269 -0.9982  0.6093
  144OSM   H15T15866   0.415   5.152   4.854  1.3819  0.3648  0.1589
  144OSM   C16S15867   0.279   5.308   4.906  1.0125 -0.8846 -0.5305
  144OSM   H16S15868   0.215   5.334   4.993 -1.5099 -1.6572 -2.1046
  144OSM   H16T15869   0.208   5.276   4.828  0.4121 -1.7941  0.3800
  144OSM   C17S15870   0.360   5.434   4.865 -0.3394 -0.1955 -0.3140
  144OSM   H17S15871   0.349   5.444   4.755 -1.1579  1.6376 -0.0815
  144OSM   H17T15872   0.468   5.415   4.886 -0.7970 -3.7380 -0.7685
  144OSM   C18S15873   0.320   5.571   4.928 -0.5542  0.5883 -0.4976
  144OSM   H18S15874   0.396   5.646   4.896  1.3803 -0.6483  1.0843
  144OSM   H18T15875   0.323   5.575   5.039 -0.4406 -0.3025 -0.4713
  144OSM   H18U15876   0.222   5.602   4.885 -1.5502 -2.7591 -0.8000
  144OSM    C1F15877   0.368   4.819   5.843  0.5041 -0.0198 -0.0969
  144OSM     OF15878   0.390   4.701   5.868  0.7365  0.0731 -0.2034
  144OSM    C2F15879   0.443   4.891   5.728  0.8839 -0.1793 -0.3728
  144OSM    H2F15880   0.481   4.988   5.768 -0.0538 -0.4941  1.3437
  144OSM    H2G15881   0.356   4.930   5.671  0.6643  0.6053  0.4898
  144OSM    C3F15882   0.549   4.796   5.658 -0.2122  0.5056 -0.5345
  144OSM    H3F15883   0.490   4.712   5.614 -0.6091  0.6756 -0.3353
  144OSM    H3G15884   0.610   4.751   5.739 -2.0880  2.2978  1.9859
  144OSM    C4F15885   0.632   4.857   5.547 -0.3479  0.0218  0.0793
  144OSM    H4F15886   0.560   4.878   5.465 -1.0457  0.4987  0.8026
  144OSM    H4G15887   0.701   4.778   5.513  0.9253  1.5090 -0.8501
  144OSM    C5F15888   0.715   4.979   5.595 -0.4100 -0.7274 -0.1607
  144OSM    H5F15889   0.767   4.947   5.688  0.9874  1.5567 -0.1224
  144OSM    H5G15890   0.660   5.075   5.613  2.4148  1.5604 -3.2457
  144OSM    C6F15891   0.839   5.008   5.515 -0.2891  0.0278  0.6757
  144OSM    H6F15892   0.906   4.919   5.518 -0.6473 -0.2247  1.2712
  144OSM    H6G15893   0.893   5.085   5.574  1.7833  1.1977 -2.5772
  144OSM    C7F15894   0.818   5.051   5.368  0.0624 -0.3553 -1.1105
  144OSM    H7F15895   0.866   5.151   5.369 -0.3380 -0.1246  2.7700
  144OSM    H7G15896   0.710   5.058   5.341 -0.1787 -0.7425 -0.2749
  144OSM    C8F15897   0.884   4.949   5.271  1.0049 -0.0954 -0.2395
  144OSM    H8F15898   0.863   4.843   5.297 -0.8080  0.1707 -0.5226
  144OSM    H8G15899   0.993   4.960   5.290  0.9366 -1.5218  0.9998
  144OSM    C9F15900   0.874   4.983   5.128  0.4514  0.0230 -0.1376
  144OSM    H9F15901   0.934   5.073   5.105  1.1109 -0.3356  0.1550
  144OSM   C10F15902   0.845   4.906   5.020 -0.7543  0.3864  0.2113
  144OSM   H10F15903   0.854   4.950   4.920 -1.0748 -0.5201 -0.2245
  144OSM   C11F15904   0.811   4.759   5.014  0.3583 -0.4686  0.3820
  144OSM   H11F15905   0.813   4.713   5.115  0.4221  0.8886  1.0171
  144OSM   H11G15906   0.879   4.704   4.945  0.5958  0.8589 -0.4686
  144OSM   C12F15907   0.672   4.733   4.950 -0.3264 -0.2350  0.4662
  144OSM   H12F15908   0.605   4.766   5.032 -0.9700 -1.5006  0.4501
  144OSM   H12G15909   0.657   4.623   4.940 -0.4813 -0.1697 -0.0332
  144OSM   C13F15910   0.641   4.810   4.820  0.0782 -0.6069 -0.2154
  144OSM   H13F15911   0.722   4.790   4.746 -0.8719 -0.7378 -1.2277
  144OSM   H13G15912   0.643   4.921   4.824  1.1915 -0.6962  2.4543
  144OSM   C14F15913   0.508   4.783   4.755  0.8860  0.5477  0.3025
  144OSM   H14F15914   0.492   4.681   4.715  1.6377 -0.0500  1.5182
  144OSM   H14G15915   0.508   4.857   4.672  1.4967  0.8995  0.6115
  144OSM   C15F15916   0.391   4.815   4.852  0.6198  0.4353  0.3344
  144OSM   H15F15917   0.387   4.926   4.860  0.3049  0.4779 -0.4457
  144OSM   H15G15918   0.405   4.766   4.951  1.2002  1.0554  0.5672
  144OSM   C16F15919   0.253   4.769   4.797 -0.0442  0.2032  0.2152
  144OSM   H16F15920   0.178   4.794   4.876 -0.9667  0.6060 -0.7779
  144OSM   H16G15921   0.266   4.660   4.782 -1.2581 -0.4455  3.3793
  144OSM   C17F15922   0.195   4.831   4.667 -0.2179 -0.4465 -0.2351
  144OSM   H17F15923   0.132   4.751   4.622  0.2020 -0.1086 -1.4344
  144OSM   H17G15924   0.283   4.845   4.601  0.8253 -0.0061  1.2434
  144OSM   C18F15925   0.121   4.959   4.696 -0.2167 -0.0813 -0.3857
  144OSM   H18F15926   0.188   5.028   4.752  1.5623 -1.5639 -0.6668
  144OSM   H18G15927   0.027   4.943   4.752 -0.7151  1.6905 -0.6800
  144OSM   H18H15928   0.090   5.016   4.606  0.1422  1.3714  0.3899
  145OSM      N15929   0.798   0.105   6.638 -0.1797  0.1613 -0.0123
  145OSM    C1515930   0.788   0.242   6.701 -0.1842  0.2713  0.1358
  145OSM   H15A15931   0.887   0.280   6.724  0.2110  0.0205 -1.0948
  145OSM   H15B15932   0.728   0.235   6.790 -0.8979 -0.5370 -0.4020
  145OSM   H15C15933   0.741   0.309   6.630 -1.0619 -1.2259 -0.7033
  145OSM    C1415934   0.857   0.009   6.736  0.2237 -0.0834  0.0178
  145OSM   H14A15935   0.858  -0.090   6.693 -0.4419 -0.3444  0.5872
  145OSM   H14B15936   0.798   0.010   6.827 -1.9932  1.0492 -1.3853
  145OSM   H14C15937   0.956   0.042   6.764  0.0562  1.3524 -1.0291
  145OSM    C1315938   0.654   0.061   6.611  0.3557 -0.1524  0.5187
  145OSM   H13A15939   0.594   0.141   6.568  0.1405 -1.0372 -0.8406
  145OSM   H13B15940   0.615   0.025   6.706  0.1096 -0.9839  0.1034
  145OSM   H13C15941   0.650  -0.020   6.540 -2.7681 -1.6571  2.3076
  145OSM    C1215942   0.869   0.108   6.504  0.1330  0.4156  0.3092
  145OSM   H12A15943   0.966   0.142   6.534  0.5487 -0.6004  0.1387
  145OSM   H12B15944   0.829   0.184   6.438  2.5535 -0.0346 -1.7347
  145OSM    C1115945   0.882  -0.027   6.422  0.8536 -0.0007 -0.6972
  145OSM   H11A15946   0.883  -0.104   6.502  0.0073  0.3684 -0.3273
  145OSM   H11B15947   0.983  -0.023   6.375  1.2864 -2.0366  0.0155
  145OSM      P15948   0.747   0.059   6.213  0.2949 -0.0348  0.4272
  145OSM    O1315949   0.715  -0.009   6.086 -0.2099 -0.8392 -0.3326
  145OSM    O1415950   0.645   0.159   6.261 -0.3039 -0.6170  0.1145
  145OSM    O1115951   0.882   0.134   6.201 -0.0863 -0.1770  0.0554
  145OSM    O1215952   0.771  -0.041   6.330 -0.3718  0.0588 -0.6287
  145OSM    C1S15953   0.899   0.258   6.130  0.6105 -0.7620  0.2641
  145OSM    H1S15954   0.972   0.326   6.178 -0.5629  0.4515  0.3708
  145OSM    H1T15955   0.802   0.313   6.124  0.3277 -1.1417  1.2713
  145OSM     NF15956   0.863   0.239   5.886 -0.6212 -0.2673  0.1082
  145OSM    HNF15957   0.834   0.157   5.837  1.6144 -0.0723 -1.6347
  145OSM    C2S15958   0.965   0.234   5.991  0.3893 -0.1997  0.0354
  145OSM    H2S15959   1.036   0.318   5.974  1.0969 -1.1994 -2.1120
  145OSM    C3S15960   1.043   0.095   5.978  0.2227  0.0410  0.4009
  145OSM    H3S15961   0.969   0.012   5.977  2.9721 -2.5053 -0.1976
  145OSM     O315962   1.125   0.062   6.093  0.1554 -0.4204  0.5131
  145OSM    HO315963   1.064   0.095   6.160  0.8504  0.1932  0.8533
  145OSM    C4S15964   1.112   0.101   5.840  0.0570  0.0675  0.6554
  145OSM    H4S15965   1.061   0.050   5.757  2.4099  1.4600 -1.7057
  145OSM    C5S15966   1.227   0.149   5.797  0.1797  0.2042  0.1556
  145OSM    H5S15967   1.300   0.179   5.873  0.3999  0.6065 -0.2158
  145OSM    C6S15968   1.279   0.145   5.653 -0.8033 -0.1157 -0.1005
  145OSM    H6S15969   1.386   0.116   5.643 -0.6019  1.5688 -3.2940
  145OSM    H6T15970   1.282   0.250   5.617  0.0078 -0.6791 -1.7376
  145OSM    C7S15971   1.220   0.061   5.542  0.2301  0.2780  0.7366
  145OSM    H7S15972   1.111   0.078   5.535  0.1254 -0.2119  1.1349
  145OSM    H7T15973   1.248  -0.044   5.567 -1.1117 -0.2064  0.2905
  145OSM    C8S15974   1.274   0.081   5.402 -0.1401  0.4727  0.4704
  145OSM    H8S15975   1.380   0.051   5.391  0.0908  1.3499  0.2695
  145OSM    H8T15976   1.266   0.188   5.376  2.0433  0.9252  1.5982
  145OSM    C9S15977   1.198   0.000   5.298  0.3904  0.3879  0.0557
  145OSM    H9S15978   1.092   0.023   5.273 -0.1281 -1.5160  0.4011
  145OSM    H9T15979   1.186  -0.104   5.334  0.5109 -0.1266 -1.3827
  145OSM   C10S15980   1.270   0.010   5.159  0.2004 -0.5074  0.4613
  145OSM   H10S15981   1.374  -0.025   5.175 -0.2001 -1.9663 -0.0577
  145OSM   H10T15982   1.286   0.116   5.129 -0.1842 -0.6931 -0.4118
  145OSM   C11S15983   1.199  -0.079   5.056 -0.1183  0.8838 -0.4545
  145OSM   H11S15984   1.094  -0.049   5.034 -0.3318  0.4476 -0.0518
  145OSM   H11T15985   1.189  -0.180   5.102 -0.0372  1.2460  0.3708
  145OSM   C12S15986   1.282  -0.093   4.914  0.1226  0.4858 -0.6456
  145OSM   H12S15987   1.232  -0.175   4.858 -0.5716 -0.8703  1.8748
  145OSM   H12T15988   1.381  -0.137   4.937 -1.1979 -2.5679 -0.4774
  145OSM   C13S15989   1.276   0.034   4.836  0.6672  0.8348  0.4611
  145OSM   H13S15990   1.356   0.099   4.878  1.0333  1.0317 -0.5262
  145OSM   H13T15991   1.180   0.090   4.837  0.7288  1.0101 -1.5413
  145OSM   C14S15992   1.288   0.010   4.682  0.2725 -0.4296  0.3991
  145OSM   H14S15993   1.266   0.105   4.628 -0.6084 -0.0883  1.3262
  145OSM   H14T15994   1.208  -0.059   4.646 -0.3300  0.1933  0.5363
  145OSM   C15S15995   1.415  -0.065   4.635  0.1932  0.3036  0.3601
  145OSM   H15S15996   1.429  -0.158   4.694 -0.2049  0.9686  1.5262
  145OSM   H15T15997   1.506  -0.009   4.666 -0.6429  1.0757  1.4661
  145OSM   C16S15998   1.411  -0.097   4.482  0.6513 -0.0680  0.4500
  145OSM   H16S15999   1.312  -0.143   4.463  0.8578  0.7450 -2.8728
  145OSM   H16T16000   1.473  -0.188   4.472  0.1501 -0.4080  0.3980
  145OSM   C17S16001   1.438   0.015   4.388  0.1936  0.0580 -0.1759
  145OSM   H17S16002   1.389   0.112   4.412 -1.1711 -0.4414 -0.9059
  145OSM   H17T16003   1.404  -0.027   4.291 -1.1510  2.4975 -0.7975
  145OSM   C18S16004   1.589   0.044   4.391  0.5832 -0.6057  0.2715
  145OSM   H18S16005   1.602   0.121   4.312 -1.2441  0.2058  0.7526
  145OSM   H18T16006   1.650  -0.042   4.358 -0.9574 -1.4644 -0.3639
  145OSM   H18U16007   1.622   0.086   4.489 -0.6738  0.2399  0.3340
  145OSM    C1F16008   0.824   0.360   5.836  0.4256 -0.4916 -0.2694
  145OSM     OF16009   0.843   0.460   5.897  0.1874 -0.2247 -0.0003
  145OSM    C2F16010   0.751   0.358   5.706  0.0049  0.0828  0.6257
  145OSM    H2F16011   0.654   0.304   5.716  1.1125 -2.3790 -1.2591
  145OSM    H2G16012   0.807   0.280   5.649  0.0111 -1.9833  3.3546
  145OSM    C3F16013   0.736   0.493   5.627 -0.3322  0.4127 -0.0197
  145OSM    H3F16014   0.673   0.554   5.694 -0.0330 -0.4071  1.0241
  145OSM    H3G16015   0.681   0.465   5.534 -1.1948  0.1777  0.5576
  145OSM    C4F16016   0.869   0.566   5.599  0.2333 -0.5088 -0.3462
  145OSM    H4F16017   0.913   0.606   5.693  1.1290 -0.3030 -0.8418
  145OSM    H4G16018   0.858   0.657   5.537  1.2390 -0.0137  0.1816
  145OSM    C5F16019   0.974   0.491   5.526 -0.0739 -0.0225  0.0391
  145OSM    H5F16020   1.018   0.409   5.587 -1.7961  1.1269  2.9366
  145OSM    H5G16021   1.051   0.565   5.495 -0.3273  0.1658 -0.1434
  145OSM    C6F16022   0.911   0.446   5.390 -0.6816  0.2458  0.2625
  145OSM    H6F16023   0.856   0.530   5.343  2.6352  2.1177 -0.3955
  145OSM    H6G16024   0.838   0.363   5.405  0.1164 -0.1676  2.0408
  145OSM    C7F16025   1.018   0.397   5.294  0.6793 -0.0509  0.3034
  145OSM    H7F16026   0.976   0.316   5.231  1.1610  0.9556 -1.3483
  145OSM    H7G16027   1.090   0.346   5.361  0.8681 -0.7591 -0.4342
  145OSM    C8F16028   1.094   0.500   5.217  0.3366  0.1448  0.0635
  145OSM    H8F16029   1.192   0.473   5.171 -0.1667  2.7150 -2.6650
  145OSM    H8G16030   1.124   0.587   5.279  1.6394 -0.3454  0.1400
  145OSM    C9F16031   1.017   0.550   5.098  0.4111  0.3077 -0.6624
  145OSM    H9F16032   0.931   0.485   5.078  1.7408 -1.3995 -0.9433
  145OSM   C10F16033   1.048   0.653   5.021 -0.5094 -0.7970  0.4064
  145OSM   H10F16034   0.978   0.700   4.950 -3.3204 -1.8164  2.3747
  145OSM   C11F16035   1.174   0.733   5.046 -0.0481  0.3152 -0.4756
  145OSM   H11F16036   1.262   0.666   5.056 -1.9303 -2.0623  0.5612
  145OSM   H11G16037   1.169   0.809   5.126  1.6291  2.5333 -2.4180
  145OSM   C12F16038   1.221   0.805   4.914  0.8998 -0.5745  0.4960
  145OSM   H12F16039   1.195   0.743   4.826  0.0133  0.8555 -0.2552
  145OSM   H12G16040   1.328   0.837   4.919  1.2071 -1.7727  1.9943
  145OSM   C13F16041   1.142   0.933   4.908 -0.0661  0.6351  0.6315
  145OSM   H13F16042   1.183   1.019   4.965  0.8884  0.5297  0.1190
  145OSM   H13G16043   1.045   0.920   4.960 -0.8708  0.7856 -0.8112
  145OSM   C14F16044   1.131   0.985   4.762 -0.0565 -0.2959  0.3794
  145OSM   H14F16045   1.073   1.080   4.763  0.9100  0.2956  0.6771
  145OSM   H14G16046   1.069   0.915   4.701 -0.4642  0.7185 -0.3843
  145OSM   C15F16047   1.264   0.993   4.687 -0.4475 -0.1258  0.6238
  145OSM   H15F16048   1.275   0.888   4.654 -1.4360 -0.5199  1.5326
  145OSM   H15G16049   1.349   1.011   4.756  0.0997 -3.6806  0.9661
  145OSM   C16F16050   1.257   1.089   4.567 -0.5193  0.2235  0.0613
  145OSM   H16F16051   1.220   1.184   4.610 -0.6153  1.0447 -1.8002
  145OSM   H16G16052   1.179   1.058   4.494 -1.0277  1.3691  0.1021
  145OSM   C17F16053   1.397   1.118   4.503  0.0721 -0.4348 -0.6563
  145OSM   H17F16054   1.442   1.034   4.446 -0.2885  0.9778 -3.0920
  145OSM   H17G16055   1.473   1.156   4.575  0.6115 -0.6934 -1.0850
  145OSM   C18F16056   1.384   1.234   4.402 -0.0266 -0.4135  0.0361
  145OSM   H18F16057   1.487   1.246   4.361  0.8389 -0.0206  2.2793
  145OSM   H18G16058   1.337   1.328   4.438  0.0908  0.3182 -1.6327
  145OSM   H18H16059   1.332   1.200   4.310  0.1370  1.4478 -0.7768
  146OSM      N16060   7.184   0.478   6.527  0.3070 -0.1599  0.7831
  146OSM    C1516061   7.066   0.576   6.530 -0.2716 -0.7898  0.0418
  146OSM   H15A16062   7.014   0.580   6.436  1.6287 -0.5739 -1.0093
  146OSM   H15B16063   7.095   0.678   6.551  0.6691 -0.5598 -2.2241
  146OSM   H15C16064   6.996   0.550   6.609  1.1053  0.7623  1.8053
  146OSM    C1416065   7.268   0.494   6.646  0.4226 -0.5238  0.4946
  146OSM   H14A16066   7.356   0.432   6.639  0.9755  0.1460  1.5009
  146OSM   H14B16067   7.210   0.466   6.732 -0.0162  0.5372  0.5491
  146OSM   H14C16068   7.293   0.595   6.673  1.6202 -0.4738 -0.7656
  146OSM    C1316069   7.125   0.338   6.530 -0.2167 -0.1508 -0.5279
  146OSM   H13A16070   7.046   0.342   6.456  0.4763 -1.5270 -1.3509
  146OSM   H13B16071   7.078   0.318   6.626  2.4849 -0.6330  0.7364
  146OSM   H13C16072   7.195   0.265   6.495  0.4763 -0.1747  0.8642
  146OSM    C1216073   7.264   0.503   6.398 -0.9659  0.2310 -0.2336
  146OSM   H12A16074   7.283   0.608   6.387 -0.0427  0.3213  1.9122
  146OSM   H12B16075   7.204   0.463   6.317 -2.5596  0.7703  0.6672
  146OSM    C1116076   7.409   0.436   6.390 -0.3285 -0.1271 -0.3014
  146OSM   H11A16077   7.467   0.476   6.476 -0.0973  0.4529 -0.7321
  146OSM   H11B16078   7.469   0.465   6.302  0.2970  1.6023  0.6784
  146OSM      P16079   7.384   0.203   6.283 -0.1292  0.2071  0.5163
  146OSM    O1316080   7.324   0.086   6.340  0.4663  0.4723  0.6032
  146OSM    O1416081   7.314   0.266   6.167 -0.2058  0.3384 -0.6303
  146OSM    O1116082   7.534   0.172   6.241  0.0472  0.6887 -0.5073
  146OSM    O1216083   7.397   0.298   6.405  0.3048  0.4675 -0.3443
  146OSM    C1S16084   7.572   0.113   6.118 -0.2592  0.2648  0.5356
  146OSM    H1S16085   7.509   0.031   6.079  1.2771 -0.5359 -0.3353
  146OSM    H1T16086   7.672   0.064   6.124  0.1275  1.0358  0.4662
  146OSM     NF16087   7.647   0.156   5.886 -0.6954  0.7498  0.4017
  146OSM    HNF16088   7.744   0.141   5.868 -0.4014  3.0526 -0.1563
  146OSM    C2S16089   7.609   0.221   6.014  1.4132  0.6137 -0.2622
  146OSM    H2S16090   7.517   0.281   5.999  1.7483  1.2882  0.3473
  146OSM    C3S16091   7.725   0.308   6.068 -0.3464  0.2249  0.5640
  146OSM    H3S16092   7.820   0.250   6.078 -0.5194 -0.4218 -1.2329
  146OSM     O316093   7.713   0.382   6.192 -0.0554  0.7470  0.6520
  146OSM    HO316094   7.635   0.339   6.228  0.6950 -0.2636  1.0853
  146OSM    C4S16095   7.752   0.412   5.958  0.1183  0.4536 -0.3737
  146OSM    H4S16096   7.836   0.395   5.889 -0.8452 -1.2572 -1.1639
  146OSM    C5S16097   7.671   0.510   5.916  0.0812  0.2272 -0.0581
  146OSM    H5S16098   7.578   0.524   5.972  1.1500 -0.9253  2.0893
  146OSM    C6S16099   7.727   0.602   5.802 -0.3921  0.2966 -0.5283
  146OSM    H6S16100   7.834   0.624   5.822 -0.3709 -0.1743 -0.0934
  146OSM    H6T16101   7.679   0.700   5.782 -1.5388 -0.4039 -1.2425
  146OSM    C7S16102   7.722   0.532   5.659  0.1743  0.8225 -0.6802
  146OSM    H7S16103   7.752   0.426   5.670  0.0076  0.9706  1.6325
  146OSM    H7T16104   7.792   0.586   5.592 -0.7431  2.9151 -0.0013
  146OSM    C8S16105   7.585   0.544   5.584  0.4755  0.0304  0.6847
  146OSM    H8S16106   7.554   0.650   5.571  0.9474  0.0440 -0.3855
  146OSM    H8T16107   7.511   0.484   5.641 -1.0525  0.3258 -0.9678
  146OSM    C9S16108   7.591   0.485   5.442  0.6399 -0.3030  0.1513
  146OSM    H9S16109   7.488   0.472   5.403  0.7088  0.0028 -0.1293
  146OSM    H9T16110   7.640   0.385   5.447  1.5457  0.1424  0.2544
  146OSM   C10S16111   7.657   0.568   5.332 -0.1576  0.1603  0.6609
  146OSM   H10S16112   7.766   0.568   5.356 -0.0494 -2.3541  0.2877
  146OSM   H10T16113   7.618   0.672   5.336  1.5068  0.8482 -0.5436
  146OSM   C11S16114   7.642   0.517   5.190 -0.7517  0.2690 -0.0153
  146OSM   H11S16115   7.549   0.565   5.153 -1.7512 -2.8631 -1.7666
  146OSM   H11T16116   7.624   0.407   5.195  1.3239 -0.1162 -0.5027
  146OSM   C12S16117   7.765   0.531   5.096 -0.2566  0.4716  0.1323
  146OSM   H12S16118   7.853   0.479   5.139 -1.2160 -2.2727 -1.1400
  146OSM   H12T16119   7.795   0.637   5.079 -1.3098  0.5349 -1.4501
  146OSM   C13S16120   7.746   0.473   4.959 -0.2269  0.2623 -0.1990
  146OSM   H13S16121   7.642   0.462   4.921 -0.8565  3.5449  0.4604
  146OSM   H13T16122   7.800   0.377   4.945 -2.6007 -0.9762 -1.1862
  146OSM   C14S16123   7.811   0.564   4.851  0.2487  0.2314  0.0637
  146OSM   H14S16124   7.919   0.582   4.871  0.0611  1.3429  0.1228
  146OSM   H14T16125   7.758   0.661   4.862 -1.2030 -0.2959 -2.0737
  146OSM   C15S16126   7.793   0.514   4.711 -0.3424  0.0643 -0.5331
  146OSM   H15S16127   7.685   0.526   4.688 -0.4461  0.5485  0.2032
  146OSM   H15T16128   7.804   0.403   4.705  1.2259  0.1112  0.9067
  146OSM   C16S16129   7.886   0.589   4.608  0.5939 -0.7770  0.0467
  146OSM   H16S16130   7.988   0.594   4.651  0.8868 -0.1696 -0.7162
  146OSM   H16T16131   7.844   0.692   4.604  0.1942 -0.8880  1.2358
  146OSM   C17S16132   7.900   0.536   4.468 -0.6279  0.7701 -0.3140
  146OSM   H17S16133   7.904   0.425   4.470  0.4542  0.8310  1.5677
  146OSM   H17T16134   7.991   0.584   4.426 -0.1804  0.1173 -0.0873
  146OSM   C18S16135   7.784   0.580   4.387 -0.1045  0.0206 -0.0871
  146OSM   H18S16136   7.782   0.524   4.291 -1.1178 -1.3192  0.6945
  146OSM   H18T16137   7.814   0.684   4.362 -1.8428  1.0857  2.0650
  146OSM   H18U16138   7.687   0.577   4.441  0.2214 -0.8683  0.4628
  146OSM    C1F16139   7.554   0.096   5.810 -0.5367  0.4660 -1.0332
  146OSM     OF16140   7.434   0.110   5.840 -0.2205  0.2016 -0.0175
  146OSM    C2F16141   7.592   0.023   5.677  0.5936 -0.3136 -0.5542
  146OSM    H2F16142   7.559  -0.083   5.688  0.7891 -0.4104 -0.9041
  146OSM    H2G16143   7.702   0.027   5.668  0.9686  0.5782  3.5726
  146OSM    C3F16144   7.521   0.077   5.555 -1.4604  0.4095 -0.0639
  146OSM    H3F16145   7.546   0.185   5.545  0.8159  0.1563  2.3130
  146OSM    H3G16146   7.411   0.073   5.570 -1.6535  3.8169 -0.0667
  146OSM    C4F16147   7.567   0.017   5.421 -0.6193 -0.0839  0.2479
  146OSM    H4F16148   7.535   0.082   5.336 -1.0482 -1.0069 -0.2964
  146OSM    H4G16149   7.521  -0.083   5.428 -0.8086  0.0708  1.3606
  146OSM    C5F16150   7.722   0.017   5.389  0.1808  0.3579  0.4029
  146OSM    H5F16151   7.730  -0.022   5.286  0.6994  0.5777  0.3616
  146OSM    H5G16152   7.779  -0.051   5.455  0.2382  0.6835  0.6953
  146OSM    C6F16153   7.797   0.151   5.388 -0.0574 -0.6684 -0.1330
  146OSM    H6F16154   7.783   0.200   5.486 -0.1657  1.1273 -1.0364
  146OSM    H6G16155   7.756   0.217   5.309 -0.2607  1.8606  2.0418
  146OSM    C7F16156   7.951   0.138   5.362  0.2787 -0.1750  0.0955
  146OSM    H7F16157   8.014   0.086   5.437  1.8619 -0.3951 -1.3635
  146OSM    H7G16158   7.986   0.243   5.357  1.1924 -0.4795 -0.1267
  146OSM    C8F16159   7.979   0.088   5.216 -0.6539  0.4489  0.3001
  146OSM    H8F16160   7.925   0.158   5.149  1.0437  2.0076  0.5076
  146OSM    H8G16161   7.928  -0.011   5.213  0.5344 -0.1630 -0.3971
  146OSM    C9F16162   8.120   0.085   5.180 -0.4007 -0.0523  0.2885
  146OSM    H9F16163   8.193   0.039   5.249 -0.4116  0.4883  0.6699
  146OSM   C10F16164   8.179   0.157   5.087 -0.3573  0.1080 -0.3906
  146OSM   H10F16165   8.289   0.152   5.082 -0.2625  1.0808  0.6037
  146OSM   C11F16166   8.112   0.252   4.986 -0.1198  0.2476 -0.4812
  146OSM   H11F16167   8.113   0.356   5.025 -0.4614 -0.2814  1.0075
  146OSM   H11G16168   8.004   0.224   4.979 -0.5883  1.7816  0.3638
  146OSM   C12F16169   8.177   0.245   4.845 -0.3926 -1.2130 -1.0198
  146OSM   H12F16170   8.286   0.262   4.858 -0.3994  0.2340 -2.7134
  146OSM   H12G16171   8.133   0.328   4.787  0.5510 -1.2390 -1.7987
  146OSM   C13F16172   8.154   0.108   4.779  0.2273 -0.1765  0.1120
  146OSM   H13F16173   8.045   0.091   4.771  0.4191 -1.9418  0.8625
  146OSM   H13G16174   8.191   0.029   4.848  0.1287 -0.7920 -0.5247
  146OSM   C14F16175   8.221   0.081   4.637  0.7585  0.3184  0.8870
  146OSM   H14F16176   8.326   0.048   4.649  1.1010  1.6484  1.7298
  146OSM   H14G16177   8.164   0.005   4.581  1.6874  0.9406 -0.9253
  146OSM   C15F16178   8.206   0.210   4.553 -0.2933 -0.5214  0.4052
  146OSM   H15F16179   8.262   0.292   4.603 -0.4371 -1.0507  1.4353
  146OSM   H15G16180   8.099   0.238   4.552  0.2909  1.9298  1.4843
  146OSM   C16F16181   8.246   0.195   4.402  0.0878  0.8835 -0.0938
  146OSM   H16F16182   8.219   0.094   4.366  0.1360  0.4207  1.1462
  146OSM   H16G16183   8.357   0.200   4.401  0.3339  2.2370  6.4247
  146OSM   C17F16184   8.190   0.293   4.303 -0.5185 -0.1644 -0.0020
  146OSM   H17F16185   8.214   0.396   4.339  0.0989 -0.2505 -0.1626
  146OSM   H17G16186   8.079   0.288   4.308 -0.5375 -0.3548 -0.6334
  146OSM   C18F16187   8.237   0.275   4.151 -0.6482 -0.3238  0.0383
  146OSM   H18F16188   8.346   0.257   4.139 -0.2846  2.1860 -0.6771
  146OSM   H18G16189   8.215   0.373   4.104 -0.0563  0.4162  1.2536
  146OSM   H18H16190   8.182   0.192   4.103 -0.5267 -0.1480 -0.4066
  147OSM      N16191   3.900   4.197   2.376  0.2998 -0.3773  0.2026
  147OSM    C1516192   3.893   4.078   2.281 -0.0963 -0.2487  0.3302
  147OSM   H15A16193   3.964   4.091   2.201 -1.3018  0.3700 -0.6657
  147OSM   H15B16194   3.796   4.079   2.233  0.1940  2.6292 -0.3007
  147OSM   H15C16195   3.911   3.986   2.334 -0.7885  0.4725  1.8276
  147OSM    C1416196   3.816   4.160   2.496  0.6959 -1.0181  0.2333
  147OSM   H14A16197   3.714   4.161   2.460  0.7577 -2.2973  0.0035
  147OSM   H14B16198   3.823   4.235   2.574 -0.8146 -2.1706  1.4990
  147OSM   H14C16199   3.843   4.065   2.539  0.5933 -0.6091  1.2166
  147OSM    C1316200   4.045   4.202   2.407 -0.3360  0.1458  0.1183
  147OSM   H13A16201   4.110   4.237   2.329  0.6477  1.2257  1.3896
  147OSM   H13B16202   4.071   4.101   2.436 -0.0394  0.5176  1.1876
  147OSM   H13C16203   4.060   4.263   2.495 -0.7089 -0.0516  0.3202
  147OSM    C1216204   3.854   4.316   2.296  0.5289 -0.0743  0.6949
  147OSM   H12A16205   3.898   4.329   2.198  1.2215 -1.5163  0.8064
  147OSM   H12B16206   3.880   4.404   2.353  0.8222  1.1975 -1.3682
  147OSM    C1116207   3.705   4.317   2.267  0.3236 -0.1025 -0.1898
  147OSM   H11A16208   3.679   4.415   2.222  3.3084  1.7500  2.0295
  147OSM   H11B16209   3.646   4.321   2.361  0.9122 -1.1020  0.2320
  147OSM      P16210   3.511   4.154   2.191  0.2877 -0.1534 -0.2151
  147OSM    O1316211   3.405   4.250   2.137  0.1010  0.2382  0.3037
  147OSM    O1416212   3.502   4.021   2.131  0.3596 -0.3166  0.0049
  147OSM    O1116213   3.481   4.130   2.339  0.5708  0.2431  0.0980
  147OSM    O1216214   3.659   4.211   2.181 -0.2774  0.4476  0.5351
  147OSM    C1S16215   3.470   3.998   2.394 -0.2635 -0.6408 -0.7252
  147OSM    H1S16216   3.557   3.943   2.354  0.6236  0.5464 -0.4657
  147OSM    H1T16217   3.372   3.958   2.360  0.9366 -3.1141 -1.3285
  147OSM     NF16218   3.494   3.880   2.607  0.0712 -0.0961 -0.2190
  147OSM    HNF16219   3.417   3.818   2.619 -0.2078  0.4040  0.6496
  147OSM    C2S16220   3.463   4.013   2.551 -0.6379 -1.1845  0.1756
  147OSM    H2S16221   3.542   4.087   2.576 -1.0664 -0.9198  0.7643
  147OSM    C3S16222   3.328   4.076   2.587  0.4000  0.3979  0.4404
  147OSM    H3S16223   3.257   3.992   2.576  1.2438 -0.3698  0.7504
  147OSM     O316224   3.285   4.190   2.517 -0.4507 -0.7693 -0.3214
  147OSM    HO316225   3.350   4.197   2.447  2.9091 -0.2471  2.7029
  147OSM    C4S16226   3.325   4.109   2.735  0.1378 -0.5137 -0.4027
  147OSM    H4S16227   3.407   4.171   2.773  0.0674 -0.2407 -0.6975
  147OSM    C5S16228   3.242   4.052   2.825  0.5474  0.6388  0.1518
  147OSM    H5S16229   3.167   3.975   2.801 -0.8483  0.6034  4.2774
  147OSM    C6S16230   3.243   4.102   2.967 -0.4154 -0.0591  0.6720
  147OSM    H6S16231   3.178   4.030   3.021 -1.6437  1.2435  0.9772
  147OSM    H6T16232   3.209   4.208   2.963  1.2218  0.5114  1.5566
  147OSM    C7S16233   3.379   4.107   3.040  0.7247 -0.7911 -0.1615
  147OSM    H7S16234   3.445   4.174   2.981  0.1455 -2.9913 -3.4062
  147OSM    H7T16235   3.421   4.005   3.038 -0.8710 -1.4449 -1.2858
  147OSM    C8S16236   3.375   4.128   3.193 -0.2727 -0.0383 -0.1348
  147OSM    H8S16237   3.303   4.051   3.228  0.1242 -0.6601 -0.6698
  147OSM    H8T16238   3.331   4.224   3.226  0.5144  0.6450 -1.0463
  147OSM    C9S16239   3.515   4.119   3.262 -0.5195 -0.0949  0.2595
  147OSM    H9S16240   3.569   4.213   3.236  0.3120 -0.9670 -1.2055
  147OSM    H9T16241   3.563   4.021   3.245 -1.4804 -0.6823  0.9375
  147OSM   C10S16242   3.487   4.118   3.410 -0.4955  0.3795 -0.2913
  147OSM   H10S16243   3.428   4.028   3.435  3.3085 -1.1956  3.7613
  147OSM   H10T16244   3.423   4.203   3.441  0.2942  0.5083  1.0515
  147OSM   C11S16245   3.612   4.135   3.501  0.6010 -0.4856  0.1675
  147OSM   H11S16246   3.649   4.239   3.494  1.0317 -0.5870  0.8742
  147OSM   H11T16247   3.691   4.072   3.455  0.1061 -0.0059 -1.3615
  147OSM   C12S16248   3.604   4.086   3.646  0.3410  0.6641 -0.0886
  147OSM   H12S16249   3.556   4.166   3.707 -2.1560 -1.4717  0.8235
  147OSM   H12T16250   3.707   4.062   3.680  0.3172 -2.0765 -1.8549
  147OSM   C13S16251   3.516   3.959   3.670 -0.2186  0.5430  0.6110
  147OSM   H13S16252   3.561   3.885   3.601  2.6458  2.4001  0.4314
  147OSM   H13T16253   3.408   3.982   3.652  0.5459  2.7087 -1.5408
  147OSM   C14S16254   3.520   3.897   3.812 -0.2917  0.6246  0.2821
  147OSM   H14S16255   3.497   3.970   3.892 -1.7600 -1.3802  1.7485
  147OSM   H14T16256   3.626   3.863   3.820 -0.1827  0.4796 -1.5798
  147OSM   C15S16257   3.428   3.778   3.840  0.8498 -0.6099 -0.0706
  147OSM   H15S16258   3.425   3.721   3.744 -0.6101  0.5158 -0.7106
  147OSM   H15T16259   3.323   3.804   3.866  0.0934 -0.2340 -3.2979
  147OSM   C16S16260   3.494   3.677   3.940 -0.5028  0.1140 -0.1396
  147OSM   H16S16261   3.589   3.625   3.914 -0.4675 -0.3693  0.9306
  147OSM   H16T16262   3.420   3.595   3.953 -2.2667  1.8078  0.7287
  147OSM   C17S16263   3.509   3.740   4.081 -0.3478  0.6738 -0.3818
  147OSM   H17S16264   3.452   3.669   4.144  0.4153  0.4198  0.0261
  147OSM   H17T16265   3.465   3.842   4.087  1.6650  1.6403 -1.3501
  147OSM   C18S16266   3.652   3.744   4.125 -0.7830  0.2018  0.0123
  147OSM   H18S16267   3.699   3.816   4.056 -0.8747  1.9856  1.7768
  147OSM   H18T16268   3.725   3.661   4.124  0.8843  1.6434  0.4017
  147OSM   H18U16269   3.647   3.787   4.228  0.2774 -0.6798  0.4415
  147OSM    C1F16270   3.611   3.818   2.598  0.2488 -0.2315  0.3881
  147OSM     OF16271   3.700   3.881   2.548 -0.2007 -0.3467 -0.0591
  147OSM    C2F16272   3.614   3.676   2.645 -0.9711  0.2683 -1.1657
  147OSM    H2F16273   3.688   3.618   2.585 -0.7284 -2.6277  1.8123
  147OSM    H2G16274   3.512   3.640   2.621 -0.8693 -1.0261  0.2567
  147OSM    C3F16275   3.646   3.661   2.792 -0.6950 -0.5961  0.2776
  147OSM    H3F16276   3.703   3.744   2.838  1.3031 -1.6071 -0.3247
  147OSM    H3G16277   3.703   3.569   2.818  2.1303  1.1023  0.2476
  147OSM    C4F16278   3.512   3.667   2.875  0.0024  0.1298  0.3534
  147OSM    H4F16279   3.457   3.570   2.867  1.8893 -0.9795  0.4037
  147OSM    H4G16280   3.450   3.749   2.834  0.5491  0.5494  0.3580
  147OSM    C5F16281   3.551   3.693   3.013 -0.4462  0.1726 -0.0059
  147OSM    H5F16282   3.585   3.798   3.026  2.0134 -0.3778 -1.8219
  147OSM    H5G16283   3.631   3.629   3.054 -1.6126  0.7267  3.3091
  147OSM    C6F16284   3.436   3.686   3.119  0.1928 -0.1231 -0.2243
  147OSM    H6F16285   3.388   3.586   3.108 -3.4641  1.4129  0.8160
  147OSM    H6G16286   3.366   3.771   3.106  1.5990  0.4451 -4.8917
  147OSM    C7F16287   3.485   3.692   3.272 -0.2591 -0.0165  0.6441
  147OSM    H7F16288   3.560   3.773   3.276 -0.2018 -0.1426  2.1971
  147OSM    H7G16289   3.539   3.600   3.302  1.9985  1.4399  1.1754
  147OSM    C8F16290   3.373   3.725   3.370 -0.3953 -1.0203  0.1068
  147OSM    H8F16291   3.324   3.819   3.337  1.5273 -0.5056 -1.3318
  147OSM    H8G16292   3.418   3.743   3.470  2.2534 -0.5230 -1.1609
  147OSM    C9F16293   3.288   3.601   3.386  0.4534  0.1832 -0.0586
  147OSM    H9F16294   3.297   3.516   3.316 -0.0555  1.1924 -1.3634
  147OSM   C10F16295   3.199   3.590   3.480  0.6087 -0.0105 -0.3485
  147OSM   H10F16296   3.154   3.492   3.499 -0.6183  0.6167 -0.0053
  147OSM   C11F16297   3.166   3.700   3.585 -0.5863  0.1803 -0.6559
  147OSM   H11F16298   3.232   3.789   3.570  0.6144 -1.1667 -3.9100
  147OSM   H11G16299   3.190   3.655   3.683  1.6657  2.3496 -0.1656
  147OSM   C12F16300   3.029   3.762   3.579 -0.3551  0.3988  0.3783
  147OSM   H12F16301   2.954   3.689   3.541 -1.7542  1.6775  0.6217
  147OSM   H12G16302   3.037   3.841   3.502  0.3317 -0.7897 -0.8013
  147OSM   C13F16303   2.992   3.816   3.721 -0.3209 -0.7594  0.2830
  147OSM   H13F16304   3.077   3.884   3.745  1.7615 -2.5621 -1.7345
  147OSM   H13G16305   3.003   3.732   3.793 -3.4652  1.5186  3.5801
  147OSM   C14F16306   2.856   3.881   3.710 -0.9459 -0.9417  0.2851
  147OSM   H14F16307   2.795   3.790   3.688 -0.4215 -0.8827 -1.4618
  147OSM   H14G16308   2.851   3.946   3.620  3.3141 -0.7549  0.1143
  147OSM   C15F16309   2.807   3.956   3.832 -0.3695  1.2090 -0.7999
  147OSM   H15F16310   2.765   3.888   3.910 -0.3878  0.3771 -1.5339
  147OSM   H15G16311   2.715   4.009   3.797 -0.0210  0.4689 -2.8772
  147OSM   C16F16312   2.917   4.052   3.892  0.3832  0.3747 -0.2137
  147OSM   H16F16313   2.968   4.111   3.812 -0.2126 -0.7239 -1.4148
  147OSM   H16G16314   2.996   3.995   3.945 -1.0374 -0.4261  1.0491
  147OSM   C17F16315   2.856   4.151   3.992 -0.2428 -0.1106 -0.1192
  147OSM   H17F16316   2.770   4.201   3.943  1.7098  0.6339 -2.9130
  147OSM   H17G16317   2.917   4.240   4.018  0.8987 -1.0416  0.4544
  147OSM   C18F16318   2.823   4.085   4.122 -0.0326  0.2390  0.2491
  147OSM   H18F16319   2.769   4.165   4.177 -0.8519 -0.4178  0.4065
  147OSM   H18G16320   2.918   4.063   4.177 -0.3283  0.7853  0.9909
  147OSM   H18H16321   2.764   3.992   4.108  1.5936 -0.6424 -0.9908
  148OSM      N16322   3.711   2.733   2.043 -0.4683  0.2928  1.2284
  148OSM    C1516323   3.836   2.666   2.091  0.1073  0.0547  0.7196
  148OSM   H15A16324   3.846   2.686   2.196  0.2360  4.1561 -0.0089
  148OSM   H15B16325   3.923   2.688   2.030 -0.9664  0.3188 -0.7435
  148OSM   H15C16326   3.821   2.559   2.085 -1.1587  0.2134  0.9063
  148OSM    C1416327   3.744   2.881   2.027 -0.1933  0.2616 -0.3735
  148OSM   H14A16328   3.650   2.934   2.019 -1.5225 -2.0151 -0.3231
  148OSM   H14B16329   3.806   2.900   1.941 -0.1011  0.9545 -0.1532
  148OSM   H14C16330   3.801   2.913   2.113  1.2396  0.8453 -1.5252
  148OSM    C1316331   3.673   2.691   1.906 -0.6592  0.8084  1.2354
  148OSM   H13A16332   3.754   2.693   1.834 -0.9836  1.4268  0.8796
  148OSM   H13B16333   3.594   2.753   1.867  0.6226  1.6928 -0.0297
  148OSM   H13C16334   3.634   2.591   1.900  1.2752  0.0892  0.0049
  148OSM    C1216335   3.600   2.718   2.139  0.1713 -0.0725  0.4087
  148OSM   H12A16336   3.625   2.764   2.233  0.4557 -0.2027  0.3959
  148OSM   H12B16337   3.589   2.612   2.157  2.9863 -0.6596 -1.1290
  148OSM    C1116338   3.463   2.768   2.095  0.2434 -0.3668  0.5476
  148OSM   H11A16339   3.393   2.726   2.170  1.9108 -2.7577  0.8066
  148OSM   H11B16340   3.429   2.731   1.996  1.1416  1.4747 -0.4873
  148OSM      P16341   3.420   3.011   2.208 -0.1981  0.4079 -0.3848
  148OSM    O1316342   3.510   3.005   2.326 -0.0565  0.2734 -0.0763
  148OSM    O1416343   3.381   3.141   2.149  0.1245  0.4779 -0.1741
  148OSM    O1116344   3.279   2.951   2.254 -0.0484  0.3630  0.2954
  148OSM    O1216345   3.466   2.911   2.098 -0.2047 -0.3426 -1.0759
  148OSM    C1S16346   3.221   2.984   2.379  0.1144 -0.3026 -0.5568
  148OSM    H1S16347   3.224   3.092   2.404 -0.2160 -0.8997  2.1433
  148OSM    H1T16348   3.280   2.932   2.457  0.7252 -0.2413 -0.9768
  148OSM     NF16349   3.041   2.914   2.529 -0.0737 -0.0517 -0.2476
  148OSM    HNF16350   3.035   2.823   2.570  3.0121 -0.7968 -1.3178
  148OSM    C2S16351   3.070   2.934   2.391 -0.0920 -0.6509  0.7837
  148OSM    H2S16352   2.993   3.005   2.354  1.0827  0.4915  0.4920
  148OSM    C3S16353   3.060   2.797   2.311 -0.9200 -0.4090 -0.6750
  148OSM    H3S16354   3.147   2.739   2.347 -0.9679  0.1903  0.4411
  148OSM     O316355   3.053   2.804   2.167 -0.7414 -0.7673  0.0133
  148OSM    HO316356   3.107   2.882   2.151 -0.9322 -0.7809 -0.7239
  148OSM    C4S16357   2.933   2.737   2.354 -0.6063  0.3723 -0.1358
  148OSM    H4S16358   2.843   2.793   2.327 -1.1098 -1.3506 -2.1520
  148OSM    C5S16359   2.929   2.616   2.417  0.1562  0.2616 -0.6639
  148OSM    H5S16360   3.024   2.567   2.443  0.5364 -0.1922 -2.7629
  148OSM    C6S16361   2.812   2.548   2.466  0.6633 -0.2817 -0.1240
  148OSM    H6S16362   2.780   2.458   2.410 -0.6066 -1.0039  1.6856
  148OSM    H6T16363   2.719   2.607   2.453 -0.1514 -1.6496 -0.5557
  148OSM    C7S16364   2.826   2.509   2.618 -0.8805 -0.0472  0.2550
  148OSM    H7S16365   2.845   2.595   2.686 -1.5531 -0.8544  1.4780
  148OSM    H7T16366   2.917   2.445   2.625 -0.1126  0.7562 -2.0151
  148OSM    C8S16367   2.697   2.449   2.673 -0.0615 -0.2215  0.5292
  148OSM    H8S16368   2.678   2.346   2.636 -0.9652 -0.5496  1.8905
  148OSM    H8T16369   2.611   2.516   2.651 -1.5162 -2.2735 -0.1270
  148OSM    C9S16370   2.722   2.424   2.819 -0.2025 -0.1901 -0.0969
  148OSM    H9S16371   2.624   2.382   2.850  0.5049  0.3341  3.1143
  148OSM    H9T16372   2.727   2.519   2.877 -3.1538  0.2572 -0.5236
  148OSM   C10S16373   2.840   2.336   2.875  0.2974 -0.4129  0.6632
  148OSM   H10S16374   2.935   2.352   2.820  0.4185 -1.1745  0.6469
  148OSM   H10T16375   2.819   2.230   2.851  0.2295  0.3471 -3.0909
  148OSM   C11S16376   2.858   2.353   3.025  0.4029  0.6513 -0.1201
  148OSM   H11S16377   2.864   2.457   3.065  4.2002  0.5964 -0.2835
  148OSM   H11T16378   2.963   2.319   3.038 -0.1244 -1.6308 -1.6194
  148OSM   C12S16379   2.764   2.262   3.097  0.7142  0.1391  0.3630
  148OSM   H12S16380   2.803   2.159   3.085  0.8614  0.2277  0.0898
  148OSM   H12T16381   2.661   2.269   3.056  0.7800 -0.6235  0.0521
  148OSM   C13S16382   2.739   2.297   3.246  0.1238  0.1473  0.6044
  148OSM   H13S16383   2.687   2.394   3.262  2.4124  1.3953  0.6427
  148OSM   H13T16384   2.845   2.303   3.279  0.1393 -0.1371  0.6078
  148OSM   C14S16385   2.652   2.192   3.314 -0.7840  0.0100  0.0714
  148OSM   H14S16386   2.702   2.092   3.312 -0.0988  0.3327  0.7194
  148OSM   H14T16387   2.553   2.184   3.265 -1.9348  1.2404  2.1589
  148OSM   C15S16388   2.632   2.242   3.450  0.2648 -0.4822 -0.1447
  148OSM   H15S16389   2.544   2.190   3.494  0.0120  1.5485  1.8367
  148OSM   H15T16390   2.621   2.352   3.459  1.0565 -0.3660 -0.5257
  148OSM   C16S16391   2.755   2.208   3.549  0.0616 -0.0861 -0.2932
  148OSM   H16S16392   2.849   2.247   3.504  0.3151  0.0139  0.3157
  148OSM   H16T16393   2.761   2.098   3.562  0.2776 -0.0234  0.1512
  148OSM   C17S16394   2.740   2.269   3.686 -0.0927  0.1033  0.7981
  148OSM   H17S16395   2.640   2.262   3.733 -0.4185 -1.2210 -0.0556
  148OSM   H17T16396   2.755   2.377   3.668  2.0108 -0.5512 -1.7249
  148OSM   C18S16397   2.851   2.221   3.775  0.5939 -0.0386 -0.1161
  148OSM   H18S16398   2.847   2.269   3.875  1.3090 -2.2130  0.9927
  148OSM   H18T16399   2.951   2.234   3.729  1.0673  1.2243  1.2487
  148OSM   H18U16400   2.833   2.114   3.797 -0.4026 -0.0442 -0.8935
  148OSM    C1F16401   3.028   3.028   2.601 -0.4351 -0.4456  0.1810
  148OSM     OF16402   3.033   3.137   2.546  0.3867  0.1795  0.4990
  148OSM    C2F16403   3.037   3.020   2.749 -0.3832 -0.2280 -0.1745
  148OSM    H2F16404   3.132   2.969   2.777  0.9575  0.0554 -3.9233
  148OSM    H2G16405   2.957   2.949   2.781 -0.1057 -0.6409 -0.3971
  148OSM    C3F16406   3.033   3.159   2.829 -0.0405 -0.5950 -0.5555
  148OSM    H3F16407   2.944   3.221   2.806 -2.1336 -2.4449  2.1664
  148OSM    H3G16408   3.119   3.224   2.803  0.0632 -1.2350 -1.8773
  148OSM    C4F16409   3.036   3.136   2.979 -0.0201  0.9039  0.0653
  148OSM    H4F16410   3.131   3.088   3.012 -1.1409 -1.2924  0.2329
  148OSM    H4G16411   2.952   3.072   3.012 -0.4718  2.1938  1.4560
  148OSM    C5F16412   3.007   3.254   3.075 -0.3208 -0.6054  0.1201
  148OSM    H5F16413   2.923   3.316   3.037 -3.2242 -3.5302  1.4753
  148OSM    H5G16414   3.097   3.318   3.090 -3.0181  2.8954  2.1487
  148OSM    C6F16415   2.986   3.205   3.218  0.1954 -0.0576  0.8400
  148OSM    H6F16416   3.087   3.182   3.257  0.2555 -0.5710  0.3814
  148OSM    H6G16417   2.911   3.124   3.230  0.2460 -0.0195  1.4199
  148OSM    C7F16418   2.940   3.313   3.320  0.4526 -0.6456 -0.2132
  148OSM    H7F16419   2.839   3.349   3.290 -0.3435 -4.7899 -2.8651
  148OSM    H7G16420   3.009   3.400   3.318  0.0315 -0.3181 -0.5462
  148OSM    C8F16421   2.923   3.261   3.472 -0.2203 -0.1083  0.5216
  148OSM    H8F16422   3.025   3.235   3.507 -0.6396 -1.1721  0.9697
  148OSM    H8G16423   2.874   3.161   3.474  0.4801 -0.5553 -2.4069
  148OSM    C9F16424   2.869   3.363   3.572 -0.1689  0.3246 -0.1838
  148OSM    H9F16425   2.783   3.423   3.537  0.2639  0.3868 -1.1592
  148OSM   C10F16426   2.905   3.369   3.700 -0.7398 -0.0353  0.3157
  148OSM   H10F16427   2.843   3.432   3.765 -1.3112 -0.2974  0.0330
  148OSM   C11F16428   3.002   3.283   3.772 -0.1018  0.3310 -0.3488
  148OSM   H11F16429   3.087   3.351   3.794 -1.5867  1.4791  1.9777
  148OSM   H11G16430   3.034   3.199   3.707 -1.2926 -1.2355  1.0391
  148OSM   C12F16431   2.948   3.219   3.899  0.4606  0.6627 -0.7950
  148OSM   H12F16432   2.891   3.133   3.859  0.7680  0.1393 -0.1056
  148OSM   H12G16433   2.882   3.291   3.953  1.2417  0.6131  0.2367
  148OSM   C13F16434   3.058   3.179   4.011 -0.1929 -0.3070 -0.3671
  148OSM   H13F16435   3.095   3.270   4.064  0.2555 -1.6768  1.7405
  148OSM   H13G16436   3.143   3.141   3.951 -0.0289 -0.0473 -0.3017
  148OSM   C14F16437   3.007   3.074   4.115 -0.2239  0.0017 -0.1462
  148OSM   H14F16438   3.098   3.016   4.140 -0.7895 -1.4846 -1.4889
  148OSM   H14G16439   2.951   3.000   4.054 -2.6445  0.9451  0.8862
  148OSM   C15F16440   2.908   3.115   4.227  0.6252 -0.0536  0.8057
  148OSM   H15F16441   2.887   3.028   4.292  0.1336  0.3900  1.2428
  148OSM   H15G16442   2.811   3.153   4.187 -0.5554 -2.6492  1.1493
  148OSM   C16F16443   2.959   3.236   4.317 -0.1115 -0.2616 -0.1618
  148OSM   H16F16444   2.991   3.313   4.244 -1.7749 -0.1848 -0.8417
  148OSM   H16G16445   3.044   3.196   4.376 -0.1243 -0.3821 -0.2244
  148OSM   C17F16446   2.868   3.287   4.420 -0.3644  0.5705  0.6302
  148OSM   H17F16447   2.841   3.204   4.488 -0.6124  0.1616  0.0396
  148OSM   H17G16448   2.779   3.322   4.363 -0.2650 -0.6612 -0.3069
  148OSM   C18F16449   2.924   3.409   4.495 -0.1737  0.5978  0.3510
  148OSM   H18F16450   3.021   3.390   4.547  0.0859 -0.2206 -0.4271
  148OSM   H18G16451   2.850   3.456   4.563  0.0871  2.3242 -0.5389
  148OSM   H18H16452   2.943   3.496   4.428 -0.5542  0.3345 -0.0934
  149OSM      N16453   4.518   2.405   1.869 -0.3306 -1.1025  0.9524
  149OSM    C1516454   4.620   2.381   1.977  0.2045 -0.7901 -0.2029
  149OSM   H15A16455   4.575   2.359   2.072 -1.1083 -1.2404 -0.9048
  149OSM   H15B16456   4.674   2.474   1.984 -0.6928 -0.2365 -0.5267
  149OSM   H15C16457   4.686   2.303   1.944  1.6595  0.1058  0.5536
  149OSM    C1416458   4.459   2.543   1.890 -0.1944  0.2369 -0.2327
  149OSM   H14A16459   4.530   2.608   1.938 -0.2477  0.3075 -0.2485
  149OSM   H14B16460   4.373   2.525   1.954 -0.2554  1.3319 -0.0075
  149OSM   H14C16461   4.435   2.593   1.797  1.9472  1.1245 -0.3358
  149OSM    C1316462   4.587   2.404   1.745  0.2735 -0.0692  0.8824
  149OSM   H13A16463   4.520   2.424   1.663  0.2190 -1.2132  0.6305
  149OSM   H13B16464   4.628   2.305   1.729 -1.0735 -0.6631  1.0455
  149OSM   H13C16465   4.675   2.465   1.741  1.8410 -2.1054  2.8221
  149OSM    C1216466   4.400   2.296   1.878 -0.2004 -0.0706  1.1204
  149OSM   H12A16467   4.433   2.200   1.842 -0.6651 -0.1131  0.8130
  149OSM   H12B16468   4.316   2.334   1.822  0.8057  1.0240  0.3158
  149OSM    C1116469   4.343   2.268   2.018 -0.0168  0.3584 -0.3184
  149OSM   H11A16470   4.419   2.209   2.072 -0.4315 -0.2356 -0.3747
  149OSM   H11B16471   4.254   2.203   2.003 -0.4725  0.4462  1.8980
  149OSM      P16472   4.333   2.412   2.235 -0.2735 -0.2163  0.3155
  149OSM    O1316473   4.336   2.558   2.266  0.3927  0.0861 -0.3808
  149OSM    O1416474   4.231   2.338   2.313 -0.1419  0.1728 -0.2124
  149OSM    O1116475   4.472   2.345   2.252 -0.0472  0.4266 -0.3131
  149OSM    O1216476   4.303   2.396   2.081 -0.0675 -0.1206 -0.3520
  149OSM    C1S16477   4.540   2.384   2.376 -0.1789 -0.1262  0.5955
  149OSM    H1S16478   4.522   2.481   2.427 -0.6954 -0.0911  0.3560
  149OSM    H1T16479   4.649   2.389   2.359 -0.0175  1.8688  2.0714
  149OSM     NF16480   4.622   2.319   2.594  0.9067 -0.0642 -0.2070
  149OSM    HNF16481   4.713   2.282   2.611  0.2179 -1.1934  1.0528
  149OSM    C2S16482   4.547   2.265   2.482  0.2470  0.1858 -0.0325
  149OSM    H2S16483   4.445   2.233   2.511 -0.8990  3.8571  0.2839
  149OSM    C3S16484   4.622   2.135   2.421  0.1077  0.0331 -0.2559
  149OSM    H3S16485   4.730   2.158   2.412 -0.0713  1.4641  1.0536
  149OSM     O316486   4.573   2.093   2.295  0.5727 -0.1885 -0.8557
  149OSM    HO316487   4.552   2.175   2.249  0.3925  0.5297  0.4688
  149OSM    C4S16488   4.612   2.029   2.529 -0.4534 -0.0686 -0.5991
  149OSM    H4S16489   4.701   2.021   2.593 -0.5726 -1.6556 -0.6210
  149OSM    C5S16490   4.514   1.949   2.563  0.7786 -0.6845 -0.1977
  149OSM    H5S16491   4.415   1.962   2.517  1.3284  0.4581 -1.0877
  149OSM    C6S16492   4.525   1.851   2.676 -0.3152 -0.7705  0.3559
  149OSM    H6S16493   4.631   1.815   2.673  0.3340  1.1788 -0.7010
  149OSM    H6T16494   4.464   1.760   2.659 -0.2245 -0.8476  0.4433
  149OSM    C7S16495   4.489   1.918   2.819 -0.1658  0.4623 -0.4369
  149OSM    H7S16496   4.389   1.966   2.810  0.3209  2.3882  3.1498
  149OSM    H7T16497   4.562   1.998   2.847 -0.2169  0.4110 -0.1504
  149OSM    C8S16498   4.498   1.807   2.928  0.4444 -0.3134 -1.1059
  149OSM    H8S16499   4.583   1.738   2.906  1.2933 -0.0742  1.2597
  149OSM    H8T16500   4.403   1.750   2.925  0.8521 -1.1339  0.8993
  149OSM    C9S16501   4.512   1.860   3.069 -0.8814 -0.7961  0.2535
  149OSM    H9S16502   4.420   1.918   3.091 -0.4613 -0.5118  1.3306
  149OSM    H9T16503   4.598   1.930   3.073 -1.9348  0.5119  0.3295
  149OSM   C10S16504   4.540   1.750   3.169  0.2020 -0.7263  0.4267
  149OSM   H10S16505   4.620   1.682   3.131  0.2212 -1.8321  2.4046
  149OSM   H10T16506   4.452   1.683   3.170  0.4112 -1.0772 -1.4109
  149OSM   C11S16507   4.585   1.801   3.304  0.1865 -0.2482 -0.7892
  149OSM   H11S16508   4.503   1.855   3.355  1.4713  0.9314  0.0573
  149OSM   H11T16509   4.672   1.869   3.296  1.1201 -1.0231  2.0878
  149OSM   C12S16510   4.621   1.687   3.404  0.5309 -0.5581  0.0902
  149OSM   H12S16511   4.697   1.627   3.349  0.7587 -0.3359  0.1613
  149OSM   H12T16512   4.524   1.637   3.422  0.6199 -0.7503  0.0443
  149OSM   C13S16513   4.696   1.734   3.523 -0.2811 -0.2417 -0.1937
  149OSM   H13S16514   4.759   1.817   3.486 -1.1017  1.5815  2.3250
  149OSM   H13T16515   4.768   1.666   3.573  0.2162 -0.9593 -1.8584
  149OSM   C14S16516   4.594   1.775   3.630  0.4358  0.5101  0.0373
  149OSM   H14S16517   4.551   1.677   3.659 -0.1774  1.0433  0.9606
  149OSM   H14T16518   4.509   1.826   3.579  0.8952  2.2812  1.0200
  149OSM   C15S16519   4.652   1.838   3.753  0.7782 -0.0152 -0.0520
  149OSM   H15S16520   4.568   1.828   3.826  0.9136  0.4661  0.1738
  149OSM   H15T16521   4.659   1.946   3.726  0.9762  0.0140  0.1156
  149OSM   C16S16522   4.779   1.797   3.812 -0.0100  0.2801 -0.3093
  149OSM   H16S16523   4.816   1.702   3.767  1.3043 -0.5253  2.3983
  149OSM   H16T16524   4.765   1.770   3.918 -0.0208 -1.2700 -0.6837
  149OSM   C17S16525   4.879   1.907   3.817  0.7628  0.4085  0.6667
  149OSM   H17S16526   4.944   1.891   3.906  0.3707  2.4325  1.3256
  149OSM   H17T16527   4.823   2.000   3.839 -0.9633 -1.0531  2.6967
  149OSM   C18S16528   4.959   1.925   3.694 -0.1925 -0.3008 -0.1580
  149OSM   H18S16529   5.016   2.020   3.703 -0.6849  0.0376 -0.5399
  149OSM   H18T16530   4.897   1.922   3.601 -0.3817 -0.9870 -0.0101
  149OSM   H18U16531   5.024   1.837   3.678  0.3772  0.1032 -0.1046
  149OSM    C1F16532   4.566   2.414   2.668 -0.3525  0.0618 -0.5531
  149OSM     OF16533   4.449   2.449   2.647 -0.4937  0.4940 -0.5092
  149OSM    C2F16534   4.651   2.475   2.779 -0.2610  0.2426  0.1042
  149OSM    H2F16535   4.678   2.582   2.767  0.7121 -0.0126  0.0096
  149OSM    H2G16536   4.746   2.418   2.783 -0.0048  0.7266  1.0161
  149OSM    C3F16537   4.591   2.451   2.923  0.0273  0.6378 -0.1433
  149OSM    H3F16538   4.506   2.521   2.939 -2.3081 -1.2684 -3.4562
  149OSM    H3G16539   4.672   2.461   2.997  1.1548  0.9512 -1.3935
  149OSM    C4F16540   4.522   2.312   2.936  0.3217 -0.1837  0.3249
  149OSM    H4F16541   4.592   2.227   2.924 -0.0526 -0.9648  3.2059
  149OSM    H4G16542   4.440   2.303   2.862  2.1919 -1.9344 -1.6220
  149OSM    C5F16543   4.458   2.303   3.081  0.6311 -0.1702 -0.1369
  149OSM    H5F16544   4.418   2.199   3.083  0.6114 -0.2158 -1.8025
  149OSM    H5G16545   4.375   2.377   3.089 -0.5380 -1.3166 -1.3207
  149OSM    C6F16546   4.555   2.334   3.196  0.5350 -0.8433 -0.5478
  149OSM    H6F16547   4.575   2.443   3.200 -3.9626  0.0398 -0.1340
  149OSM    H6G16548   4.649   2.276   3.193  0.8466 -0.5988  2.4619
  149OSM    C7F16549   4.481   2.313   3.331 -0.2152 -1.0166 -0.4138
  149OSM    H7F16550   4.431   2.213   3.332  0.4678 -1.3582 -0.0816
  149OSM    H7G16551   4.393   2.378   3.316  0.2994 -0.1029  0.4942
  149OSM    C8F16552   4.561   2.349   3.457 -0.0691 -0.2083  0.1930
  149OSM    H8F16553   4.482   2.361   3.535 -0.3303 -1.0471  0.0627
  149OSM    H8G16554   4.618   2.443   3.445 -2.2558  0.8401 -2.5340
  149OSM    C9F16555   4.639   2.234   3.498 -0.1333  0.5557  0.1750
  149OSM    H9F16556   4.668   2.169   3.413  1.4271 -0.4535  1.4503
  149OSM   C10F16557   4.677   2.196   3.620 -0.2591 -0.0937  0.7221
  149OSM   H10F16558   4.737   2.106   3.640  0.1735  0.2161  0.8254
  149OSM   C11F16559   4.645   2.281   3.737  0.2411 -0.1107  0.1045
  149OSM   H11F16560   4.609   2.383   3.713 -1.9365 -0.5304  1.4470
  149OSM   H11G16561   4.745   2.307   3.777  0.7588  1.1666 -1.9726
  149OSM   C12F16562   4.550   2.211   3.837  0.1225  0.2637 -0.1769
  149OSM   H12F16563   4.592   2.109   3.852 -1.1924 -0.1740  0.5422
  149OSM   H12G16564   4.452   2.189   3.791 -0.2902 -2.2746  1.7694
  149OSM   C13F16565   4.522   2.294   3.964  0.3289 -0.3184 -0.1141
  149OSM   H13F16566   4.500   2.397   3.927  1.4125 -0.3509 -0.8811
  149OSM   H13G16567   4.610   2.303   4.032  0.2771  1.8089 -0.2797
  149OSM   C14F16568   4.416   2.223   4.057  0.6144 -0.2299 -0.1524
  149OSM   H14F16569   4.315   2.231   4.011  1.0077  0.5667 -0.8937
  149OSM   H14G16570   4.418   2.287   4.148 -0.9961 -1.7605  0.9961
  149OSM   C15F16571   4.450   2.082   4.113 -0.3874  0.1037  0.7762
  149OSM   H15F16572   4.559   2.069   4.131  0.2125  3.0566 -0.3880
  149OSM   H15G16573   4.413   2.001   4.047  3.2302 -1.7451  0.8926
  149OSM   C16F16574   4.384   2.062   4.250  0.1415 -0.7951 -0.1245
  149OSM   H16F16575   4.274   2.063   4.231  0.0102 -0.1025  0.6579
  149OSM   H16G16576   4.377   2.153   4.313  2.0071 -1.9582  1.8304
  149OSM   C17F16577   4.423   1.936   4.328  0.0420 -0.1278  1.0820
  149OSM   H17F16578   4.533   1.931   4.342 -0.1723 -0.7452  2.5918
  149OSM   H17G16579   4.414   1.847   4.261  3.4821 -0.4526  0.9616
  149OSM   C18F16580   4.345   1.908   4.455  0.5687  0.0304  0.3039
  149OSM   H18F16581   4.237   1.895   4.433  0.4758  0.2023  0.6479
  149OSM   H18G16582   4.362   1.978   4.540  3.1201  0.4382 -0.5008
  149OSM   H18H16583   4.380   1.808   4.490  0.9691  0.5713  1.4722
  150OSM      N16584   1.969   4.167   1.732  0.3146 -0.0981  0.3262
  150OSM    C1516585   2.041   4.298   1.710 -0.8261  0.2087  0.2363
  150OSM   H15A16586   2.033   4.368   1.792 -3.1539 -1.5008  1.5307
  150OSM   H15B16587   2.005   4.344   1.619  0.4631  1.0234  0.1302
  150OSM   H15C16588   2.147   4.281   1.703 -0.9406  0.3502 -2.3378
  150OSM    C1416589   1.818   4.183   1.723  0.0318 -0.9467  0.2928
  150OSM   H14A16590   1.774   4.239   1.804 -0.5575 -1.6237  0.4448
  150OSM   H14B16591   1.780   4.083   1.736 -1.7850 -0.7939 -2.9831
  150OSM   H14C16592   1.788   4.220   1.626  2.1077  1.1034  0.3954
  150OSM    C1316593   2.000   4.074   1.621 -0.2497 -0.0081  0.4819
  150OSM   H13A16594   1.941   3.986   1.637 -0.5240  0.3641  1.5543
  150OSM   H13B16595   2.106   4.052   1.618  0.1082  1.5009  1.3062
  150OSM   H13C16596   1.962   4.121   1.532  0.1230 -1.1457 -0.2848
  150OSM    C1216597   2.010   4.099   1.859 -0.4324 -0.5408 -0.8704
  150OSM   H12A16598   2.117   4.085   1.856 -0.7778 -3.9797  0.5469
  150OSM   H12B16599   1.969   3.999   1.856  0.3160 -0.8155 -2.3404
  150OSM    C1116600   1.980   4.163   2.002 -1.1014 -0.5899  0.0783
  150OSM   H11A16601   2.046   4.251   2.017 -0.2150 -1.4915  1.5361
  150OSM   H11B16602   1.993   4.083   2.078  0.9288  0.3376  0.7350
  150OSM      P16603   1.735   4.168   2.083  0.5721 -0.0252  0.0892
  150OSM    O1316604   1.611   4.242   2.054  0.1450 -0.6710 -0.4150
  150OSM    O1416605   1.729   4.019   2.080 -0.2220 -0.6077  0.2673
  150OSM    O1116606   1.771   4.206   2.230 -0.1348  0.2747 -0.2108
  150OSM    O1216607   1.853   4.219   1.998  0.2085 -0.0192  0.1657
  150OSM    C1S16608   1.842   4.320   2.252 -0.3339 -0.4855 -0.0349
  150OSM    H1S16609   1.812   4.406   2.187  1.1553  0.1999  0.1537
  150OSM    H1T16610   1.952   4.310   2.239 -0.7727 -2.4689 -2.5883
  150OSM     NF16611   1.818   4.276   2.494  0.1389 -0.3112 -0.4498
  150OSM    HNF16612   1.740   4.234   2.541  1.3900  2.1253  4.0399
  150OSM    C2S16613   1.797   4.377   2.394 -0.4461  0.7968 -0.6041
  150OSM    H2S16614   1.868   4.460   2.414 -0.0486  0.9267 -2.4783
  150OSM    C3S16615   1.650   4.428   2.383 -0.2029 -0.0043  0.1082
  150OSM    H3S16616   1.599   4.334   2.354  0.8794 -0.0549 -1.6863
  150OSM     O316617   1.634   4.528   2.284  0.0983  0.4707 -0.0469
  150OSM    HO316618   1.720   4.545   2.246  0.2387  0.3048  0.1986
  150OSM    C4S16619   1.598   4.470   2.519  0.2909 -0.2584  0.4669
  150OSM    H4S16620   1.576   4.379   2.577 -0.0135 -1.1630 -1.0454
  150OSM    C5S16621   1.592   4.587   2.580  0.1836  0.9052 -0.1672
  150OSM    H5S16622   1.630   4.681   2.537 -2.1674  2.5218  1.1601
  150OSM    C6S16623   1.539   4.600   2.722  0.2313 -0.1592  0.4162
  150OSM    H6S16624   1.621   4.636   2.787 -0.6901  0.1552  1.4134
  150OSM    H6T16625   1.518   4.499   2.764  4.3839 -2.0651 -1.8240
  150OSM    C7S16626   1.418   4.694   2.739  0.7045 -0.6857 -0.0668
  150OSM    H7S16627   1.332   4.670   2.672 -1.1290  4.1609  0.3152
  150OSM    H7T16628   1.448   4.796   2.707 -1.1806 -0.1945 -0.3631
  150OSM    C8S16629   1.342   4.697   2.874 -0.1844  0.1520 -0.9234
  150OSM    H8S16630   1.292   4.598   2.884  0.7426 -0.1614  0.6958
  150OSM    H8T16631   1.251   4.760   2.887 -2.7437 -3.0959 -2.1798
  150OSM    C9S16632   1.433   4.722   2.994 -0.5597  0.2552  0.0168
  150OSM    H9S16633   1.490   4.815   2.974  0.0331 -0.1796 -0.3291
  150OSM    H9T16634   1.511   4.643   2.993  0.4630  1.2570  0.4033
  150OSM   C10S16635   1.364   4.706   3.133  0.3503 -0.0508  0.2923
  150OSM   H10S16636   1.298   4.617   3.138 -0.5417  0.5609 -0.2841
  150OSM   H10T16637   1.306   4.800   3.149  0.2471 -0.4055  2.0685
  150OSM   C11S16638   1.474   4.688   3.235  0.6473  0.1455 -0.4037
  150OSM   H11S16639   1.524   4.785   3.256 -0.8721  0.4586  1.9771
  150OSM   H11T16640   1.554   4.626   3.188  2.3295  0.8785  1.4412
  150OSM   C12S16641   1.430   4.633   3.376 -0.1952  1.2170 -0.0503
  150OSM   H12S16642   1.383   4.535   3.351  1.1066  0.4091  0.6340
  150OSM   H12T16643   1.359   4.704   3.423 -3.4341 -0.8643 -1.5676
  150OSM   C13S16644   1.545   4.602   3.462 -0.3256  1.0800  0.7336
  150OSM   H13S16645   1.621   4.542   3.408  0.9788  2.1454  1.3754
  150OSM   H13T16646   1.507   4.539   3.546 -0.9830  2.0269  1.1596
  150OSM   C14S16647   1.618   4.729   3.514  0.2286  0.0599 -0.3086
  150OSM   H14S16648   1.547   4.799   3.563 -1.0292 -1.3257 -0.1094
  150OSM   H14T16649   1.664   4.782   3.427 -0.7320 -3.1479 -2.8740
  150OSM   C15S16650   1.736   4.691   3.612 -0.3502 -0.4983  0.4606
  150OSM   H15S16651   1.811   4.627   3.561 -0.8374 -0.0048 -0.8928
  150OSM   H15T16652   1.703   4.648   3.709 -2.2321  1.7797  0.8731
  150OSM   C16S16653   1.809   4.817   3.654 -0.7199  0.0469 -0.2416
  150OSM   H16S16654   1.737   4.876   3.715 -3.1506 -1.5303 -1.4684
  150OSM   H16T16655   1.844   4.868   3.562  2.3810  0.4141  1.0804
  150OSM   C17S16656   1.927   4.774   3.745 -0.1762  0.8667 -0.1251
  150OSM   H17S16657   1.986   4.695   3.695  2.8837  3.0952 -0.1716
  150OSM   H17T16658   1.878   4.738   3.838 -0.6239 -1.1436 -1.1165
  150OSM   C18S16659   2.014   4.890   3.772 -0.2026  0.1488  0.6430
  150OSM   H18S16660   2.111   4.849   3.807  0.4109  0.2125 -0.9373
  150OSM   H18T16661   1.965   4.965   3.838  0.4662  0.6243  0.5967
  150OSM   H18U16662   2.046   4.938   3.677  0.2665  1.2121  1.3347
  150OSM    C1F16663   1.943   4.227   2.515  0.1091 -0.7608 -0.6379
  150OSM     OF16664   2.044   4.267   2.461  0.8672  0.3470  0.0389
  150OSM    C2F16665   1.939   4.118   2.619  0.2003  0.1809  0.0046
  150OSM    H2F16666   1.948   4.022   2.563  3.0365 -0.5119  1.5390
  150OSM    H2G16667   1.839   4.110   2.665 -0.1487 -1.4904 -1.0053
  150OSM    C3F16668   2.049   4.126   2.727 -0.2770 -0.3299  0.0790
  150OSM    H3F16669   2.148   4.117   2.677 -0.0036 -0.9858  0.7400
  150OSM    H3G16670   2.043   4.036   2.792  1.7086  1.6173  3.0736
  150OSM    C4F16671   2.048   4.249   2.810  0.1515 -0.1890 -0.2484
  150OSM    H4F16672   2.049   4.346   2.756 -2.1818  0.6934  1.2320
  150OSM    H4G16673   2.138   4.241   2.876  0.1651  1.1139 -0.1044
  150OSM    C5F16674   1.929   4.243   2.911 -0.6425  0.1490  0.5099
  150OSM    H5F16675   1.927   4.145   2.964 -0.0353 -0.0203  0.2215
  150OSM    H5G16676   1.840   4.231   2.845 -0.2719 -1.0796  0.2285
  150OSM    C6F16677   1.925   4.366   3.007 -0.4531  0.4358  0.3965
  150OSM    H6F16678   1.924   4.450   2.934  0.4861  1.3943  1.4859
  150OSM    H6G16679   2.005   4.377   3.083 -0.4703  1.2049  0.3011
  150OSM    C7F16680   1.788   4.380   3.082  0.0409  0.3027  0.7331
  150OSM    H7F16681   1.709   4.356   3.008  2.0113 -1.8980 -0.7017
  150OSM    H7G16682   1.777   4.489   3.102  2.9253  0.4355  1.8389
  150OSM    C8F16683   1.759   4.300   3.211  0.5006  0.0308 -0.2580
  150OSM    H8F16684   1.666   4.333   3.262  2.1320  0.9133  2.2058
  150OSM    H8G16685   1.837   4.325   3.286 -0.7731  0.8959  0.8112
  150OSM    C9F16686   1.762   4.150   3.200  0.8056 -0.2247 -0.7977
  150OSM    H9F16687   1.847   4.113   3.142  0.6345  1.0689 -1.9094
  150OSM   C10F16688   1.666   4.064   3.250  0.1324  0.0315  0.3472
  150OSM   H10F16689   1.685   3.956   3.238 -2.2144 -0.3283 -0.2636
  150OSM   C11F16690   1.541   4.103   3.324 -0.1129 -0.5359  0.0127
  150OSM   H11F16691   1.454   4.043   3.290 -2.7402  2.3673  1.3226
  150OSM   H11G16692   1.520   4.212   3.314  0.9206 -0.1114  2.1704
  150OSM   C12F16693   1.553   4.077   3.474 -0.0062  0.4674  0.6553
  150OSM   H12F16694   1.642   4.133   3.511  0.7953  0.9345 -1.8845
  150OSM   H12G16695   1.561   3.968   3.494  1.2638  0.4899  0.2984
  150OSM   C13F16696   1.420   4.122   3.540  0.1162 -0.1160 -0.3131
  150OSM   H13F16697   1.340   4.046   3.529 -0.9549  1.1543 -1.4182
  150OSM   H13G16698   1.379   4.220   3.507  0.8026 -0.1289 -1.2096
  150OSM   C14F16699   1.427   4.148   3.695 -0.0251  0.1379  0.2399
  150OSM   H14F16700   1.481   4.064   3.744 -0.4461 -0.2082  0.1150
  150OSM   H14G16701   1.330   4.144   3.750 -0.7733  0.0494 -1.0596
  150OSM   C15F16702   1.488   4.278   3.741  0.4191 -0.6696  0.2892
  150OSM   H15F16703   1.468   4.372   3.685  0.2900  0.0334  1.4961
  150OSM   H15G16704   1.597   4.260   3.730  0.4835 -1.1501  1.5691
  150OSM   C16F16705   1.448   4.320   3.885  0.1189  0.1355 -0.3969
  150OSM   H16F16706   1.476   4.245   3.962 -2.5033 -1.4680 -0.9347
  150OSM   H16G16707   1.337   4.320   3.878  0.0176 -0.9292  1.0064
  150OSM   C17F16708   1.501   4.463   3.921  0.1814 -0.0176  0.4281
  150OSM   H17F16709   1.475   4.538   3.843  1.7449  0.7188  0.5978
  150OSM   H17G16710   1.610   4.448   3.905  0.2638  0.0436  0.9376
  150OSM   C18F16711   1.484   4.512   4.064  0.0339 -0.1978 -0.4690
  150OSM   H18F16712   1.522   4.444   4.143 -0.4424 -1.5654 -1.3920
  150OSM   H18G16713   1.374   4.515   4.082  0.0626 -3.6927  0.7121
  150OSM   H18H16714   1.531   4.610   4.085  2.7703 -2.1499  3.1002
  151OSM      N16715   1.314   4.033   2.188 -0.3786 -0.1929 -0.4681
  151OSM    C1516716   1.427   3.937   2.208 -0.2027  0.0918  0.5340
  151OSM   H15A16717   1.432   3.921   2.315  0.0647 -1.7553  0.2635
  151OSM   H15B16718   1.520   3.969   2.165  0.3433 -0.8159  1.0345
  151OSM   H15C16719   1.391   3.844   2.166 -0.5246  0.9522 -1.1477
  151OSM    C1416720   1.344   4.160   2.266  0.2205  0.0174  0.1077
  151OSM   H14A16721   1.440   4.195   2.231  0.4894 -1.8215 -1.0828
  151OSM   H14B16722   1.355   4.142   2.372  1.1252 -0.4290 -0.0628
  151OSM   H14C16723   1.266   4.233   2.254  0.1459 -0.0145  0.3836
  151OSM    C1316724   1.315   4.062   2.044  0.3995  0.4919  0.1863
  151OSM   H13A16725   1.232   4.125   2.016 -0.0302 -0.5028 -0.8323
  151OSM   H13B16726   1.309   3.971   1.986 -1.3123  0.3429  0.5603
  151OSM   H13C16727   1.404   4.119   2.025  0.3547  0.8608  1.0592
  151OSM    C1216728   1.186   3.976   2.239 -0.8231  0.4607 -0.5399
  151OSM   H12A16729   1.106   4.048   2.234 -0.1190  1.3458  0.6685
  151OSM   H12B16730   1.196   3.935   2.339  0.1397  0.1113 -0.7659
  151OSM    C1116731   1.127   3.862   2.150 -0.3103  0.6877  0.7893
  151OSM   H11A16732   1.143   3.894   2.045  0.8394 -2.0968  0.0617
  151OSM   H11B16733   1.020   3.841   2.168 -0.4404  0.1637 -0.5694
  151OSM      P16734   1.182   3.618   2.255 -0.2072  0.5375  0.0585
  151OSM    O1316735   1.049   3.626   2.311  0.2233 -0.3312 -0.8393
  151OSM    O1416736   1.222   3.500   2.176  0.3416 -0.6265  0.1273
  151OSM    O1116737   1.286   3.651   2.375  0.2229  0.0668 -0.2522
  151OSM    O1216738   1.206   3.745   2.165 -0.4631  0.3682  0.2345
  151OSM    C1S16739   1.336   3.547   2.457 -0.0001  0.1932 -0.5658
  151OSM    H1S16740   1.347   3.452   2.401  0.2984 -0.9864  1.4581
  151OSM    H1T16741   1.262   3.524   2.537  1.8733  0.2687  1.1996
  151OSM     NF16742   1.520   3.478   2.596  0.3793 -0.4174  0.6210
  151OSM    HNF16743   1.547   3.497   2.690 -2.0586  2.6673  0.7871
  151OSM    C2S16744   1.470   3.593   2.530 -0.2631  0.4103 -0.1430
  151OSM    H2S16745   1.533   3.625   2.444  1.3932  0.0185  0.9079
  151OSM    C3S16746   1.449   3.716   2.625  0.0052  0.4819 -0.5952
  151OSM    H3S16747   1.373   3.695   2.703 -2.3605  0.7210 -2.7644
  151OSM     O316748   1.392   3.819   2.553  0.8226 -0.3974  0.5587
  151OSM    HO316749   1.361   3.774   2.474  0.8240 -0.0121  0.3399
  151OSM    C4S16750   1.586   3.761   2.683  0.2670  0.3224  0.8206
  151OSM    H4S16751   1.673   3.760   2.616 -1.1654 -2.2139 -1.0759
  151OSM    C5S16752   1.608   3.807   2.805  0.2543 -0.1784 -0.7027
  151OSM    H5S16753   1.528   3.818   2.879  0.0752  0.1108 -0.9346
  151OSM    C6S16754   1.744   3.841   2.858  0.0681  0.8263  0.0087
  151OSM    H6S16755   1.743   3.952   2.859  0.7319  0.8328  0.8147
  151OSM    H6T16756   1.828   3.804   2.795  1.3492 -0.0444  2.1511
  151OSM    C7S16757   1.762   3.778   2.999 -0.4650 -0.4174 -0.0898
  151OSM    H7S16758   1.751   3.667   3.002  1.2629 -0.5601  2.6087
  151OSM    H7T16759   1.701   3.825   3.079 -0.8104  0.9966 -1.1576
  151OSM    C8S16760   1.913   3.792   3.042  0.4244  0.0828 -1.3116
  151OSM    H8S16761   1.932   3.897   3.074 -2.1460  0.3175 -0.3907
  151OSM    H8T16762   1.975   3.781   2.951  0.7880 -1.7227 -0.8617
  151OSM    C9S16763   1.935   3.711   3.172  0.1256 -0.0843  0.6117
  151OSM    H9S16764   2.040   3.676   3.172  0.4255  0.7356  2.4099
  151OSM    H9T16765   1.866   3.624   3.166 -1.8727  1.1282  4.2587
  151OSM   C10S16766   1.909   3.783   3.305  0.0117 -0.2900  0.1672
  151OSM   H10S16767   1.800   3.797   3.326  0.2233  1.7506  0.0073
  151OSM   H10T16768   1.955   3.883   3.294 -2.1514  0.8794  1.3773
  151OSM   C11S16769   1.981   3.720   3.432  0.1602  0.5619 -0.2166
  151OSM   H11S16770   2.087   3.701   3.405  0.1318  0.5717 -0.3383
  151OSM   H11T16771   1.947   3.614   3.437 -1.4104  0.8907 -2.6791
  151OSM   C12S16772   1.970   3.803   3.556 -0.0728 -0.0068 -0.4718
  151OSM   H12S16773   1.866   3.825   3.587  0.3601 -0.6208  1.4461
  151OSM   H12T16774   2.021   3.902   3.553 -2.1568  1.1229  0.4668
  151OSM   C13S16775   2.031   3.732   3.675  0.1984  0.6097  0.3740
  151OSM   H13S16776   2.012   3.789   3.768 -1.3814  1.7449 -0.6223
  151OSM   H13T16777   2.140   3.742   3.657  0.3054  1.4399  1.4142
  151OSM   C14S16778   1.986   3.591   3.703  0.8622  0.7491 -0.4024
  151OSM   H14S16779   1.980   3.528   3.612 -0.1852  0.5413 -0.1946
  151OSM   H14T16780   1.882   3.593   3.742  0.7158 -0.5029 -0.7279
  151OSM   C15S16781   2.054   3.528   3.820  0.0735 -0.0204  0.6891
  151OSM   H15S16782   2.040   3.580   3.918 -1.4335  2.4143 -0.7698
  151OSM   H15T16783   2.164   3.528   3.808 -0.0021 -2.6749 -0.1906
  151OSM   C16S16784   1.986   3.392   3.852 -0.3273  0.2899  0.4110
  151OSM   H16S16785   1.882   3.399   3.814 -0.6822 -0.9950  1.1394
  151OSM   H16T16786   1.999   3.367   3.959  0.9863 -2.6438 -0.3856
  151OSM   C17S16787   2.045   3.270   3.776  0.2447 -0.4727  0.0299
  151OSM   H17S16788   2.154   3.293   3.772  0.5545 -1.8463  0.2425
  151OSM   H17T16789   1.998   3.257   3.676  2.4696 -2.0317 -0.8535
  151OSM   C18S16790   2.027   3.148   3.857 -0.3924 -0.2657 -0.6868
  151OSM   H18S16791   1.925   3.107   3.843 -1.6133  3.0516 -1.9081
  151OSM   H18T16792   2.043   3.175   3.964  0.2890  0.9262 -1.0876
  151OSM   H18U16793   2.097   3.068   3.823 -3.6818 -4.4398  1.7888
  151OSM    C1F16794   1.561   3.371   2.524  0.1218  0.3078 -0.3515
  151OSM     OF16795   1.585   3.386   2.402  0.4574  0.1270 -0.3252
  151OSM    C2F16796   1.580   3.239   2.585  0.7829 -0.3247 -0.0392
  151OSM    H2F16797   1.687   3.210   2.580  1.7776  3.0277  0.5360
  151OSM    H2G16798   1.512   3.166   2.536  0.8409 -1.9292  2.1890
  151OSM    C3F16799   1.535   3.223   2.733  0.3779  0.3990  0.4796
  151OSM    H3F16800   1.441   3.274   2.761 -0.1177 -1.5064  2.4094
  151OSM    H3G16801   1.617   3.261   2.798  0.1862 -0.1172  1.0317
  151OSM    C4F16802   1.527   3.076   2.768 -0.7872 -0.3546  0.3729
  151OSM    H4F16803   1.630   3.035   2.762 -0.0311  1.3729  1.2979
  151OSM    H4G16804   1.477   3.019   2.686 -0.2223 -0.4960  0.1227
  151OSM    C5F16805   1.463   3.047   2.909 -0.2916  0.3302  0.3108
  151OSM    H5F16806   1.485   2.947   2.951 -0.4258 -0.1391 -0.7180
  151OSM    H5G16807   1.353   3.052   2.896 -0.3406  2.8285  1.4149
  151OSM    C6F16808   1.514   3.149   3.015  0.8803  0.2019  0.7890
  151OSM    H6F16809   1.487   3.251   2.980 -0.5216 -0.1044  0.9268
  151OSM    H6G16810   1.624   3.138   3.024  0.9786  1.5423  1.3840
  151OSM    C7F16811   1.471   3.135   3.160 -0.0880  0.2393  0.0728
  151OSM    H7F16812   1.507   3.221   3.220 -3.8604  1.6965  0.4411
  151OSM    H7G16813   1.520   3.053   3.215  0.5109  0.2688 -0.4161
  151OSM    C8F16814   1.323   3.115   3.176  0.0997  0.1589 -0.1255
  151OSM    H8F16815   1.301   3.088   3.281 -1.5016  0.3033 -0.3978
  151OSM    H8G16816   1.290   3.026   3.118 -0.8953 -0.4475  1.3413
  151OSM    C9F16817   1.237   3.229   3.132  0.2397  0.0376  0.3706
  151OSM    H9F16818   1.238   3.248   3.024 -0.4030 -2.4482 -0.1067
  151OSM   C10F16819   1.149   3.315   3.199  0.4222 -0.3699 -0.2649
  151OSM   H10F16820   1.094   3.385   3.134  1.3029 -0.1084 -0.7421
  151OSM   C11F16821   1.099   3.326   3.343 -0.0154  0.6496 -0.3534
  151OSM   H11F16822   1.156   3.252   3.403 -0.5961  1.3799  1.1064
  151OSM   H11G16823   0.994   3.290   3.350  0.5705 -1.2711 -0.9205
  151OSM   C12F16824   1.125   3.468   3.400 -0.8844  0.1170 -0.3905
  151OSM   H12F16825   1.066   3.545   3.346 -0.2343  0.9475  0.0589
  151OSM   H12G16826   1.233   3.485   3.377 -0.5545 -1.4259 -0.0746
  151OSM   C13F16827   1.115   3.486   3.555  0.1192  0.2491  0.0384
  151OSM   H13F16828   1.168   3.400   3.601 -1.3213  0.1432  1.5383
  151OSM   H13G16829   1.007   3.472   3.574  0.2044  0.0627  0.4000
  151OSM   C14F16830   1.155   3.628   3.600 -0.1541 -0.1217 -0.6478
  151OSM   H14F16831   1.093   3.705   3.548  0.2644  0.4171 -0.3483
  151OSM   H14G16832   1.258   3.645   3.561  0.8035 -0.2996  1.7482
  151OSM   C15F16833   1.160   3.655   3.744 -0.2094  0.7026  0.6079
  151OSM   H15F16834   1.225   3.573   3.782 -0.3364  0.4915  0.3721
  151OSM   H15G16835   1.057   3.655   3.786 -0.1889 -1.7037  0.7426
  151OSM   C16F16836   1.227   3.790   3.782 -0.0351  0.0068  0.0098
  151OSM   H16F16837   1.177   3.871   3.724  1.0781 -0.8606 -2.2490
  151OSM   H16G16838   1.333   3.794   3.749  0.0376  2.0929  0.3815
  151OSM   C17F16839   1.207   3.813   3.930  0.2922 -0.0943  0.1370
  151OSM   H17F16840   1.235   3.724   3.991  0.0626  0.5995  1.2705
  151OSM   H17G16841   1.098   3.836   3.936  0.4626  1.2223 -1.5122
  151OSM   C18F16842   1.290   3.931   3.968 -0.2972  0.3593 -0.0601
  151OSM   H18F16843   1.296   3.938   4.079 -1.5000 -1.3657  0.1277
  151OSM   H18G16844   1.248   4.030   3.938 -1.7881  0.7234  3.0629
  151OSM   H18H16845   1.393   3.916   3.927 -1.1419 -0.7657 -1.8215
  152OSM      N16846   3.550   5.503   2.188 -0.7915 -0.2710 -0.0240
  152OSM    C1516847   3.690   5.482   2.248  0.1031 -0.1770  1.2863
  152OSM   H15A16848   3.714   5.571   2.305 -0.6833  1.2276 -0.4998
  152OSM   H15B16849   3.762   5.477   2.168 -0.9542 -0.0554  0.3094
  152OSM   H15C16850   3.706   5.383   2.287  0.9465  0.3636  2.3423
  152OSM    C1416851   3.560   5.607   2.080  0.3764  0.4547 -0.4491
  152OSM   H14A16852   3.628   5.589   1.999 -1.0458 -0.4947 -1.4488
  152OSM   H14B16853   3.581   5.703   2.126  4.0744  0.0352 -1.1652
  152OSM   H14C16854   3.468   5.628   2.026 -0.3707 -0.6243  0.3787
  152OSM    C1316855   3.511   5.378   2.116 -0.5189  0.0356 -0.5198
  152OSM   H13A16856   3.566   5.358   2.025  0.9787  0.6091  0.2551
  152OSM   H13B16857   3.406   5.379   2.090 -0.7678 -1.0267  0.4069
  152OSM   H13C16858   3.538   5.287   2.168  1.3184  2.7173  3.4462
  152OSM    C1216859   3.451   5.538   2.299 -0.3353  0.4031  0.1997
  152OSM   H12A16860   3.458   5.462   2.375 -2.3589  1.9907  2.0332
  152OSM   H12B16861   3.348   5.531   2.265 -0.8734  1.8806  1.4841
  152OSM    C1116862   3.462   5.678   2.367 -0.5826 -0.1519 -0.5483
  152OSM   H11A16863   3.559   5.681   2.421 -0.0997 -0.6994 -1.3744
  152OSM   H11B16864   3.377   5.680   2.438 -0.5050 -1.2738 -0.4252
  152OSM      P16865   3.491   5.931   2.301  0.1352  0.2363  0.6603
  152OSM    O1316866   3.633   5.959   2.261 -0.0333  0.5047  0.2188
  152OSM    O1416867   3.393   6.015   2.236 -0.5789  0.4902  0.6816
  152OSM    O1116868   3.483   5.957   2.459 -0.5370  0.1825  0.0678
  152OSM    O1216869   3.449   5.782   2.273  0.9062  0.6707  0.2229
  152OSM    C1S16870   3.371   5.934   2.542  0.5020 -0.3915  0.2934
  152OSM    H1S16871   3.291   5.872   2.496  0.3161  0.0503  0.0217
  152OSM    H1T16872   3.326   6.032   2.567  1.0999  0.6117 -2.4334
  152OSM     NF16873   3.279   5.872   2.754  0.0604  0.7232 -0.7184
  152OSM    HNF16874   3.266   5.928   2.835 -0.6090  0.9617 -0.9837
  152OSM    C2S16875   3.399   5.867   2.675 -0.2508 -0.5423 -0.1367
  152OSM    H2S16876   3.435   5.762   2.670 -0.4881 -0.7976  2.6246
  152OSM    C3S16877   3.517   5.937   2.744  0.4349  0.2246 -0.2583
  152OSM    H3S16878   3.483   6.040   2.766  0.7164  0.0819  0.9010
  152OSM     O316879   3.637   5.957   2.681  0.0238 -0.6111 -0.4725
  152OSM    HO316880   3.617   5.957   2.587  0.2891 -0.5705 -0.5301
  152OSM    C4S16881   3.542   5.857   2.866  0.5131  0.3961  0.3321
  152OSM    H4S16882   3.558   5.749   2.857 -0.4107  0.0464  2.4456
  152OSM    C5S16883   3.536   5.902   2.988 -0.1932  0.5106  0.0131
  152OSM    H5S16884   3.514   6.010   2.998 -2.0905 -0.1754  4.7439
  152OSM    C6S16885   3.555   5.825   3.116  1.0522  0.2891  0.1668
  152OSM    H6S16886   3.465   5.816   3.180  1.6030  1.3853  1.1130
  152OSM    H6T16887   3.626   5.894   3.167  1.4246  0.1151 -0.1109
  152OSM    C7S16888   3.621   5.689   3.113 -0.7711 -0.0366  0.4583
  152OSM    H7S16889   3.713   5.704   3.052  1.3031  3.3151  4.2076
  152OSM    H7T16890   3.557   5.614   3.061 -1.3528 -0.1959  1.3914
  152OSM    C8S16891   3.664   5.640   3.254 -0.0909  0.6915  0.2637
  152OSM    H8S16892   3.727   5.712   3.309 -0.0023  1.0500 -0.2982
  152OSM    H8T16893   3.713   5.544   3.228 -0.0159  1.1959 -1.5374
  152OSM    C9S16894   3.540   5.596   3.342 -0.5173  0.2565 -0.3479
  152OSM    H9S16895   3.479   5.538   3.270  0.4914 -1.7881  0.4022
  152OSM    H9T16896   3.500   5.698   3.363  0.7426  0.8629 -0.8322
  152OSM   C10S16897   3.569   5.508   3.459  0.0173 -0.1815  0.3059
  152OSM   H10S16898   3.644   5.560   3.522  1.7703  0.5635 -2.3060
  152OSM   H10T16899   3.608   5.407   3.433 -0.7058 -0.3948  0.0396
  152OSM   C11S16900   3.442   5.482   3.540  0.2761  0.3513 -0.4857
  152OSM   H11S16901   3.350   5.461   3.481 -0.8150  0.0529  1.3079
  152OSM   H11T16902   3.435   5.581   3.590 -0.1792  0.4735 -0.7923
  152OSM   C12S16903   3.447   5.366   3.639  0.3254  0.2323  0.5627
  152OSM   H12S16904   3.485   5.273   3.591  1.4840  0.5870  0.7693
  152OSM   H12T16905   3.348   5.346   3.686 -0.2657  2.1710  0.1490
  152OSM   C13S16906   3.540   5.399   3.746 -0.1476  0.4726 -0.5132
  152OSM   H13S16907   3.517   5.504   3.773  3.0916  0.9504  0.5764
  152OSM   H13T16908   3.647   5.403   3.714 -0.1799  2.6834 -0.4476
  152OSM   C14S16909   3.537   5.299   3.861  0.6935 -0.6261 -0.4249
  152OSM   H14S16910   3.556   5.195   3.828  1.8869 -0.1676 -1.2351
  152OSM   H14T16911   3.436   5.295   3.906  0.6747  2.1832 -0.0965
  152OSM   C15S16912   3.640   5.316   3.969 -0.4114 -0.2945 -0.5157
  152OSM   H15S16913   3.640   5.419   4.010  0.3950 -0.4978 -0.0072
  152OSM   H15T16914   3.741   5.289   3.931 -0.6992 -0.4543 -1.1895
  152OSM   C16S16915   3.617   5.232   4.101  0.0472 -0.2932 -0.0130
  152OSM   H16S16916   3.518   5.262   4.141  0.6865  1.0719  0.5725
  152OSM   H16T16917   3.703   5.260   4.166 -0.0638 -0.1421  0.0683
  152OSM   C17S16918   3.626   5.075   4.094 -0.1903  0.0633 -0.1190
  152OSM   H17S16919   3.719   5.047   4.041  0.3775  0.4038  0.6970
  152OSM   H17T16920   3.552   5.037   4.020  0.7103  1.7622 -1.9419
  152OSM   C18S16921   3.618   4.999   4.227  0.0144  0.0764  0.6925
  152OSM   H18S16922   3.612   4.889   4.219  2.7735  0.1213 -3.4973
  152OSM   H18T16923   3.531   5.044   4.280 -0.0306 -0.4501  1.0703
  152OSM   H18U16924   3.712   5.013   4.286  1.6713  0.2388 -1.9209
  152OSM    C1F16925   3.176   5.797   2.713 -0.1938 -0.7597  0.0698
  152OSM     OF16926   3.192   5.708   2.631 -0.1295  0.0383 -0.1610
  152OSM    C2F16927   3.045   5.840   2.773 -0.5056 -0.9261 -0.1996
  152OSM    H2F16928   2.980   5.866   2.688 -0.1740 -0.2869 -0.2601
  152OSM    H2G16929   3.062   5.928   2.838 -1.0916  0.4442 -1.8770
  152OSM    C3F16930   2.989   5.728   2.870  0.6781 -0.6376  0.4659
  152OSM    H3F16931   2.990   5.630   2.817 -0.1634 -0.6709  0.4992
  152OSM    H3G16932   2.881   5.739   2.893  1.1679  2.0098  1.7046
  152OSM    C4F16933   3.070   5.704   3.006  0.4178  0.2125 -0.2249
  152OSM    H4F16934   3.181   5.692   3.008  0.1140 -3.1598  2.3811
  152OSM    H4G16935   3.032   5.604   3.037  2.5523 -0.6167 -0.1326
  152OSM    C5F16936   3.026   5.801   3.117  0.1192 -0.4285 -0.0094
  152OSM    H5F16937   2.916   5.789   3.118  0.1821 -1.0437  2.9920
  152OSM    H5G16938   3.039   5.906   3.084 -1.0175 -0.1917  0.3003
  152OSM    C6F16939   3.088   5.754   3.249  0.4846 -0.2304  0.0082
  152OSM    H6F16940   3.198   5.746   3.240  0.5430  0.9560 -0.5288
  152OSM    H6G16941   3.051   5.652   3.271  1.7424 -0.1888  2.4859
  152OSM    C7F16942   3.050   5.840   3.370 -0.1989  0.4108 -0.0781
  152OSM    H7F16943   3.093   5.788   3.459  1.2736  1.7934  0.0340
  152OSM    H7G16944   2.939   5.842   3.368 -0.1666  2.3625 -2.5692
  152OSM    C8F16945   3.103   5.979   3.345 -0.1932 -0.3364  0.4833
  152OSM    H8F16946   3.051   6.037   3.266  0.5231  1.4968  1.3202
  152OSM    H8G16947   3.209   5.980   3.313  0.2941 -1.2974  2.0029
  152OSM    C9F16948   3.080   6.040   3.479  0.6963 -0.1014  0.0004
  152OSM    H9F16949   2.979   6.023   3.517  0.9649  4.0446  2.8875
  152OSM   C10F16950   3.160   6.104   3.564 -0.4187 -0.0485  0.0529
  152OSM   H10F16951   3.124   6.133   3.664  0.5181 -0.7533  0.6050
  152OSM   C11F16952   3.306   6.131   3.549 -0.3639 -0.4188  0.4717
  152OSM   H11F16953   3.309   6.238   3.521  0.4068 -0.3585  0.7857
  152OSM   H11G16954   3.349   6.081   3.460 -0.6151  0.7685 -0.3272
  152OSM   C12F16955   3.411   6.099   3.657 -0.9407  0.2682  0.8461
  152OSM   H12F16956   3.507   6.117   3.604 -1.6700  1.1630 -0.1892
  152OSM   H12G16957   3.413   5.991   3.686 -1.5161  0.4299  1.4820
  152OSM   C13F16958   3.405   6.195   3.768  0.3841  0.3005  0.2611
  152OSM   H13F16959   3.482   6.164   3.843 -1.9952 -2.9586  1.4606
  152OSM   H13G16960   3.306   6.182   3.815 -1.3789 -0.5577 -3.4838
  152OSM   C14F16961   3.431   6.345   3.742  0.3729  0.2010  0.5563
  152OSM   H14F16962   3.360   6.387   3.667 -1.2820 -0.6666  1.5936
  152OSM   H14G16963   3.534   6.345   3.702 -0.4627 -0.3012 -1.6432
  152OSM   C15F16964   3.420   6.422   3.868 -0.1092 -0.1659 -0.1912
  152OSM   H15F16965   3.320   6.406   3.913  0.5261 -1.0896  0.9223
  152OSM   H15G16966   3.441   6.527   3.836 -1.3038  0.2906  0.4861
  152OSM   C16F16967   3.528   6.392   3.974 -0.1487 -0.2440 -0.2620
  152OSM   H16F16968   3.584   6.479   4.014 -0.4717 -1.1676  2.2486
  152OSM   H16G16969   3.608   6.324   3.938  1.0069  1.5785 -1.1959
  152OSM   C17F16970   3.458   6.327   4.101  0.1527 -0.2121  0.4817
  152OSM   H17F16971   3.414   6.230   4.070  0.0072 -0.2752  0.8791
  152OSM   H17G16972   3.372   6.394   4.123 -0.2443  0.2671 -2.3897
  152OSM   C18F16973   3.551   6.308   4.219 -0.4275 -0.2556  0.4203
  152OSM   H18F16974   3.493   6.276   4.309  0.0119  0.9818  1.1611
  152OSM   H18G16975   3.616   6.398   4.226 -0.3113 -0.1362 -1.9032
  152OSM   H18H16976   3.621   6.224   4.198 -0.9696 -0.7363  0.5077
  153OSM      N16977   1.632   5.397   2.123  0.1191 -0.4238 -0.0559
  153OSM    C1516978   1.554   5.367   2.247 -0.4172  0.2452  0.4654
  153OSM   H15A16979   1.548   5.450   2.315 -0.9010  0.8854 -0.3585
  153OSM   H15B16980   1.607   5.292   2.305 -0.5180 -1.2945 -1.3861
  153OSM   H15C16981   1.458   5.323   2.229 -2.0182  2.9593  2.0296
  153OSM    C1416982   1.635   5.275   2.039 -0.1743  0.0288  0.5927
  153OSM   H14A16983   1.714   5.287   1.967  1.0128 -1.3438  1.6238
  153OSM   H14B16984   1.543   5.265   1.983  0.7516 -0.8759 -0.8134
  153OSM   H14C16985   1.655   5.187   2.099  1.1174 -0.2675 -0.2508
  153OSM    C1316986   1.559   5.509   2.054 -0.3526 -0.1269  0.2916
  153OSM   H13A16987   1.605   5.550   1.966 -0.3633  0.0048  0.3463
  153OSM   H13B16988   1.547   5.589   2.126  0.6505  1.2112 -1.0051
  153OSM   H13C16989   1.459   5.477   2.026  0.3048 -0.5981 -1.5693
  153OSM    C1216990   1.765   5.455   2.159  0.8103 -0.4299  0.3913
  153OSM   H12A16991   1.762   5.555   2.200 -1.3276 -0.0412 -0.6511
  153OSM   H12B16992   1.824   5.462   2.069  1.7579  0.5125  1.0656
  153OSM    C1116993   1.860   5.372   2.236 -0.3944  0.1701 -1.0937
  153OSM   H11A16994   1.820   5.354   2.338 -2.1545 -2.0357 -2.1259
  153OSM   H11B16995   1.950   5.435   2.252  0.2078 -0.6862 -1.1237
  153OSM      P16996   2.010   5.247   2.060 -0.0443  0.0042  0.3493
  153OSM    O1316997   2.028   5.107   2.014 -0.5240  0.0298 -0.2638
  153OSM    O1416998   1.990   5.359   1.964 -0.0659  0.5440 -0.1624
  153OSM    O1116999   2.132   5.281   2.150 -0.5257 -0.1815  0.4526
  153OSM    O1217000   1.899   5.245   2.170  0.6072  0.0181  0.2432
  153OSM    C1S17001   2.188   5.180   2.234  0.1779  0.0238 -0.2459
  153OSM    H1S17002   2.225   5.095   2.173 -1.3606 -0.0460 -1.1044
  153OSM    H1T17003   2.110   5.132   2.297  0.2118 -0.1136 -0.3089
  153OSM     NF17004   2.336   5.145   2.428  0.4925  0.9624 -0.2978
  153OSM    HNF17005   2.302   5.158   2.522 -0.6489 -3.4009 -0.0099
  153OSM    C2S17006   2.294   5.241   2.328 -0.2159 -0.1361  0.5355
  153OSM    H2S17007   2.386   5.263   2.269 -0.4959 -2.3577 -0.7849
  153OSM    C3S17008   2.243   5.374   2.395  0.1631 -0.6627  0.2262
  153OSM    H3S17009   2.192   5.434   2.317  1.0820 -0.0121  0.1069
  153OSM     O317010   2.347   5.463   2.429  0.1721 -1.0302  1.0134
  153OSM    HO317011   2.431   5.426   2.401  0.7728  0.0997  1.2859
  153OSM    C4S17012   2.151   5.347   2.507  0.7260 -0.1856 -0.3034
  153OSM    H4S17013   2.048   5.329   2.474  0.0550  2.9190 -0.0477
  153OSM    C5S17014   2.184   5.336   2.641  0.6177  0.2446  0.2708
  153OSM    H5S17015   2.289   5.351   2.671  0.5177  1.5499  0.0060
  153OSM    C6S17016   2.087   5.309   2.756 -0.1307 -0.0312 -0.4896
  153OSM    H6S17017   2.098   5.204   2.791 -2.5230  0.4171  1.7223
  153OSM    H6T17018   1.980   5.319   2.726 -0.8504  1.4202  2.4429
  153OSM    C7S17019   2.108   5.402   2.879 -0.0713 -0.8600 -0.5182
  153OSM    H7S17020   2.214   5.416   2.909  0.2943 -0.0908 -2.0709
  153OSM    H7T17021   2.059   5.349   2.963  0.2676  0.9636  0.8560
  153OSM    C8S17022   2.035   5.534   2.861  1.0553 -0.5106  0.7464
  153OSM    H8S17023   1.929   5.513   2.836  1.2435 -0.1800 -0.3452
  153OSM    H8T17024   2.079   5.583   2.772 -0.0311  1.5650  1.3235
  153OSM    C9S17025   2.063   5.617   2.983 -0.3762  0.6901 -0.7660
  153OSM    H9S17026   2.035   5.718   2.947  1.0463 -0.0626 -4.1971
  153OSM    H9T17027   2.170   5.622   3.009 -0.1050 -0.7487 -1.5382
  153OSM   C10S17028   1.974   5.586   3.104  0.0147  0.0786  0.1555
  153OSM   H10S17029   2.003   5.487   3.146  0.2193 -0.2932 -0.8554
  153OSM   H10T17030   1.866   5.584   3.078  0.3236 -1.3275 -1.0799
  153OSM   C11S17031   2.005   5.680   3.227  0.1487  0.4101 -0.0594
  153OSM   H11S17032   1.989   5.784   3.192  0.4114  0.3114 -0.4678
  153OSM   H11T17033   2.108   5.662   3.266  1.5120  1.7021 -2.9277
  153OSM   C12S17034   1.913   5.642   3.352 -0.0051  0.5327  0.2070
  153OSM   H12S17035   1.915   5.533   3.371 -1.0835  0.3624 -0.6114
  153OSM   H12T17036   1.809   5.671   3.326 -0.7261 -1.3027  1.0140
  153OSM   C13S17037   1.943   5.726   3.481  0.4021  0.1304 -0.2252
  153OSM   H13S17038   1.940   5.835   3.461  0.3948  0.5877  2.1618
  153OSM   H13T17039   2.044   5.691   3.511  0.0947 -1.7693 -1.3028
  153OSM   C14S17040   1.861   5.691   3.605  0.0420 -0.1256 -0.4336
  153OSM   H14S17041   1.889   5.586   3.631 -1.1820 -1.7006 -4.9298
  153OSM   H14T17042   1.759   5.668   3.568  0.0982 -1.5214  0.2513
  153OSM   C15S17043   1.873   5.791   3.717 -0.0772 -0.0517 -0.3363
  153OSM   H15S17044   1.806   5.757   3.799 -2.5250  0.4504 -2.0660
  153OSM   H15T17045   1.839   5.892   3.685  1.7154  0.2895 -1.2140
  153OSM   C16S17046   2.013   5.814   3.776 -0.4551 -0.1003 -0.4554
  153OSM   H16S17047   1.997   5.880   3.864  0.2608  0.1184 -0.4898
  153OSM   H16T17048   2.068   5.868   3.696  1.9278 -1.2974  0.3503
  153OSM   C17S17049   2.070   5.686   3.833 -0.7943 -0.5206  0.3163
  153OSM   H17S17050   2.055   5.604   3.760 -3.3255  0.2308 -0.0474
  153OSM   H17T17051   2.009   5.669   3.924 -0.7427  1.1696  0.6839
  153OSM   C18S17052   2.221   5.706   3.871  0.6371  0.5353  0.8144
  153OSM   H18S17053   2.224   5.787   3.947 -1.3497  0.1781  1.2899
  153OSM   H18T17054   2.288   5.739   3.789 -0.0795  0.5091  0.2129
  153OSM   H18U17055   2.259   5.612   3.916 -0.2005 -0.7870 -1.1870
  153OSM    C1F17056   2.405   5.039   2.391  0.4737 -0.3365  0.4363
  153OSM     OF17057   2.450   5.022   2.273  0.1801 -0.5240  0.4241
  153OSM    C2F17058   2.428   4.935   2.494  0.3551  0.2736  0.6516
  153OSM    H2F17059   2.531   4.940   2.536 -0.9377  1.8129  3.7738
  153OSM    H2G17060   2.400   4.837   2.449 -0.5850 -0.2331  2.3124
  153OSM    C3F17061   2.340   4.950   2.621  0.0671  0.3320  0.7110
  153OSM    H3F17062   2.328   4.849   2.666 -0.4510 -0.0591 -0.2945
  153OSM    H3G17063   2.244   4.981   2.575  1.5055  2.2260 -1.1648
  153OSM    C4F17064   2.380   5.037   2.741  0.0053  0.1127 -0.6891
  153OSM    H4F17065   2.376   5.144   2.712 -0.3987  0.3953  0.3944
  153OSM    H4G17066   2.483   5.016   2.776  0.1165  0.2363 -0.9394
  153OSM    C5F17067   2.295   5.013   2.866  0.3712  0.4170 -0.0639
  153OSM    H5F17068   2.308   4.907   2.897 -2.4883  0.7828  2.7135
  153OSM    H5G17069   2.191   5.033   2.834  0.5207  0.3425 -0.6007
  153OSM    C6F17070   2.359   5.093   2.980  0.4654  0.1789  0.5216
  153OSM    H6F17071   2.357   5.198   2.945  0.8282  0.2134  0.6047
  153OSM    H6G17072   2.464   5.058   2.984  0.8410  0.7762 -2.8266
  153OSM    C7F17073   2.293   5.084   3.121 -0.3146 -0.1257 -0.2709
  153OSM    H7F17074   2.271   4.982   3.158  3.7694 -0.8599  0.2561
  153OSM    H7G17075   2.198   5.140   3.104  0.6498  0.9090 -2.3961
  153OSM    C8F17076   2.377   5.159   3.236 -0.1589  0.5959 -0.5837
  153OSM    H8F17077   2.464   5.093   3.254  0.0437  0.8167 -0.7637
  153OSM    H8G17078   2.318   5.151   3.330  1.2135  1.0941  0.3334
  153OSM    C9F17079   2.432   5.294   3.199  1.0036  0.3363  0.1198
  153OSM    H9F17080   2.513   5.286   3.125 -1.5243 -1.7415 -2.5428
  153OSM   C10F17081   2.399   5.404   3.271  0.1790 -0.2307 -0.5217
  153OSM   H10F17082   2.455   5.497   3.255 -1.3758  0.6850 -0.6762
  153OSM   C11F17083   2.311   5.407   3.386 -0.0546 -0.0722  0.6887
  153OSM   H11F17084   2.237   5.325   3.392 -0.1310  0.0411  1.3136
  153OSM   H11G17085   2.251   5.501   3.385  0.1299  0.0622  1.9699
  153OSM   C12F17086   2.394   5.411   3.520  0.0570  0.4263 -0.1471
  153OSM   H12F17087   2.455   5.318   3.526 -1.4587 -0.7394 -2.3185
  153OSM   H12G17088   2.313   5.399   3.595  1.5452  0.7291  1.5565
  153OSM   C13F17089   2.491   5.533   3.549  0.2298  0.3602  0.7483
  153OSM   H13F17090   2.433   5.626   3.569 -0.0109  0.2846  0.4112
  153OSM   H13G17091   2.557   5.547   3.461  0.8557 -0.0524  1.1541
  153OSM   C14F17092   2.591   5.510   3.663 -0.0923 -0.2171  0.1964
  153OSM   H14F17093   2.542   5.487   3.760  0.0057 -1.6380 -0.0909
  153OSM   H14G17094   2.651   5.601   3.687 -0.3911  0.1367 -0.3734
  153OSM   C15F17095   2.700   5.397   3.640 -0.5871  0.6889  0.1027
  153OSM   H15F17096   2.726   5.406   3.533 -1.0885 -0.5991 -0.1373
  153OSM   H15G17097   2.653   5.298   3.660 -1.7607  1.3824  0.8185
  153OSM   C16F17098   2.830   5.418   3.726  0.1236 -0.5250  0.1957
  153OSM   H16F17099   2.868   5.522   3.713 -0.6145  0.0278  2.2584
  153OSM   H16G17100   2.906   5.345   3.691 -0.5323 -1.3423  0.4649
  153OSM   C17F17101   2.797   5.394   3.876  0.1812  0.1089 -0.6622
  153OSM   H17F17102   2.778   5.285   3.885 -0.7482  0.4258  1.3712
  153OSM   H17G17103   2.707   5.449   3.908  0.4609 -0.8294  1.7918
  153OSM   C18F17104   2.906   5.433   3.979  0.4227  0.1178  0.6697
  153OSM   H18F17105   3.003   5.385   3.952 -0.7493 -1.1003 -1.5731
  153OSM   H18G17106   2.870   5.396   4.077 -0.1558 -3.9440 -0.9810
  153OSM   H18H17107   2.914   5.544   3.984  1.0902  0.1015  0.0688
  154OSM      N17108   0.900   4.656   2.186  1.1396  0.0589 -0.0233
  154OSM    C1517109   1.042   4.623   2.167 -0.4303  0.5727 -0.1502
  154OSM   H15A17110   1.088   4.641   2.072 -0.7943  1.0086 -0.2438
  154OSM   H15B17111   1.061   4.521   2.198  0.9252  0.7609 -0.3561
  154OSM   H15C17112   1.094   4.691   2.232 -0.4630 -0.5715  1.1176
  154OSM    C1417113   0.862   4.631   2.330 -0.8988  0.2520 -0.0390
  154OSM   H14A17114   0.879   4.527   2.353  0.5279  0.0514 -1.8653
  154OSM   H14B17115   0.758   4.652   2.353 -1.3268 -0.3462 -1.3176
  154OSM   H14C17116   0.925   4.694   2.390 -0.3839 -2.0178  1.8475
  154OSM    C1317117   0.873   4.804   2.152  0.2089 -0.7284  0.3244
  154OSM   H13A17118   0.914   4.839   2.059 -0.3793 -0.7046  0.0718
  154OSM   H13B17119   0.918   4.868   2.226 -0.5590 -1.0114  1.0458
  154OSM   H13C17120   0.766   4.819   2.153  0.5085  1.7765 -0.9074
  154OSM    C1217121   0.813   4.570   2.092 -0.1442 -0.6688 -0.1253
  154OSM   H12A17122   0.828   4.591   1.987  2.5369 -2.2441 -0.1175
  154OSM   H12B17123   0.709   4.593   2.107  0.6896  2.5920  1.1436
  154OSM    C1117124   0.838   4.420   2.078 -0.2712 -0.4878 -0.3879
  154OSM   H11A17125   0.931   4.405   2.020  1.6960  2.5755  1.8587
  154OSM   H11B17126   0.757   4.369   2.020  0.2812 -0.7280 -0.9510
  154OSM      P17127   0.948   4.265   2.259 -0.2468 -0.2204  0.0175
  154OSM    O1317128   0.934   4.127   2.211  0.0952  0.1735 -0.0028
  154OSM    O1417129   1.076   4.329   2.231 -0.4665  0.5074 -0.3651
  154OSM    O1117130   0.921   4.266   2.416 -0.1676  0.4242 -0.0249
  154OSM    O1217131   0.837   4.363   2.211 -0.2591  0.1583 -0.6842
  154OSM    C1S17132   1.006   4.191   2.508  0.5034  0.2581 -0.8016
  154OSM    H1S17133   1.099   4.164   2.455  0.1065 -3.1264  0.1294
  154OSM    H1T17134   0.963   4.093   2.539  1.2546 -0.3381 -1.6204
  154OSM     NF17135   1.142   4.209   2.716 -0.1319  0.0873  0.0419
  154OSM    HNF17136   1.103   4.172   2.800 -1.3611 -1.3873 -1.1642
  154OSM    C2S17137   1.049   4.279   2.630 -0.1375  0.2278 -1.0752
  154OSM    H2S17138   1.092   4.372   2.588 -0.9898  0.8265 -0.6462
  154OSM    C3S17139   0.911   4.323   2.711 -0.3534 -0.7268 -0.3026
  154OSM    H3S17140   0.871   4.232   2.762  1.8335 -1.8143 -0.4580
  154OSM     O317141   0.800   4.372   2.629 -0.4092  0.0412  0.4001
  154OSM    HO317142   0.841   4.370   2.542 -0.1167  0.7838  0.5175
  154OSM    C4S17143   0.949   4.415   2.823 -0.0805 -0.2452  0.0139
  154OSM    H4S17144   0.997   4.378   2.915  1.7864  2.3848  0.1604
  154OSM    C5S17145   0.942   4.551   2.817  0.0297  0.1285  0.3124
  154OSM    H5S17146   0.919   4.619   2.733 -1.2642 -1.9144 -1.0173
  154OSM    C6S17147   0.981   4.637   2.933  0.3118  0.3190 -0.8334
  154OSM    H6S17148   1.006   4.740   2.900 -0.1300  1.2096  1.4934
  154OSM    H6T17149   1.071   4.598   2.984  0.4529 -1.6572 -2.5378
  154OSM    C7S17150   0.871   4.637   3.037 -0.5847  0.5198 -1.0500
  154OSM    H7S17151   0.833   4.535   3.060 -0.6747  0.8594  0.3978
  154OSM    H7T17152   0.789   4.703   3.001  1.1145  4.0922  1.2769
  154OSM    C8S17153   0.932   4.712   3.161 -0.3192  0.0980 -0.5569
  154OSM    H8S17154   0.974   4.805   3.116  1.4250  0.9110  2.5855
  154OSM    H8T17155   1.021   4.660   3.204 -0.3669  0.6467  0.2155
  154OSM    C9S17156   0.821   4.747   3.263  0.6051 -0.3706 -0.0727
  154OSM    H9S17157   0.778   4.651   3.298  1.7570 -1.4416 -1.4899
  154OSM    H9T17158   0.736   4.802   3.218 -0.7426 -1.0494  1.5825
  154OSM   C10S17159   0.883   4.824   3.377  0.4940  0.5037  0.4834
  154OSM   H10S17160   0.805   4.874   3.439 -1.9496 -0.7743 -1.4574
  154OSM   H10T17161   0.963   4.892   3.342 -0.4013  0.2150 -2.2219
  154OSM   C11S17162   0.945   4.727   3.486 -0.1194 -0.4663 -0.6293
  154OSM   H11S17163   1.021   4.670   3.428  0.4361 -0.1954 -0.1705
  154OSM   H11T17164   0.868   4.660   3.528 -0.4438  0.0752 -0.3527
  154OSM   C12S17165   1.019   4.804   3.593 -0.6646  0.2625 -0.2902
  154OSM   H12S17166   0.939   4.867   3.638 -0.0685  0.0770  1.0535
  154OSM   H12T17167   1.104   4.861   3.550 -1.5778  1.5091 -0.4883
  154OSM   C13S17168   1.050   4.707   3.708  0.0605  0.1266  0.1252
  154OSM   H13S17169   1.146   4.655   3.687  0.3640  0.7857 -0.1496
  154OSM   H13T17170   0.975   4.628   3.730 -0.5369  0.7475  0.3301
  154OSM   C14S17171   1.055   4.773   3.848 -0.0548  1.0122 -0.1430
  154OSM   H14S17172   0.950   4.784   3.883 -0.8672 -3.8129 -0.7534
  154OSM   H14T17173   1.115   4.866   3.838  0.3459  0.9869  1.8402
  154OSM   C15S17174   1.110   4.684   3.960  0.3778  0.3154  0.0133
  154OSM   H15S17175   1.209   4.637   3.942 -0.8760 -1.9762 -1.1421
  154OSM   H15T17176   1.043   4.597   3.976  0.7404  0.3763  2.0251
  154OSM   C16S17177   1.105   4.760   4.100 -0.0313 -0.5789 -0.4399
  154OSM   H16S17178   1.144   4.864   4.101  3.0542 -1.6612 -1.1802
  154OSM   H16T17179   1.176   4.701   4.163 -0.4929 -1.1316 -0.4401
  154OSM   C17S17180   0.975   4.757   4.179 -0.5311 -0.2090 -0.3465
  154OSM   H17S17181   0.958   4.647   4.190  1.0401 -0.3748  0.6433
  154OSM   H17T17182   0.884   4.798   4.130 -0.4827  0.6352  0.2758
  154OSM   C18S17183   0.977   4.820   4.315  0.1256 -0.3324 -0.8913
  154OSM   H18S17184   1.014   4.924   4.299  0.6549 -0.2559  0.7454
  154OSM   H18T17185   1.050   4.774   4.384  0.2257  0.6537 -0.3309
  154OSM   H18U17186   0.878   4.824   4.366  2.3601  2.2681  3.5305
  154OSM    C1F17187   1.270   4.181   2.683 -0.7873 -0.0762 -0.6970
  154OSM     OF17188   1.318   4.212   2.577 -0.2450 -0.3359  0.1804
  154OSM    C2F17189   1.347   4.111   2.789  0.2452 -0.0571  0.5474
  154OSM    H2F17190   1.408   4.034   2.737 -0.8008  0.4230 -1.4387
  154OSM    H2G17191   1.279   4.059   2.860  0.4827 -2.8168 -1.1724
  154OSM    C3F17192   1.441   4.209   2.870  0.5645 -0.8744  0.0173
  154OSM    H3F17193   1.511   4.266   2.805  0.3487  1.2322  1.5748
  154OSM    H3G17194   1.494   4.153   2.950 -1.1839  1.2277  2.7464
  154OSM    C4F17195   1.359   4.310   2.954 -0.6058 -0.4342  0.4338
  154OSM    H4F17196   1.290   4.368   2.890 -0.1712  1.5753  1.7162
  154OSM    H4G17197   1.436   4.379   2.996 -1.3464  0.9188 -0.4203
  154OSM    C5F17198   1.277   4.254   3.074  0.2429 -0.4599 -0.0515
  154OSM    H5F17199   1.340   4.203   3.149 -0.7938 -1.3898  0.1930
  154OSM    H5G17200   1.211   4.176   3.033 -1.5922  0.9399  0.1642
  154OSM    C6F17201   1.198   4.362   3.151 -0.4903 -0.6133  0.2014
  154OSM    H6F17202   1.169   4.445   3.083 -0.5332 -0.7209  0.0882
  154OSM    H6G17203   1.260   4.410   3.229  0.3911 -2.5221  0.7170
  154OSM    C7F17204   1.060   4.310   3.195  0.2801 -0.3886 -0.2241
  154OSM    H7F17205   1.021   4.251   3.109 -0.2416 -2.6826  1.5575
  154OSM    H7G17206   0.990   4.395   3.209  1.0420  0.5136 -1.7478
  154OSM    C8F17207   1.071   4.223   3.323 -0.2327  0.7003  0.2647
  154OSM    H8F17208   1.158   4.155   3.322 -0.6070  0.2333 -0.4527
  154OSM    H8G17209   0.977   4.163   3.323  0.5903 -0.6188  1.2208
  154OSM    C9F17210   1.083   4.307   3.447 -0.0587  1.1069  0.5662
  154OSM    H9F17211   1.152   4.393   3.438  3.2119 -1.5747 -1.0583
  154OSM   C10F17212   1.013   4.286   3.561  0.6176  0.2301  1.0256
  154OSM   H10F17213   1.025   4.358   3.644 -4.0719  0.4121  1.7147
  154OSM   C11F17214   0.909   4.176   3.585  0.2887  0.3885 -0.2310
  154OSM   H11F17215   0.838   4.167   3.501 -1.8139 -0.0374  1.5279
  154OSM   H11G17216   0.842   4.210   3.667  1.0075 -0.6871  0.8157
  154OSM   C12F17217   0.963   4.031   3.618 -0.3631 -0.4364 -0.1597
  154OSM   H12F17218   1.002   4.013   3.720  0.0009  1.6255  0.0966
  154OSM   H12G17219   1.040   4.004   3.542  0.5054 -0.4224  0.7058
  154OSM   C13F17220   0.849   3.929   3.622  0.5724  0.2817  0.9762
  154OSM   H13F17221   0.888   3.827   3.643 -1.4048 -0.9740 -1.2423
  154OSM   H13G17222   0.806   3.928   3.519 -2.3615 -1.1629  2.1658
  154OSM   C14F17223   0.728   3.968   3.708  0.3784  0.1915  0.4550
  154OSM   H14F17224   0.647   3.900   3.673  2.5701 -2.5028  0.4784
  154OSM   H14G17225   0.694   4.068   3.675 -1.1409 -0.5701 -0.3741
  154OSM   C15F17226   0.741   3.958   3.854 -0.4293 -0.1412 -0.9088
  154OSM   H15F17227   0.843   3.919   3.874 -1.4467 -1.3797  2.2918
  154OSM   H15G17228   0.674   3.876   3.888  0.6767 -0.5803  0.2904
  154OSM   C16F17229   0.720   4.092   3.926 -0.1568  0.0646  0.2365
  154OSM   H16F17230   0.619   4.136   3.910 -0.3103  0.2113  1.5851
  154OSM   H16G17231   0.802   4.156   3.887  0.8534 -0.8105  0.9017
  154OSM   C17F17232   0.724   4.084   4.078  0.6927  0.7319 -0.0141
  154OSM   H17F17233   0.819   4.038   4.112 -0.4194 -1.2441  0.4479
  154OSM   H17G17234   0.641   4.013   4.098  2.5678 -2.7884 -3.8902
  154OSM   C18F17235   0.701   4.223   4.144  0.2266 -0.1842 -0.2187
  154OSM   H18F17236   0.684   4.229   4.253  0.0538  0.4823 -0.2812
  154OSM   H18G17237   0.604   4.258   4.101  0.1299  0.9571  0.9122
  154OSM   H18H17238   0.782   4.292   4.113  1.6613 -1.2844  0.9713
  155OSM      N17239   2.232   1.148   2.079 -0.2982  0.0912  0.4661
  155OSM    C1517240   2.143   1.268   2.064 -0.3906 -0.0866  1.0506
  155OSM   H15A17241   2.205   1.356   2.067 -0.9365  0.4240 -1.6184
  155OSM   H15B17242   2.074   1.262   2.147 -1.1121 -1.1799  0.3901
  155OSM   H15C17243   2.093   1.262   1.969 -1.5845 -0.9689  1.7175
  155OSM    C1417244   2.152   1.019   2.047 -0.1040  0.0276 -0.0383
  155OSM   H14A17245   2.216   0.932   2.051 -0.9154 -0.4689  3.9932
  155OSM   H14B17246   2.110   1.039   1.949 -0.7883 -0.5150  0.1470
  155OSM   H14C17247   2.074   1.015   2.121  0.7451  0.2968  0.8844
  155OSM    C1317248   2.336   1.159   1.972 -0.8338 -0.2801 -0.0076
  155OSM   H13A17249   2.389   1.252   1.974 -0.5256 -0.4687  1.1925
  155OSM   H13B17250   2.305   1.161   1.869 -0.0940 -1.1446 -0.2473
  155OSM   H13C17251   2.416   1.086   1.972 -1.0686 -0.5729 -2.1055
  155OSM    C1217252   2.288   1.125   2.221  0.7190  0.2448  0.0710
  155OSM   H12A17253   2.335   1.217   2.254  0.6003  0.2254  0.2961
  155OSM   H12B17254   2.367   1.051   2.219  3.1520  2.7467 -1.3816
  155OSM    C1117255   2.187   1.090   2.332 -0.0292 -0.2800  0.3187
  155OSM   H11A17256   2.248   1.117   2.420  1.2688  5.0148 -1.9831
  155OSM   H11B17257   2.150   0.986   2.341  1.9438 -0.9156  1.2161
  155OSM      P17258   1.937   1.162   2.385  0.2199 -0.1111 -0.1630
  155OSM    O1317259   1.862   1.287   2.371  0.2963  0.1701  0.5454
  155OSM    O1417260   1.880   1.056   2.302 -0.9346  0.1605  0.5614
  155OSM    O1117261   1.930   1.113   2.531  0.6780 -0.1199 -0.2931
  155OSM    O1217262   2.082   1.189   2.331  0.0447 -0.7668 -0.2959
  155OSM    C1S17263   1.984   1.182   2.647  0.1552  0.3433  0.9048
  155OSM    H1S17264   1.999   1.290   2.626  0.7594 -0.4372 -3.0919
  155OSM    H1T17265   2.081   1.136   2.674  1.1817  2.3421  0.7418
  155OSM     NF17266   1.945   1.229   2.886 -0.7688  0.5291 -0.1266
  155OSM    HNF17267   1.966   1.180   2.970 -0.1356  2.9607  1.2082
  155OSM    C2S17268   1.886   1.163   2.766  0.0586  0.4631  0.0033
  155OSM    H2S17269   1.794   1.217   2.735 -2.6501 -2.7024  2.2023
  155OSM    C3S17270   1.854   1.015   2.785 -1.2166 -0.5802  0.3956
  155OSM    H3S17271   1.946   0.953   2.795 -2.0309 -2.0287 -0.8129
  155OSM     O317272   1.796   0.947   2.672 -0.1875  0.2020 -0.4115
  155OSM    HO317273   1.829   1.009   2.606 -1.7342 -0.8325 -2.2322
  155OSM    C4S17274   1.780   1.009   2.912  0.4624 -0.3205 -0.1857
  155OSM    H4S17275   1.679   1.054   2.916  0.6529  0.5154 -3.5440
  155OSM    C5S17276   1.807   0.924   3.016 -0.6719 -0.0512  0.3520
  155OSM    H5S17277   1.898   0.862   3.015 -1.1472 -0.7893 -3.0964
  155OSM    C6S17278   1.727   0.916   3.146 -0.1093 -0.4754 -0.7120
  155OSM    H6S17279   1.694   0.812   3.168  1.0717 -1.1345 -1.9340
  155OSM    H6T17280   1.635   0.977   3.148  0.5337  0.4569  1.8836
  155OSM    C7S17281   1.814   0.964   3.262  0.3127  0.5721 -0.6307
  155OSM    H7S17282   1.739   0.992   3.339  1.3331  1.7584 -0.0427
  155OSM    H7T17283   1.877   1.053   3.241 -1.8563  2.3450  0.2167
  155OSM    C8S17284   1.889   0.842   3.325  0.1421  0.2777 -0.5153
  155OSM    H8S17285   1.954   0.790   3.251  3.1011  1.9922  0.7970
  155OSM    H8T17286   1.814   0.772   3.367 -0.5962  1.5363  0.2848
  155OSM    C9S17287   1.983   0.882   3.442  1.2975  0.0232  0.1437
  155OSM    H9S17288   2.041   0.974   3.417 -1.4124  1.6292 -0.3829
  155OSM    H9T17289   2.051   0.798   3.467  1.4165  0.0833  0.0247
  155OSM   C10S17290   1.894   0.907   3.568  0.0981 -0.6465  0.0738
  155OSM   H10S17291   1.854   0.811   3.606  1.5754 -1.4820 -0.4550
  155OSM   H10T17292   1.801   0.952   3.529  0.3539 -1.6535 -1.7119
  155OSM   C11S17293   1.948   0.990   3.683  1.1919  0.5208 -0.1951
  155OSM   H11S17294   1.971   1.083   3.627  3.0274 -0.8963 -1.8534
  155OSM   H11T17295   2.049   0.967   3.721  0.5749 -1.1532  0.4714
  155OSM   C12S17296   1.847   1.015   3.791 -0.5977 -0.0176 -0.4998
  155OSM   H12S17297   1.745   1.037   3.753 -1.4514  1.9654  2.7435
  155OSM   H12T17298   1.881   1.100   3.855 -0.1246 -0.5006 -0.1021
  155OSM   C13S17299   1.847   0.890   3.879 -0.3737  0.1246 -0.7662
  155OSM   H13S17300   1.949   0.871   3.918 -1.1831 -0.8554  0.9548
  155OSM   H13T17301   1.824   0.796   3.823  0.0966 -0.4279 -0.0449
  155OSM   C14S17302   1.746   0.897   3.993  0.1811 -0.2481 -0.4902
  155OSM   H14S17303   1.644   0.870   3.959  0.2166 -1.4128  0.2834
  155OSM   H14T17304   1.733   0.999   4.035  1.5899 -1.1293  2.2553
  155OSM   C15S17305   1.779   0.807   4.112  0.1333 -1.0507  0.7496
  155OSM   H15S17306   1.881   0.817   4.156  0.6309  1.0049 -0.7847
  155OSM   H15T17307   1.782   0.707   4.065  0.0048  0.6584 -3.0564
  155OSM   C16S17308   1.679   0.813   4.229  0.3014 -0.4826  0.3815
  155OSM   H16S17309   1.581   0.863   4.214  0.1374 -0.8707  0.1428
  155OSM   H16T17310   1.723   0.877   4.308  0.6810 -3.0901  2.3699
  155OSM   C17S17311   1.660   0.676   4.285  0.2644 -0.3906 -0.2109
  155OSM   H17S17312   1.762   0.637   4.308  0.1018  0.1352  1.5391
  155OSM   H17T17313   1.613   0.607   4.213 -1.4278  0.1158  0.3717
  155OSM   C18S17314   1.578   0.650   4.412  0.1587 -0.6115 -0.0533
  155OSM   H18S17315   1.470   0.671   4.395 -0.5487 -3.0368  1.2270
  155OSM   H18T17316   1.618   0.707   4.498 -0.1300 -0.4003 -0.0579
  155OSM   H18U17317   1.578   0.544   4.446 -1.3135 -0.2467  1.1440
  155OSM    C1F17318   1.958   1.361   2.890  0.2572 -0.4601  0.0871
  155OSM     OF17319   1.916   1.432   2.797 -0.2229  0.2702 -0.3862
  155OSM    C2F17320   2.027   1.420   3.011  0.5234 -0.4792  0.1296
  155OSM    H2F17321   2.124   1.369   3.031  0.7890  0.2543  0.7318
  155OSM    H2G17322   1.959   1.396   3.095 -0.4941  2.9822  0.3743
  155OSM    C3F17323   2.051   1.570   2.990 -0.3735  0.2017 -0.0729
  155OSM    H3F17324   1.972   1.626   2.935 -0.1429  0.7567  0.1556
  155OSM    H3G17325   2.143   1.573   2.928 -1.0030  1.1464 -0.9758
  155OSM    C4F17326   2.096   1.644   3.112 -0.0663 -0.0605 -0.3095
  155OSM    H4F17327   2.165   1.591   3.181  2.3174  0.8421 -1.9353
  155OSM    H4G17328   2.005   1.672   3.171  1.0388  1.0983  0.8824
  155OSM    C5F17329   2.166   1.774   3.066  0.4055  0.5185  0.6664
  155OSM    H5F17330   2.112   1.814   2.977  2.8072 -1.3923 -1.7474
  155OSM    H5G17331   2.272   1.757   3.038  0.2342 -0.7492  0.7816
  155OSM    C6F17332   2.170   1.874   3.178 -0.3222 -0.3071 -0.8490
  155OSM    H6F17333   2.214   1.816   3.262 -0.2544  0.5237 -0.3049
  155OSM    H6G17334   2.065   1.909   3.190 -0.5601 -0.3262 -2.6797
  155OSM    C7F17335   2.246   2.002   3.147 -0.1018  0.4939 -0.0248
  155OSM    H7F17336   2.218   2.058   3.055  2.7193  0.2071 -1.1195
  155OSM    H7G17337   2.342   1.964   3.104 -0.5334  1.5023 -1.9143
  155OSM    C8F17338   2.272   2.100   3.265 -1.1224 -0.8498  0.6058
  155OSM    H8F17339   2.316   2.197   3.232  0.8946 -0.9626  2.8088
  155OSM    H8G17340   2.348   2.065   3.338 -2.7849 -0.8648  2.3860
  155OSM    C9F17341   2.144   2.144   3.341 -0.3715  0.3475  0.4344
  155OSM    H9F17342   2.046   2.156   3.292 -0.9984  1.1069  1.8367
  155OSM   C10F17343   2.136   2.174   3.471 -0.3612  0.3023 -0.1429
  155OSM   H10F17344   2.034   2.193   3.509  0.0004  0.0420  0.9883
  155OSM   C11F17345   2.249   2.176   3.572  0.2156 -0.9099 -0.3117
  155OSM   H11F17346   2.346   2.223   3.543  0.0934 -0.7384 -0.4387
  155OSM   H11G17347   2.274   2.080   3.622  1.8103 -0.3869 -0.0648
  155OSM   C12F17348   2.200   2.276   3.676  0.3406  0.5807  0.1989
  155OSM   H12F17349   2.100   2.260   3.722  0.3949 -2.5807 -0.6477
  155OSM   H12G17350   2.197   2.383   3.646  2.6501  0.2956 -1.1437
  155OSM   C13F17351   2.302   2.266   3.800 -0.5188  0.2059 -0.3402
  155OSM   H13F17352   2.401   2.290   3.756  0.3025  0.0802  1.3981
  155OSM   H13G17353   2.307   2.164   3.842  2.3217  0.8209  0.9107
  155OSM   C14F17354   2.275   2.359   3.917  0.3777 -0.0971 -0.1334
  155OSM   H14F17355   2.168   2.349   3.944 -0.3503 -0.5645 -2.9345
  155OSM   H14G17356   2.272   2.462   3.876 -1.2079  0.7010  1.9398
  155OSM   C15F17357   2.387   2.341   4.020  0.1104  0.2211  0.4295
  155OSM   H15F17358   2.479   2.355   3.959  1.2539  0.9586  2.2910
  155OSM   H15G17359   2.381   2.232   4.044 -0.9549 -0.2052 -1.6713
  155OSM   C16F17360   2.385   2.447   4.127 -0.2536 -0.8130  0.4414
  155OSM   H16F17361   2.282   2.454   4.168 -1.4293 -3.4515 -1.8833
  155OSM   H16G17362   2.401   2.549   4.086  0.6726 -1.8205 -1.7972
  155OSM   C17F17363   2.477   2.420   4.241  0.4028 -0.2883 -0.4531
  155OSM   H17F17364   2.575   2.415   4.189  1.5541 -0.5014  1.6778
  155OSM   H17G17365   2.449   2.327   4.295  0.0417 -0.9326 -1.7284
  155OSM   C18F17366   2.482   2.544   4.336  0.1439  0.1675 -0.2462
  155OSM   H18F17367   2.386   2.584   4.375  0.4061  0.9022 -0.3503
  155OSM   H18G17368   2.540   2.625   4.288  0.8646 -1.1848 -1.7269
  155OSM   H18H17369   2.545   2.514   4.422  0.3101  0.6698 -0.1897
  156OSM      N17370   5.464   6.064   1.746  0.7328  0.1440  0.3841
  156OSM    C1517371   5.378   6.103   1.632 -0.0253 -0.5157 -0.3627
  156OSM   H15A17372   5.399   6.053   1.539 -0.4903 -3.5577  1.1139
  156OSM   H15B17373   5.378   6.211   1.623  1.4321 -0.5260 -0.5556
  156OSM   H15C17374   5.283   6.058   1.654  1.0152 -2.2865  0.6263
  156OSM    C1417375   5.448   5.925   1.776 -0.2467  0.5402 -0.3043
  156OSM   H14A17376   5.471   5.869   1.687  0.7942  0.4210  0.0357
  156OSM   H14B17377   5.350   5.901   1.815 -1.2867  2.8779 -1.3780
  156OSM   H14C17378   5.520   5.887   1.847 -0.2526 -2.3832 -1.8143
  156OSM    C1317379   5.601   6.095   1.704 -0.5773 -0.3655 -0.3045
  156OSM   H13A17380   5.622   6.201   1.699 -1.8637  0.0097  1.6176
  156OSM   H13B17381   5.634   6.046   1.614  1.3250  1.2907 -0.5493
  156OSM   H13C17382   5.672   6.070   1.781 -1.3148  0.4000  0.6420
  156OSM    C1217383   5.422   6.146   1.871 -0.3276  0.2424 -0.5838
  156OSM   H12A17384   5.318   6.134   1.898 -0.3222  0.2195 -0.5741
  156OSM   H12B17385   5.435   6.251   1.848  0.7449  0.1012 -0.6654
  156OSM    C1117386   5.500   6.129   2.001  0.0387  0.2503 -0.0742
  156OSM   H11A17387   5.471   6.201   2.080  0.7200  0.9346 -0.4518
  156OSM   H11B17388   5.601   6.159   1.967  0.0604 -1.2991 -1.4724
  156OSM      P17389   5.367   5.928   2.116 -0.1975 -0.1411 -0.3694
  156OSM    O1317390   5.237   5.990   2.085  0.2473  0.0564  0.2654
  156OSM    O1417391   5.386   5.785   2.082 -0.0992  0.1719 -0.0198
  156OSM    O1117392   5.389   5.936   2.272  0.0028 -0.0503  0.1848
  156OSM    O1217393   5.498   5.993   2.045  0.5020 -0.4349  0.3272
  156OSM    C1S17394   5.458   6.045   2.335 -0.1891  0.3591  1.1501
  156OSM    H1S17395   5.404   6.141   2.341  1.9890  1.6223  0.9849
  156OSM    H1T17396   5.557   6.057   2.287  0.2484 -2.1374  1.3459
  156OSM     NF17397   5.524   6.121   2.557  0.5408  0.7091 -0.1094
  156OSM    HNF17398   5.609   6.136   2.607 -0.0071 -0.8671  1.3345
  156OSM    C2S17399   5.492   6.003   2.477 -0.4313  0.1800 -0.6132
  156OSM    H2S17400   5.402   5.958   2.523  1.0320 -0.9606  1.2403
  156OSM    C3S17401   5.600   5.894   2.481 -0.4958  0.0764 -0.0819
  156OSM    H3S17402   5.690   5.937   2.432 -1.0507  1.1790 -0.1524
  156OSM     O317403   5.573   5.783   2.404  0.7158 -0.4414 -0.4806
  156OSM    HO317404   5.497   5.822   2.360 -0.5422 -2.5460 -0.2116
  156OSM    C4S17405   5.628   5.864   2.629  0.0196  0.1850  0.4145
  156OSM    H4S17406   5.730   5.883   2.665 -0.0047 -0.9223  1.0663
  156OSM    C5S17407   5.540   5.804   2.711  0.3469  0.1299 -0.3751
  156OSM    H5S17408   5.437   5.779   2.683  0.4351 -1.0467  0.3254
  156OSM    C6S17409   5.575   5.775   2.854 -0.2271 -0.1876  0.9909
  156OSM    H6S17410   5.685   5.776   2.871  0.1570  0.1047 -1.2891
  156OSM    H6T17411   5.557   5.667   2.875  0.8246 -0.7741 -0.9299
  156OSM    C7S17412   5.489   5.856   2.953 -0.1976 -1.0101  0.2590
  156OSM    H7S17413   5.380   5.834   2.955 -0.8273  2.0704  2.0121
  156OSM    H7T17414   5.501   5.964   2.934  0.1866 -1.3295 -1.3866
  156OSM    C8S17415   5.533   5.827   3.094 -0.1490 -0.2603 -0.0897
  156OSM    H8S17416   5.640   5.856   3.107 -0.3583  1.3437 -1.6967
  156OSM    H8T17417   5.523   5.720   3.120  2.1399 -0.2443  0.9434
  156OSM    C9S17418   5.447   5.903   3.202  0.1123  0.6576 -0.3063
  156OSM    H9S17419   5.345   5.860   3.190 -0.5506  1.6158  1.6902
  156OSM    H9T17420   5.446   6.011   3.177 -0.6277  1.0848  1.4984
  156OSM   C10S17421   5.506   5.889   3.347 -0.1313  0.6067  0.8448
  156OSM   H10S17422   5.597   5.952   3.360  0.2205  0.0913  0.8849
  156OSM   H10T17423   5.516   5.783   3.377  3.9091  0.6787 -0.0164
  156OSM   C11S17424   5.403   5.945   3.449 -0.1261 -0.4218 -0.4100
  156OSM   H11S17425   5.309   5.886   3.437 -0.2442 -0.3283  0.0089
  156OSM   H11T17426   5.387   6.054   3.444 -1.3846 -0.4233  2.3672
  156OSM   C12S17427   5.453   5.903   3.586 -0.7444  0.2039  0.5325
  156OSM   H12S17428   5.544   5.963   3.605  0.5505 -2.2325  2.3388
  156OSM   H12T17429   5.471   5.793   3.586 -0.8025  0.1947  0.5989
  156OSM   C13S17430   5.357   5.943   3.704  0.0619 -0.2870 -0.0206
  156OSM   H13S17431   5.260   5.890   3.695  0.1366  0.0035 -3.1571
  156OSM   H13T17432   5.339   6.052   3.694  0.7659 -0.1756 -0.1236
  156OSM   C14S17433   5.424   5.898   3.835 -0.4854  0.7217  0.3847
  156OSM   H14S17434   5.530   5.930   3.828 -0.1201 -0.7822 -1.7437
  156OSM   H14T17435   5.415   5.787   3.840 -0.4205  0.6199 -1.2726
  156OSM   C15S17436   5.354   5.945   3.968  0.0662  0.1709  0.0211
  156OSM   H15S17437   5.370   6.054   3.978 -0.1791  0.3556 -1.4849
  156OSM   H15T17438   5.419   5.905   4.049  1.2963  0.6135 -0.7305
  156OSM   C16S17439   5.217   5.897   3.997  0.2035 -0.2688  0.5029
  156OSM   H16S17440   5.212   5.787   3.985  2.4319 -0.0622 -2.9293
  156OSM   H16T17441   5.148   5.939   3.921  0.9705 -0.7472 -0.4737
  156OSM   C17S17442   5.168   5.922   4.144  0.2607  0.3361  0.1572
  156OSM   H17S17443   5.193   6.024   4.182  1.8827  0.4973 -1.2521
  156OSM   H17T17444   5.223   5.847   4.204 -0.7831 -0.4716  0.1014
  156OSM   C18S17445   5.023   5.883   4.168 -0.2697  0.1736  0.2074
  156OSM   H18S17446   4.957   5.942   4.100 -2.5252 -0.9727  1.3231
  156OSM   H18T17447   5.005   5.911   4.274  3.2137  3.1799  0.1078
  156OSM   H18U17448   5.018   5.773   4.155  0.9060 -0.3967  4.1762
  156OSM    C1F17449   5.423   6.201   2.597  0.1787 -0.0686  0.2871
  156OSM     OF17450   5.307   6.173   2.566  0.5370 -0.0052 -0.3256
  156OSM    C2F17451   5.452   6.310   2.685  0.2853  0.3471  0.4222
  156OSM    H2F17452   5.374   6.390   2.680  0.4681  0.5322  0.5550
  156OSM    H2G17453   5.541   6.362   2.644  0.0824  0.6357  0.3477
  156OSM    C3F17454   5.484   6.247   2.827  0.7454  0.9692 -0.3259
  156OSM    H3F17455   5.575   6.185   2.818  0.9836  1.3909 -0.8422
  156OSM    H3G17456   5.389   6.193   2.849  1.6863 -0.5789  0.0226
  156OSM    C4F17457   5.496   6.356   2.933 -0.3701 -0.0570 -0.1459
  156OSM    H4F17458   5.403   6.417   2.929 -0.0646  0.3692 -0.8737
  156OSM    H4G17459   5.584   6.420   2.915  1.4121 -2.3601  0.1715
  156OSM    C5F17460   5.497   6.296   3.074 -0.3953  0.7668 -0.7671
  156OSM    H5F17461   5.594   6.242   3.083 -1.6266 -1.1979  1.2510
  156OSM    H5G17462   5.424   6.213   3.077  0.5823 -0.1773 -2.3235
  156OSM    C6F17463   5.481   6.399   3.185  0.3902  0.1672  0.3623
  156OSM    H6F17464   5.382   6.447   3.173  0.3347 -0.3702 -1.5710
  156OSM    H6G17465   5.564   6.473   3.186  0.4121  0.1384  1.0632
  156OSM    C7F17466   5.486   6.328   3.319 -0.3365  0.5504 -0.8280
  156OSM    H7F17467   5.590   6.300   3.346 -1.0464 -1.1758  0.2309
  156OSM    H7G17468   5.420   6.239   3.321  1.3421 -0.6958 -0.2413
  156OSM    C8F17469   5.436   6.420   3.437 -0.2942  0.3357  0.2626
  156OSM    H8F17470   5.328   6.438   3.423 -0.4281 -2.0793 -2.2959
  156OSM    H8G17471   5.487   6.518   3.426 -0.5621  0.3641 -0.7350
  156OSM    C9F17472   5.463   6.366   3.575 -0.3626  0.9602  0.5609
  156OSM    H9F17473   5.569   6.375   3.603  0.1472 -0.9383 -0.6555
  156OSM   C10F17474   5.376   6.318   3.666  0.0947  0.1515  0.7077
  156OSM   H10F17475   5.421   6.286   3.760 -2.1744 -2.8467  0.8597
  156OSM   C11F17476   5.225   6.302   3.660 -0.6238  0.5641  0.2584
  156OSM   H11F17477   5.213   6.195   3.631  1.3774  0.8705 -1.8761
  156OSM   H11G17478   5.179   6.359   3.577 -2.4442 -1.7599 -0.3988
  156OSM   C12F17479   5.147   6.338   3.780 -0.4127 -0.2806  0.2760
  156OSM   H12F17480   5.194   6.318   3.878  0.5179  3.0202  0.5701
  156OSM   H12G17481   5.056   6.277   3.760  0.0466 -0.9368  0.1999
  156OSM   C13F17482   5.096   6.487   3.796 -0.4469 -0.1527  0.1713
  156OSM   H13F17483   5.061   6.527   3.699 -0.3011 -1.4514 -0.4212
  156OSM   H13G17484   5.180   6.547   3.837  0.4990 -1.3999  0.0952
  156OSM   C14F17485   4.986   6.500   3.894  0.2239  0.1540  0.0110
  156OSM   H14F17486   5.019   6.478   3.998  1.6341 -1.2674 -0.7298
  156OSM   H14G17487   4.912   6.421   3.871  2.1380 -0.7759 -3.1945
  156OSM   C15F17488   4.919   6.633   3.897 -0.5899  0.4570  0.3031
  156OSM   H15F17489   4.905   6.672   3.794 -0.6770  1.1326  0.5719
  156OSM   H15G17490   4.987   6.699   3.955 -0.3276 -0.7710  1.3957
  156OSM   C16F17491   4.775   6.620   3.955  0.2250 -0.8468 -1.0119
  156OSM   H16F17492   4.787   6.569   4.053 -1.1126  0.7400  0.0083
  156OSM   H16G17493   4.719   6.553   3.886  0.9844 -2.2085 -0.3109
  156OSM   C17F17494   4.710   6.756   3.970 -0.2407 -0.0281 -0.1011
  156OSM   H17F17495   4.779   6.827   4.021 -1.2414 -0.0770  1.3338
  156OSM   H17G17496   4.618   6.747   4.030 -0.8093 -1.9784 -1.2097
  156OSM   C18F17497   4.662   6.827   3.837  0.6675 -0.5263  0.0304
  156OSM   H18F17498   4.615   6.924   3.865  0.4860 -0.8975  0.9943
  156OSM   H18G17499   4.583   6.760   3.797 -1.2222  1.2707  0.6313
  156OSM   H18H17500   4.743   6.839   3.761  0.8283 -0.8750  0.1497
  157OSM      N17501   5.116   0.253   1.839 -0.4104  0.7076  0.1304
  157OSM    C1517502   5.262   0.214   1.849 -0.2780  0.3939 -1.0819
  157OSM   H15A17503   5.325   0.294   1.813  1.4214 -0.5320 -0.2108
  157OSM   H15B17504   5.283   0.119   1.802  2.4644 -0.4151  1.6052
  157OSM   H15C17505   5.289   0.210   1.954 -0.3211 -0.9156 -1.1178
  157OSM    C1417506   5.101   0.394   1.889  0.2730 -0.5573  0.6055
  157OSM   H14A17507   5.003   0.421   1.925 -0.3954 -1.5320 -0.4271
  157OSM   H14B17508   5.132   0.460   1.810  1.0693  0.4548  1.7491
  157OSM   H14C17509   5.170   0.408   1.970 -0.1894 -0.3550  0.9683
  157OSM    C1317510   5.070   0.236   1.699 -0.0886 -0.7412  0.0576
  157OSM   H13A17511   5.104   0.144   1.654  0.0963 -0.0662 -1.2160
  157OSM   H13B17512   5.104   0.320   1.640 -1.6231 -0.7300 -0.8476
  157OSM   H13C17513   4.963   0.238   1.685 -0.2811 -0.7025  1.4681
  157OSM    C1217514   5.033   0.165   1.926 -0.0908 -0.0206 -0.0068
  157OSM   H12A17515   5.085   0.134   2.016 -0.0451  0.8028  0.2538
  157OSM   H12B17516   5.008   0.072   1.877 -0.5696  0.0538  0.0893
  157OSM    C1117517   4.895   0.222   1.983  0.2764  0.2456  0.6282
  157OSM   H11A17518   4.834   0.134   2.013  0.8136 -0.0304  0.9101
  157OSM   H11B17519   4.834   0.260   1.898 -0.2774 -3.7536 -0.8645
  157OSM      P17520   4.937   0.283   2.230  0.2419 -0.0508 -0.2236
  157OSM    O1317521   4.876   0.153   2.269 -0.4505 -0.3084  0.1372
  157OSM    O1417522   5.078   0.305   2.254  0.6349  0.4343  0.1534
  157OSM    O1117523   4.867   0.394   2.325 -0.1860  0.4362 -0.3454
  157OSM    O1217524   4.898   0.325   2.084  0.2095 -0.3931  0.1718
  157OSM    C1S17525   4.728   0.415   2.306  0.5910  0.2019  0.1098
  157OSM    H1S17526   4.669   0.321   2.305  0.1561  0.4725  0.2608
  157OSM    H1T17527   4.703   0.458   2.207 -2.6796  0.9993  1.2274
  157OSM     NF17528   4.527   0.506   2.408  0.1492 -0.4587 -0.0530
  157OSM    HNF17529   4.485   0.575   2.351  1.2665  0.2271 -0.0601
  157OSM    C2S17530   4.669   0.511   2.409 -0.3760 -0.0299  0.2614
  157OSM    H2S17531   4.709   0.483   2.508  0.3462  1.9906  0.5662
  157OSM    C3S17532   4.725   0.656   2.380  0.2720 -0.2025 -0.5958
  157OSM    H3S17533   4.673   0.690   2.288  2.5614  0.8572 -1.5248
  157OSM     O317534   4.859   0.665   2.353 -0.2839 -0.1511  0.2278
  157OSM    HO317535   4.873   0.575   2.322 -1.0787 -0.4950  0.8682
  157OSM    C4S17536   4.696   0.745   2.496  0.2777 -0.4179 -0.0106
  157OSM    H4S17537   4.631   0.830   2.471  1.5398  0.3590 -0.6967
  157OSM    C5S17538   4.742   0.725   2.628 -0.6394  0.6791  0.4875
  157OSM    H5S17539   4.813   0.643   2.647  1.4094  2.0207 -1.1200
  157OSM    C6S17540   4.721   0.816   2.753 -0.4254  0.1281  0.0294
  157OSM    H6S17541   4.687   0.916   2.719  0.6084  0.7271  0.7372
  157OSM    H6T17542   4.808   0.846   2.815 -0.9671  1.3848  0.1772
  157OSM    C7S17543   4.618   0.760   2.847 -0.0194 -0.4621 -0.4991
  157OSM    H7S17544   4.529   0.736   2.786  1.6648 -0.4015 -3.0882
  157OSM    H7T17545   4.597   0.842   2.919  0.3680  0.2625 -1.1933
  157OSM    C8S17546   4.681   0.639   2.924  0.0463  0.1681 -0.1649
  157OSM    H8S17547   4.709   0.558   2.853 -1.6342 -1.0381  0.5048
  157OSM    H8T17548   4.597   0.593   2.981  0.1412 -0.5033 -0.5542
  157OSM    C9S17549   4.793   0.673   3.030  0.6088  0.5864  0.4021
  157OSM    H9S17550   4.761   0.771   3.072 -1.3009  0.1686 -0.0351
  157OSM    H9T17551   4.884   0.690   2.969 -0.5967  4.1435 -0.5228
  157OSM   C10S17552   4.810   0.565   3.128 -0.0157  0.8701 -0.1071
  157OSM   H10S17553   4.834   0.466   3.085  1.8286  1.8657 -1.4675
  157OSM   H10T17554   4.712   0.559   3.181  0.0574  4.4936  0.5734
  157OSM   C11S17555   4.916   0.597   3.234  0.0982 -0.1983 -0.0683
  157OSM   H11S17556   5.014   0.631   3.196  0.1472 -0.7471 -0.4211
  157OSM   H11T17557   4.918   0.513   3.306 -0.4909  0.5399  0.8400
  157OSM   C12S17558   4.886   0.721   3.332 -0.1612  0.0702  0.3631
  157OSM   H12S17559   4.784   0.724   3.376 -0.3861  1.5516 -0.2059
  157OSM   H12T17560   4.896   0.812   3.268 -2.5353 -0.5291 -0.9615
  157OSM   C13S17561   4.996   0.725   3.437  0.1818 -0.3065 -0.1490
  157OSM   H13S17562   5.092   0.711   3.383  1.2253  3.0159  0.7623
  157OSM   H13T17563   4.986   0.639   3.507  0.0351 -0.6509 -0.5856
  157OSM   C14S17564   5.015   0.862   3.507  0.3478  0.6895  0.5780
  157OSM   H14S17565   4.921   0.895   3.556  0.4613 -1.3428  2.2502
  157OSM   H14T17566   5.055   0.943   3.443  2.3898 -0.6855  0.0734
  157OSM   C15S17567   5.109   0.854   3.633  0.5657 -0.4343 -0.1313
  157OSM   H15S17568   5.205   0.809   3.597  1.5884  0.9432  0.8211
  157OSM   H15T17569   5.072   0.789   3.716  0.5444 -0.9025 -0.5070
  157OSM   C16S17570   5.144   0.991   3.680  0.1173 -1.2864 -0.0870
  157OSM   H16S17571   5.054   1.054   3.701 -1.0705 -3.4367  1.4477
  157OSM   H16T17572   5.195   1.042   3.595 -2.8365  3.2291  0.6218
  157OSM   C17S17573   5.225   1.000   3.811  0.2722  0.0680 -0.0168
  157OSM   H17S17574   5.181   0.937   3.891  0.7807 -2.6165 -1.7925
  157OSM   H17T17575   5.237   1.102   3.853 -0.2125  0.5033 -0.9382
  157OSM   C18S17576   5.366   0.934   3.802  0.5879  0.1664 -0.0483
  157OSM   H18S17577   5.349   0.826   3.782  1.2617 -0.1183  0.8468
  157OSM   H18T17578   5.413   0.958   3.900 -0.1540 -0.9854  0.6041
  157OSM   H18U17579   5.416   0.979   3.714 -0.3488  0.6724 -0.3204
  157OSM    C1F17580   4.463   0.408   2.471 -0.0177 -0.4450  0.7877
  157OSM     OF17581   4.523   0.313   2.508 -0.5741  0.4335  0.0381
  157OSM    C2F17582   4.316   0.409   2.476  0.1207  0.0604  0.0373
  157OSM    H2F17583   4.272   0.347   2.394  1.1979  0.1412 -0.6081
  157OSM    H2G17584   4.290   0.514   2.450 -0.9336 -0.2706 -0.2837
  157OSM    C3F17585   4.259   0.375   2.610  0.3457  0.7424  0.5972
  157OSM    H3F17586   4.326   0.303   2.663 -0.2640  0.0903  0.4827
  157OSM    H3G17587   4.162   0.324   2.594 -0.5585  2.5137  0.3813
  157OSM    C4F17588   4.239   0.488   2.707  0.8229 -0.5542 -0.4560
  157OSM    H4F17589   4.139   0.534   2.694  0.3457 -2.2315 -3.1077
  157OSM    H4G17590   4.315   0.565   2.685 -0.4977  1.6116  2.1975
  157OSM    C5F17591   4.259   0.460   2.853 -0.6391  0.1933 -0.1733
  157OSM    H5F17592   4.350   0.400   2.874  0.0999  2.0162  2.0745
  157OSM    H5G17593   4.173   0.406   2.897 -1.5628  2.9300  1.5205
  157OSM    C6F17594   4.267   0.590   2.939 -0.2735  0.2556 -1.2095
  157OSM    H6F17595   4.176   0.652   2.927 -0.3381  0.4472  0.1393
  157OSM    H6G17596   4.355   0.650   2.907  1.7436 -0.6122  2.4059
  157OSM    C7F17597   4.273   0.564   3.091 -0.1267 -0.0308 -0.4661
  157OSM    H7F17598   4.343   0.479   3.108  1.1108  1.3239  1.4496
  157OSM    H7G17599   4.169   0.532   3.114 -0.5794  0.4317 -1.8556
  157OSM    C8F17600   4.317   0.681   3.170  0.1808 -0.3159 -0.7735
  157OSM    H8F17601   4.258   0.764   3.125  3.3891  2.0998 -0.6656
  157OSM    H8G17602   4.427   0.694   3.157  0.2505  0.3171  0.4086
  157OSM    C9F17603   4.282   0.664   3.315 -0.4548 -0.2016  0.2212
  157OSM    H9F17604   4.340   0.585   3.364 -0.6458 -0.8564 -0.5947
  157OSM   C10F17605   4.202   0.737   3.400 -0.1124  0.1939  0.3648
  157OSM   H10F17606   4.220   0.725   3.508  0.7280 -0.9840  0.1156
  157OSM   C11F17607   4.124   0.863   3.356  0.3392 -0.5605  0.6942
  157OSM   H11F17608   4.088   0.869   3.251 -2.6380  0.9930  1.7252
  157OSM   H11G17609   4.193   0.950   3.358 -0.1372 -0.1128 -1.2133
  157OSM   C12F17610   4.004   0.878   3.448 -0.1088 -0.2064  0.0908
  157OSM   H12F17611   3.922   0.803   3.444 -1.8810  1.6954 -0.1293
  157OSM   H12G17612   3.950   0.969   3.413  0.2948  0.3034  0.7654
  157OSM   C13F17613   4.042   0.908   3.595  0.5434 -0.0137 -0.2360
  157OSM   H13F17614   4.140   0.960   3.593 -0.1735  1.3590 -0.7439
  157OSM   H13G17615   4.062   0.812   3.647  1.8437  0.0107 -0.6797
  157OSM   C14F17616   3.955   1.005   3.683 -0.3520  0.0675 -0.1513
  157OSM   H14F17617   3.851   0.964   3.686 -0.2248 -0.2158  0.6216
  157OSM   H14G17618   3.947   1.097   3.623 -0.9907 -0.1662 -0.4307
  157OSM   C15F17619   4.006   1.022   3.828  0.3971 -0.6949 -0.7711
  157OSM   H15F17620   4.105   1.072   3.822 -0.8682  1.8406 -1.1398
  157OSM   H15G17621   4.011   0.922   3.877 -0.8645  0.2976  1.4402
  157OSM   C16F17622   3.921   1.102   3.923  0.0018 -0.7435  1.0115
  157OSM   H16F17623   3.832   1.044   3.957 -2.7600  2.6612 -0.0717
  157OSM   H16G17624   3.881   1.187   3.864 -1.2932 -1.2999  1.0513
  157OSM   C17F17625   3.996   1.161   4.039  0.6133 -0.4837 -0.0195
  157OSM   H17F17626   4.085   1.211   3.996  1.3575  0.0416  2.0587
  157OSM   H17G17627   4.031   1.079   4.106  3.2513  1.1951  0.7114
  157OSM   C18F17628   3.906   1.251   4.121  0.2792  0.1630  0.2293
  157OSM   H18F17629   3.968   1.319   4.183 -0.9439  0.4022  1.2209
  157OSM   H18G17630   3.846   1.191   4.193 -0.7673  0.8518 -0.0645
  157OSM   H18H17631   3.847   1.313   4.051 -2.2436 -3.5260 -1.0852
  158OSM      N17632   1.305   6.501   1.983 -0.3503  0.0500  0.0417
  158OSM    C1517633   1.314   6.649   2.003  0.0785  0.2516  0.0426
  158OSM   H15A17634   1.352   6.705   1.919 -0.7178  0.1435 -0.3920
  158OSM   H15B17635   1.384   6.662   2.085  0.4055  0.2731 -0.2373
  158OSM   H15C17636   1.217   6.675   2.043  0.8219  1.4797  1.0765
  158OSM    C1417637   1.239   6.444   2.107 -0.8305 -0.0396 -0.2233
  158OSM   H14A17638   1.304   6.451   2.193 -0.7795  0.8776 -0.3250
  158OSM   H14B17639   1.212   6.341   2.090 -0.6001 -0.1784  0.2694
  158OSM   H14C17640   1.145   6.494   2.123 -1.7099 -0.7946 -2.8283
  158OSM    C1317641   1.214   6.479   1.873  0.0307 -0.0831 -0.9774
  158OSM   H13A17642   1.118   6.526   1.888 -0.7056 -1.6987 -0.5917
  158OSM   H13B17643   1.202   6.378   1.836  0.1124 -0.5802  0.3443
  158OSM   H13C17644   1.256   6.532   1.789  0.4830  0.2376 -0.5495
  158OSM    C1217645   1.439   6.435   1.970 -0.1462 -0.2296 -0.4142
  158OSM   H12A17646   1.488   6.473   1.881 -1.2847  0.4698 -0.7462
  158OSM   H12B17647   1.443   6.329   1.952 -1.6438 -0.4367  0.4091
  158OSM    C1117648   1.550   6.468   2.079 -0.2928 -0.2400  0.2046
  158OSM   H11A17649   1.551   6.578   2.087 -2.4596 -0.2193  0.6531
  158OSM   H11B17650   1.656   6.444   2.058 -0.5173 -1.7528  0.7207
  158OSM      P17651   1.538   6.277   2.256 -0.0030 -0.4516 -0.8071
  158OSM    O1317652   1.449   6.247   2.370  0.0608 -0.3582 -0.1931
  158OSM    O1417653   1.529   6.186   2.144  0.0514 -0.1732  0.0498
  158OSM    O1117654   1.689   6.279   2.294  0.5023  0.2118 -0.2130
  158OSM    O1217655   1.511   6.428   2.215  0.4459  0.0379 -0.0358
  158OSM    C1S17656   1.728   6.375   2.391 -0.2553  0.6415 -0.4750
  158OSM    H1S17657   1.677   6.472   2.372 -1.3740  0.0531 -0.5361
  158OSM    H1T17658   1.835   6.394   2.369  0.1882 -1.7452 -0.5421
  158OSM     NF17659   1.765   6.428   2.625 -0.2621 -0.6603  0.5943
  158OSM    HNF17660   1.864   6.425   2.634  0.0053 -1.7057 -2.3400
  158OSM    C2S17661   1.709   6.329   2.539  0.1234 -0.5557 -0.9870
  158OSM    H2S17662   1.602   6.324   2.571  0.7141  2.3199  1.6469
  158OSM    C3S17663   1.774   6.185   2.556 -0.3951 -0.5179 -0.9389
  158OSM    H3S17664   1.879   6.197   2.521 -0.7813  2.3117 -1.2057
  158OSM     O317665   1.705   6.083   2.483 -0.4323 -0.2626 -0.0943
  158OSM    HO317666   1.646   6.125   2.421 -1.3582  1.1021  1.6783
  158OSM    C4S17667   1.772   6.151   2.702 -0.5829  0.1850  0.3858
  158OSM    H4S17668   1.669   6.143   2.738 -1.1093  2.6977 -0.4497
  158OSM    C5S17669   1.871   6.113   2.782 -0.1189  0.6218  0.3098
  158OSM    H5S17670   1.973   6.111   2.739 -0.5443  0.2429 -0.6822
  158OSM    C6S17671   1.849   6.077   2.927  0.3745 -0.9638  0.1646
  158OSM    H6S17672   1.882   5.972   2.938  0.2110 -1.1406 -1.0060
  158OSM    H6T17673   1.740   6.075   2.948  0.5610  0.6680  1.4405
  158OSM    C7S17674   1.898   6.182   3.026 -0.3567  0.5541  0.2946
  158OSM    H7S17675   1.836   6.274   3.026 -0.4168  0.5622  3.8290
  158OSM    H7T17676   2.004   6.212   3.013  0.4219 -2.8138 -2.0007
  158OSM    C8S17677   1.871   6.127   3.168 -0.2781  0.6798 -0.4013
  158OSM    H8S17678   1.910   6.023   3.181  1.8430  1.2386 -1.9934
  158OSM    H8T17679   1.764   6.121   3.195 -0.3911  1.9659 -0.5640
  158OSM    C9S17680   1.943   6.214   3.274 -0.2578 -1.3746  0.3386
  158OSM    H9S17681   1.908   6.320   3.267  2.7590 -0.2375  1.6872
  158OSM    H9T17682   2.053   6.211   3.260 -0.3519  0.0760 -1.0044
  158OSM   C10S17683   1.932   6.177   3.422 -0.4508 -1.1020 -0.1290
  158OSM   H10S17684   1.981   6.080   3.448 -0.9086 -1.4675 -0.6064
  158OSM   H10T17685   1.826   6.166   3.454 -0.2577 -2.3806  0.1270
  158OSM   C11S17686   2.009   6.285   3.514  0.6821  0.0826  0.3885
  158OSM   H11S17687   1.944   6.374   3.503 -0.6251 -0.5335  2.8428
  158OSM   H11T17688   2.106   6.316   3.470  1.3324 -0.3545  1.4785
  158OSM   C12S17689   2.014   6.241   3.662 -0.0111  0.3224 -0.3084
  158OSM   H12S17690   2.060   6.140   3.670 -1.5720 -0.3642  0.3428
  158OSM   H12T17691   1.911   6.220   3.699  0.2969  1.8477  1.4835
  158OSM   C13S17692   2.094   6.338   3.743  0.5732 -0.8618  0.5273
  158OSM   H13S17693   2.050   6.439   3.757  0.9529 -0.4440 -1.1480
  158OSM   H13T17694   2.182   6.359   3.678 -0.5710  0.5257 -0.6260
  158OSM   C14S17695   2.143   6.276   3.874  0.4954  0.0338  0.6540
  158OSM   H14S17696   2.201   6.186   3.844 -0.0285 -0.6663  1.7145
  158OSM   H14T17697   2.060   6.253   3.944  1.7367 -0.3549  2.0330
  158OSM   C15S17698   2.239   6.374   3.949 -0.5599 -0.3107 -0.7535
  158OSM   H15S17699   2.194   6.475   3.960  1.4415  0.4828  0.5855
  158OSM   H15T17700   2.316   6.400   3.874 -1.0931 -0.7331 -1.4463
  158OSM   C16S17701   2.291   6.334   4.087  0.0725  0.4719  0.0736
  158OSM   H16S17702   2.399   6.361   4.095  0.4755 -0.6397 -1.5143
  158OSM   H16T17703   2.281   6.225   4.105 -0.1062  0.4874  0.0635
  158OSM   C17S17704   2.223   6.415   4.200  0.9765 -0.5560 -0.6264
  158OSM   H17S17705   2.250   6.356   4.290  1.7455 -0.8591 -1.0551
  158OSM   H17T17706   2.116   6.408   4.170  0.0860  0.5593  2.0878
  158OSM   C18S17707   2.258   6.565   4.214 -0.3881  0.1730 -0.2983
  158OSM   H18S17708   2.188   6.629   4.272  0.3168  0.9383 -0.2856
  158OSM   H18T17709   2.257   6.618   4.117 -0.6215 -0.3430 -0.5764
  158OSM   H18U17710   2.361   6.570   4.256 -0.4753 -1.1260  0.1179
  158OSM    C1F17711   1.693   6.546   2.638  0.7809 -0.4737 -0.0328
  158OSM     OF17712   1.587   6.572   2.580 -0.0750 -0.9708 -0.3695
  158OSM    C2F17713   1.751   6.652   2.728 -0.1371 -0.3832 -0.0515
  158OSM    H2F17714   1.750   6.747   2.670 -0.2040 -0.4788 -0.2069
  158OSM    H2G17715   1.858   6.634   2.749 -0.8018 -1.6732  2.4019
  158OSM    C3F17716   1.668   6.689   2.853  0.1794  0.4715 -0.6666
  158OSM    H3F17717   1.561   6.708   2.827 -0.1709 -1.3606 -0.6331
  158OSM    H3G17718   1.698   6.794   2.877  0.0926  0.2128  0.5964
  158OSM    C4F17719   1.673   6.580   2.958 -0.0866 -0.1239  0.4898
  158OSM    H4F17720   1.781   6.563   2.974 -0.0186 -0.8068 -0.6218
  158OSM    H4G17721   1.635   6.481   2.925  1.3155  0.2336 -2.3318
  158OSM    C5F17722   1.613   6.632   3.092 -0.0621 -0.1060  0.3675
  158OSM    H5F17723   1.508   6.652   3.060  0.0286  0.6593  0.5518
  158OSM    H5G17724   1.652   6.729   3.129 -0.1975  0.0903 -0.0093
  158OSM    C6F17725   1.630   6.533   3.207  0.5662  0.8118  0.2446
  158OSM    H6F17726   1.741   6.525   3.216  0.5873  0.0685 -0.6240
  158OSM    H6G17727   1.598   6.428   3.191  0.7200  0.6730  0.8180
  158OSM    C7F17728   1.571   6.590   3.335  0.2980  0.7478 -0.5029
  158OSM    H7F17729   1.473   6.636   3.307  1.0461  1.3060 -2.2531
  158OSM    H7G17730   1.637   6.669   3.377  1.0646  0.1650 -0.6198
  158OSM    C8F17731   1.538   6.486   3.449 -0.7152 -0.3751  0.5402
  158OSM    H8F17732   1.472   6.406   3.411  0.1703 -1.6918  1.7459
  158OSM    H8G17733   1.463   6.533   3.515 -0.4543 -3.4785  3.1501
  158OSM    C9F17734   1.667   6.443   3.516  0.3169 -0.5709  0.4502
  158OSM    H9F17735   1.740   6.387   3.456  0.4591 -0.8222  0.8521
  158OSM   C10F17736   1.710   6.476   3.640  0.6409  0.0698  0.4630
  158OSM   H10F17737   1.810   6.455   3.680  0.5586  1.6114  1.5202
  158OSM   C11F17738   1.630   6.565   3.738  0.4613 -0.2729 -0.0514
  158OSM   H11F17739   1.537   6.510   3.763 -0.0944  0.3215 -0.7743
  158OSM   H11G17740   1.597   6.661   3.693  1.8883  2.1132  3.7663
  158OSM   C12F17741   1.715   6.609   3.865  0.5459 -0.7469  0.2593
  158OSM   H12F17742   1.649   6.687   3.909 -1.6476 -2.8122  0.7216
  158OSM   H12G17743   1.806   6.652   3.819  1.1820 -2.5342 -0.1978
  158OSM   C13F17744   1.732   6.498   3.966 -0.1654 -0.2548 -0.2611
  158OSM   H13F17745   1.791   6.409   3.933  0.3900  0.3378 -0.8555
  158OSM   H13G17746   1.630   6.462   3.991 -0.4312 -1.1213 -2.4602
  158OSM   C14F17747   1.797   6.548   4.087  0.6997 -0.0402 -0.1496
  158OSM   H14F17748   1.734   6.618   4.145 -0.3746  1.3440 -2.8713
  158OSM   H14G17749   1.891   6.602   4.061  0.7699 -0.8791 -1.7330
  158OSM   C15F17750   1.846   6.442   4.183  0.4904  0.3525 -0.7094
  158OSM   H15F17751   1.947   6.459   4.226  0.2630 -1.2548  0.4816
  158OSM   H15G17752   1.857   6.347   4.126  0.7231  0.4429 -0.8164
  158OSM   C16F17753   1.751   6.429   4.307  0.1897  0.0498 -0.4894
  158OSM   H16F17754   1.652   6.399   4.269  0.2381 -0.3339 -0.3123
  158OSM   H16G17755   1.743   6.529   4.356 -2.9191 -1.0573  1.4059
  158OSM   C17F17756   1.810   6.320   4.405 -0.6737  0.1949  0.3320
  158OSM   H17F17757   1.906   6.367   4.437  0.4783 -3.2130  2.1800
  158OSM   H17G17758   1.830   6.236   4.336 -1.8338 -0.2296  0.5044
  158OSM   C18F17759   1.734   6.293   4.535  0.7526 -0.4073  0.2863
  158OSM   H18F17760   1.628   6.269   4.510  0.1184 -1.4517  3.7155
  158OSM   H18G17761   1.739   6.380   4.604  0.5973 -0.8594  0.8669
  158OSM   H18H17762   1.779   6.204   4.583 -0.2512 -0.0548  1.9133
  159OSM      N17763   3.639   7.327   2.323  0.2487 -0.0025  0.2618
  159OSM    C1517764   3.522   7.382   2.238  0.6457  1.0610 -0.6469
  159OSM   H15A17765   3.557   7.474   2.192  0.0766  1.1413 -0.9291
  159OSM   H15B17766   3.438   7.402   2.303 -1.2283 -0.6497 -2.4734
  159OSM   H15C17767   3.486   7.313   2.164  1.9123 -0.4135  0.0989
  159OSM    C1417768   3.639   7.369   2.468  0.3943  0.2611  0.5284
  159OSM   H14A17769   3.557   7.322   2.519  0.2897 -0.2961 -0.1481
  159OSM   H14B17770   3.646   7.476   2.485 -0.0038  0.3658  0.0211
  159OSM   H14C17771   3.725   7.325   2.517  0.9470 -0.1161 -0.7592
  159OSM    C1317772   3.616   7.181   2.324 -0.3522 -0.5851 -0.3377
  159OSM   H13A17773   3.703   7.121   2.343 -2.2629 -3.2759  0.2968
  159OSM   H13B17774   3.581   7.145   2.228  0.8685 -0.7661 -0.7158
  159OSM   H13C17775   3.550   7.163   2.407  0.2528  0.6482  0.4180
  159OSM    C1217776   3.767   7.361   2.252  0.7436 -0.0657 -0.5075
  159OSM   H12A17777   3.770   7.469   2.258 -1.7060  0.0047 -0.2759
  159OSM   H12B17778   3.745   7.332   2.150  2.3755  0.0972 -0.9207
  159OSM    C1117779   3.905   7.314   2.307  0.8002  0.1056 -0.1042
  159OSM   H11A17780   3.902   7.340   2.415 -1.8836 -4.1640  0.9954
  159OSM   H11B17781   3.991   7.371   2.265  1.9534 -0.3524  1.5987
  159OSM      P17782   4.040   7.084   2.362 -0.3291  0.1414  0.4116
  159OSM    O1317783   4.114   6.999   2.261  0.0162  0.3892 -0.2569
  159OSM    O1417784   4.123   7.167   2.452 -0.2788 -0.0356 -0.7846
  159OSM    O1117785   3.940   6.991   2.446 -0.5035 -0.6866  0.2200
  159OSM    O1217786   3.935   7.180   2.285 -0.3063  0.0898 -0.0809
  159OSM    C1S17787   3.832   7.035   2.531  0.3126 -0.7259 -0.7450
  159OSM    H1S17788   3.750   6.961   2.527  2.1791 -3.0313  2.0056
  159OSM    H1T17789   3.786   7.129   2.494 -1.7184 -0.9760  1.0714
  159OSM     NF17790   3.967   7.147   2.697  0.8585 -0.3844  0.0263
  159OSM    HNF17791   4.059   7.121   2.666  1.4104  0.7826  0.6551
  159OSM    C2S17792   3.859   7.054   2.680 -0.4046 -0.1041 -1.7360
  159OSM    H2S17793   3.768   7.096   2.727  0.1947  0.6762 -1.2483
  159OSM    C3S17794   3.891   6.911   2.739  0.7073  0.2724 -0.1509
  159OSM    H3S17795   3.977   6.856   2.696  0.8271  0.3875 -0.0600
  159OSM     O317796   3.777   6.824   2.737 -0.1080  0.4224  0.1855
  159OSM    HO317797   3.723   6.886   2.687 -0.3040 -0.3920 -0.6377
  159OSM    C4S17798   3.943   6.924   2.878 -0.1997 -0.4730  0.1446
  159OSM    H4S17799   4.052   6.923   2.869 -0.3835  1.0916 -2.5983
  159OSM    C5S17800   3.889   6.929   3.000  0.3782  0.0233  0.4202
  159OSM    H5S17801   3.780   6.923   3.018  0.3035  2.8684  1.1821
  159OSM    C6S17802   3.968   6.951   3.127  0.2682 -0.4704 -0.0736
  159OSM    H6S17803   4.070   6.986   3.101  0.7220 -2.6363 -1.3111
  159OSM    H6T17804   3.968   6.851   3.175 -0.4255 -1.3985 -1.9460
  159OSM    C7S17805   3.905   7.063   3.212 -0.7672  0.6506 -0.2653
  159OSM    H7S17806   3.797   7.039   3.214 -0.7906  0.6844 -0.9380
  159OSM    H7T17807   3.913   7.163   3.165 -0.2081  1.1648  0.9081
  159OSM    C8S17808   3.961   7.075   3.355  0.3002  0.3873 -1.0149
  159OSM    H8S17809   4.070   7.097   3.360  0.5456 -1.1407  1.0108
  159OSM    H8T17810   3.947   6.976   3.403 -0.6520 -1.2006 -4.3843
  159OSM    C9S17811   3.889   7.178   3.443 -0.1330  0.0139 -0.2661
  159OSM    H9S17812   3.779   7.172   3.423 -0.6085 -0.5346  2.2439
  159OSM    H9T17813   3.928   7.274   3.405  2.6563 -1.4004 -1.0761
  159OSM   C10S17814   3.911   7.164   3.591 -0.2654 -0.3444  0.1997
  159OSM   H10S17815   4.016   7.187   3.620 -0.4891  4.6428 -2.2579
  159OSM   H10T17816   3.879   7.065   3.627 -1.7484 -0.6360 -1.8138
  159OSM   C11S17817   3.821   7.271   3.657 -0.0950 -0.0553  0.0093
  159OSM   H11S17818   3.719   7.276   3.613  0.3931  2.6180 -0.9435
  159OSM   H11T17819   3.866   7.369   3.631 -1.6294  0.6961  0.1277
  159OSM   C12S17820   3.829   7.262   3.812  0.8187 -0.6903 -0.6555
  159OSM   H12S17821   3.931   7.250   3.852  1.0484  1.5687 -0.5074
  159OSM   H12T17822   3.770   7.169   3.827  2.1322 -1.2357  1.2255
  159OSM   C13S17823   3.761   7.376   3.889 -0.5713  0.1312  0.5714
  159OSM   H13S17824   3.659   7.385   3.847 -0.7834  1.5903  1.3665
  159OSM   H13T17825   3.803   7.476   3.863 -0.8210 -0.2542 -1.4366
  159OSM   C14S17826   3.741   7.341   4.031 -0.0492 -0.2313 -0.5476
  159OSM   H14S17827   3.829   7.306   4.089 -0.2250  0.0832 -0.0903
  159OSM   H14T17828   3.666   7.259   4.034  0.7020 -0.9068  0.2560
  159OSM   C15S17829   3.677   7.455   4.116 -0.6095 -0.1899 -0.3384
  159OSM   H15S17830   3.746   7.542   4.121  1.3719 -1.6483 -1.4547
  159OSM   H15T17831   3.673   7.420   4.221 -1.2284  1.5954  0.2475
  159OSM   C16S17832   3.540   7.497   4.070  0.3913 -0.0807  0.7743
  159OSM   H16S17833   3.477   7.407   4.051  1.0519 -0.2159 -0.8526
  159OSM   H16T17834   3.548   7.571   3.987 -0.3580 -0.2637  0.5290
  159OSM   C17S17835   3.469   7.575   4.178  0.4480  0.0406 -0.3646
  159OSM   H17S17836   3.527   7.662   4.213  0.8610 -0.2542 -0.3082
  159OSM   H17T17837   3.450   7.507   4.264  0.0128  1.0732  0.3641
  159OSM   C18S17838   3.325   7.615   4.123 -0.1269  0.1441  0.0090
  159OSM   H18S17839   3.337   7.693   4.045  1.3492  1.1232  1.1556
  159OSM   H18T17840   3.270   7.656   4.210 -1.8147  0.1659 -1.0611
  159OSM   H18U17841   3.263   7.533   4.082  0.0190  0.2860 -0.4998
  159OSM    C1F17842   3.932   7.277   2.695 -0.9104  0.0996 -0.3029
  159OSM     OF17843   3.820   7.313   2.699 -0.2001 -0.2284 -0.0868
  159OSM    C2F17844   4.044   7.377   2.677 -0.2084 -0.0270  0.3951
  159OSM    H2F17845   4.010   7.474   2.719  0.0957  1.0297 -1.7497
  159OSM    H2G17846   4.061   7.379   2.567 -1.0066  2.1899  0.2900
  159OSM    C3F17847   4.175   7.321   2.740  0.1547  0.2692 -0.0523
  159OSM    H3F17848   4.255   7.397   2.728 -0.2438  0.4710 -1.6211
  159OSM    H3G17849   4.210   7.229   2.687 -0.7090 -0.9670  1.4838
  159OSM    C4F17850   4.156   7.299   2.895 -0.2431 -0.7226  0.3045
  159OSM    H4F17851   4.259   7.275   2.930  0.2513 -0.7947 -1.1586
  159OSM    H4G17852   4.106   7.201   2.910 -3.1260  0.4378 -1.3758
  159OSM    C5F17853   4.103   7.412   2.976  0.1257  0.0864  0.0914
  159OSM    H5F17854   3.992   7.408   2.976  0.0249  1.6691 -2.3248
  159OSM    H5G17855   4.157   7.494   2.923  3.0713 -1.5277  0.5078
  159OSM    C6F17856   4.150   7.408   3.122 -0.6079 -0.2024 -0.1669
  159OSM    H6F17857   4.260   7.417   3.128 -0.5723 -1.0842  0.6149
  159OSM    H6G17858   4.120   7.305   3.151  0.5091 -0.5378 -0.1827
  159OSM    C7F17859   4.081   7.499   3.221 -0.4995 -0.3479 -0.4067
  159OSM    H7F17860   3.973   7.477   3.233 -0.2270 -3.5012 -3.0948
  159OSM    H7G17861   4.074   7.605   3.190  1.3795  0.1831  0.8932
  159OSM    C8F17862   4.143   7.496   3.368  0.7637  0.5890  0.3862
  159OSM    H8F17863   4.152   7.386   3.386  2.2472  0.5074 -0.7801
  159OSM    H8G17864   4.065   7.535   3.436 -2.4867 -1.3932 -2.0676
  159OSM    C9F17865   4.271   7.568   3.401 -0.3956 -0.8293  0.0982
  159OSM    H9F17866   4.351   7.540   3.331  0.2190 -2.6772  1.5046
  159OSM   C10F17867   4.297   7.665   3.490  0.1732  0.3354  0.6378
  159OSM   H10F17868   4.399   7.698   3.514  0.3689 -0.5163  1.0146
  159OSM   C11F17869   4.203   7.722   3.589 -0.3849 -0.6477 -0.2760
  159OSM   H11F17870   4.106   7.668   3.582 -0.8717  0.3712 -1.7857
  159OSM   H11G17871   4.189   7.831   3.578 -0.3994 -0.5027  1.1572
  159OSM   C12F17872   4.245   7.703   3.732 -0.0791  0.6239  0.5699
  159OSM   H12F17873   4.340   7.760   3.746 -0.2141  0.5921  1.6638
  159OSM   H12G17874   4.261   7.596   3.754  0.5012  0.7975  1.0185
  159OSM   C13F17875   4.155   7.769   3.835  0.3197  0.0846  0.0641
  159OSM   H13F17876   4.056   7.719   3.836 -0.0996  0.9147  0.3958
  159OSM   H13G17877   4.137   7.876   3.809 -1.6690 -0.9765 -3.1982
  159OSM   C14F17878   4.213   7.742   3.978 -0.3697 -0.5734  0.0265
  159OSM   H14F17879   4.208   7.831   4.044  2.1295 -2.3719  2.7816
  159OSM   H14G17880   4.316   7.705   3.960 -1.1788 -1.9508 -2.0008
  159OSM   C15F17881   4.138   7.640   4.056 -0.2976  0.4166  0.2805
  159OSM   H15F17882   4.121   7.546   3.999 -4.8850  1.8284 -0.9100
  159OSM   H15G17883   4.037   7.672   4.087 -0.0283  0.8861  0.6764
  159OSM   C16F17884   4.219   7.590   4.185 -0.1643  0.1800  0.2138
  159OSM   H16F17885   4.234   7.681   4.247 -1.6672  0.6846 -0.1430
  159OSM   H16G17886   4.324   7.560   4.166  0.4770  2.8543 -0.6045
  159OSM   C17F17887   4.134   7.487   4.259  0.7485 -0.6066 -0.5589
  159OSM   H17F17888   4.130   7.406   4.183 -1.9896 -0.5767 -0.4710
  159OSM   H17G17889   4.032   7.529   4.268  0.7148 -0.7101 -0.4566
  159OSM   C18F17890   4.184   7.431   4.392 -1.0108 -0.1623 -0.0007
  159OSM   H18F17891   4.181   7.521   4.458 -0.4370  1.6453 -2.3668
  159OSM   H18G17892   4.287   7.393   4.380 -1.3946 -1.5762  1.0353
  159OSM   H18H17893   4.112   7.359   4.437 -0.7845 -0.6928 -0.4934
  160OSM      N17894   1.234   1.201   1.975 -0.0737 -0.5438 -0.7144
  160OSM    C1517895   1.246   1.275   1.847  0.8795  0.3083 -0.1415
  160OSM   H15A17896   1.196   1.225   1.765 -1.4043 -1.1306  2.0447
  160OSM   H15B17897   1.350   1.295   1.829  1.2060  0.0611  1.3978
  160OSM   H15C17898   1.195   1.370   1.859  1.1748  0.4814 -0.2404
  160OSM    C1417899   1.266   1.296   2.093  0.4909 -0.4993 -0.2383
  160OSM   H14A17900   1.351   1.357   2.067  0.6742  0.1755  1.8678
  160OSM   H14B17901   1.298   1.239   2.179 -2.3453  2.5449  2.9564
  160OSM   H14C17902   1.185   1.357   2.129 -1.3766 -3.5326  0.9353
  160OSM    C1317903   1.094   1.147   1.982 -0.7124 -0.1556  0.0408
  160OSM   H13A17904   1.088   1.096   2.077 -1.7100  0.8445  0.5410
  160OSM   H13B17905   1.075   1.068   1.912  0.0494 -0.4111  0.1179
  160OSM   H13C17906   1.017   1.222   1.971 -0.4922 -0.1153 -1.3695
  160OSM    C1217907   1.338   1.092   1.971 -0.7976 -0.1754 -0.7974
  160OSM   H12A17908   1.438   1.127   1.951  0.2287 -0.6161  3.0768
  160OSM   H12B17909   1.318   1.025   1.889  0.4921 -0.1787 -1.1262
  160OSM    C1117910   1.354   0.987   2.089  0.5211  0.1912 -0.1800
  160OSM   H11A17911   1.374   1.057   2.173  2.8066 -0.3322 -0.2431
  160OSM   H11B17912   1.446   0.925   2.081 -0.4385 -1.5542  1.6881
  160OSM      P17913   1.221   0.769   2.051  0.2046  0.1436  0.2296
  160OSM    O1317914   1.078   0.761   2.005 -0.6744 -0.2349 -0.4883
  160OSM    O1417915   1.319   0.763   1.940  0.4830  0.9928  0.5275
  160OSM    O1117916   1.258   0.655   2.155  0.3266 -0.2941 -0.2614
  160OSM    O1217917   1.236   0.915   2.120 -0.0522  0.5469  0.5210
  160OSM    C1S17918   1.261   0.669   2.300  0.5854 -0.4227 -0.6920
  160OSM    H1S17919   1.162   0.646   2.346  0.4323  0.8816 -0.3499
  160OSM    H1T17920   1.278   0.775   2.326  0.0284 -0.0979 -1.6391
  160OSM     NF17921   1.359   0.593   2.511 -0.5801  0.5280  0.4241
  160OSM    HNF17922   1.417   0.671   2.535  0.9374 -0.5052  0.2293
  160OSM    C2S17923   1.357   0.565   2.366  0.3024 -0.2561  0.2942
  160OSM    H2S17924   1.308   0.467   2.350  0.2842 -0.1306 -0.4589
  160OSM    C3S17925   1.491   0.583   2.290 -0.0998 -0.0540 -0.0267
  160OSM    H3S17926   1.517   0.690   2.277 -2.5281  0.6023  0.2079
  160OSM     O317927   1.489   0.530   2.160 -0.8034 -0.2842 -0.1178
  160OSM    HO317928   1.395   0.547   2.147 -0.2140  1.8505 -1.8013
  160OSM    C4S17929   1.602   0.506   2.356  0.7534  0.8334 -0.4024
  160OSM    H4S17930   1.576   0.401   2.374 -1.5211  1.4216 -0.0294
  160OSM    C5S17931   1.713   0.563   2.395  0.2658 -0.1765 -0.7810
  160OSM    H5S17932   1.734   0.670   2.378 -0.2208  0.5971  2.9528
  160OSM    C6S17933   1.823   0.491   2.465  0.1470 -0.3569 -0.3715
  160OSM    H6S17934   1.917   0.528   2.420 -1.1143 -0.1927 -2.9356
  160OSM    H6T17935   1.818   0.382   2.449  0.3263 -0.4666  0.3112
  160OSM    C7S17936   1.831   0.515   2.617 -0.3687 -0.2555  0.7068
  160OSM    H7S17937   1.855   0.622   2.630 -0.9090  0.1066 -1.1547
  160OSM    H7T17938   1.917   0.466   2.668 -1.2007 -1.3674  1.0699
  160OSM    C8S17939   1.700   0.497   2.697  0.2664  0.0904 -0.4320
  160OSM    H8S17940   1.678   0.389   2.711 -1.4490  0.4515 -0.2440
  160OSM    H8T17941   1.624   0.562   2.648  1.2329  2.7931  1.4978
  160OSM    C9S17942   1.708   0.560   2.836 -0.1316  0.6730 -0.2315
  160OSM    H9S17943   1.694   0.670   2.826  1.6016  0.8915 -0.3726
  160OSM    H9T17944   1.808   0.537   2.878 -0.4768 -1.3910 -0.5014
  160OSM   C10S17945   1.594   0.508   2.925  0.3336  0.5346  0.1886
  160OSM   H10S17946   1.603   0.398   2.913  1.8376  0.9524 -2.7402
  160OSM   H10T17947   1.494   0.520   2.878  0.0276  1.5666  1.0689
  160OSM   C11S17948   1.589   0.569   3.059  0.0794 -0.5991 -0.3560
  160OSM   H11S17949   1.547   0.671   3.053 -1.0401 -1.1308 -2.1844
  160OSM   H11T17950   1.691   0.580   3.103 -1.0962 -1.1819  2.6345
  160OSM   C12S17951   1.500   0.495   3.156  0.2358 -0.3780  0.1497
  160OSM   H12S17952   1.502   0.384   3.145  0.2896 -0.3747  0.1280
  160OSM   H12T17953   1.396   0.510   3.119  0.5342 -0.3026 -0.6581
  160OSM   C13S17954   1.516   0.517   3.304  0.5959 -0.1596 -0.4017
  160OSM   H13S17955   1.624   0.511   3.331  0.1926 -0.8215  1.1382
  160OSM   H13T17956   1.450   0.442   3.352 -2.0251  2.4753  0.2955
  160OSM   C14S17957   1.479   0.658   3.355 -0.3073 -0.8019  0.0187
  160OSM   H14S17958   1.375   0.690   3.335 -0.3399 -1.4548 -0.8831
  160OSM   H14T17959   1.538   0.737   3.303 -2.9418  0.2597 -1.4656
  160OSM   C15S17960   1.505   0.688   3.512 -0.0129  0.3303  0.4601
  160OSM   H15S17961   1.459   0.789   3.522 -0.3762  0.1610  0.5081
  160OSM   H15T17962   1.615   0.703   3.522 -0.0452  2.0598 -1.3446
  160OSM   C16S17963   1.445   0.597   3.618 -0.2702 -0.0930  0.2022
  160OSM   H16S17964   1.503   0.502   3.628  0.9662  0.8281  1.9851
  160OSM   H16T17965   1.341   0.567   3.594 -0.4770  1.3613 -0.7817
  160OSM   C17S17966   1.457   0.652   3.759 -0.3987  0.0660  1.0254
  160OSM   H17S17967   1.395   0.743   3.769  2.4472  1.8497  3.2545
  160OSM   H17T17968   1.560   0.683   3.785  0.9845 -1.5967 -2.2288
  160OSM   C18S17969   1.412   0.546   3.854  0.3658  0.8416 -0.5264
  160OSM   H18S17970   1.333   0.483   3.808 -0.4848  1.3508  0.2179
  160OSM   H18T17971   1.378   0.591   3.949  0.2410 -1.6483  0.6523
  160OSM   H18U17972   1.504   0.488   3.875 -1.0627 -1.0589  0.7272
  160OSM    C1F17973   1.249   0.553   2.578  0.3967 -0.6114  0.4843
  160OSM     OF17974   1.185   0.457   2.540 -0.2529  0.2037  0.1795
  160OSM    C2F17975   1.232   0.618   2.710 -0.0868  0.3851  0.0384
  160OSM    H2F17976   1.334   0.625   2.753  0.9194 -5.4142 -0.9816
  160OSM    H2G17977   1.187   0.538   2.772  1.1258 -0.4823 -0.1665
  160OSM    C3F17978   1.142   0.738   2.707  0.1233 -0.4239  0.0152
  160OSM    H3F17979   1.044   0.709   2.663 -0.8217  1.8360  0.5247
  160OSM    H3G17980   1.186   0.810   2.635 -1.7207  0.0963 -0.6183
  160OSM    C4F17981   1.118   0.793   2.844 -0.7631  0.6318  0.3241
  160OSM    H4F17982   1.073   0.711   2.905 -0.5455  0.0499 -0.2955
  160OSM    H4G17983   1.062   0.886   2.821  2.0828  2.6678  1.3066
  160OSM    C5F17984   1.245   0.820   2.926 -0.2122 -0.2632  0.5601
  160OSM    H5F17985   1.321   0.864   2.859  0.5214 -2.9260 -0.4479
  160OSM    H5G17986   1.297   0.725   2.950 -0.5722 -0.3786  0.8925
  160OSM    C6F17987   1.216   0.916   3.045 -0.4123  0.2924 -0.5784
  160OSM    H6F17988   1.149   0.867   3.119  0.9275 -0.8349 -0.1119
  160OSM    H6G17989   1.166   1.010   3.012 -2.1605 -0.2168  0.4875
  160OSM    C7F17990   1.334   0.968   3.125 -0.1365  0.1244  0.5915
  160OSM    H7F17991   1.410   1.026   3.068 -2.4345 -0.2246 -2.9647
  160OSM    H7G17992   1.378   0.872   3.162  2.6654  0.1560 -2.3798
  160OSM    C8F17993   1.288   1.050   3.239 -0.7782 -0.5387 -0.2128
  160OSM    H8F17994   1.208   1.116   3.200 -0.7221 -0.4074 -0.1085
  160OSM    H8G17995   1.367   1.126   3.255 -0.3182 -0.5598 -2.3165
  160OSM    C9F17996   1.228   0.987   3.369  0.4377  0.7844  0.9117
  160OSM    H9F17997   1.135   0.931   3.351  1.7127 -1.1455  0.2319
  160OSM   C10F17998   1.275   0.994   3.495  0.1869 -0.9997  0.0691
  160OSM   H10F17999   1.216   0.966   3.584 -0.1332  0.9792  0.4972
  160OSM   C11F18000   1.408   1.069   3.528  1.0463  0.2005  0.1264
  160OSM   H11F18001   1.476   1.073   3.440  0.8995  2.1218  0.0832
  160OSM   H11G18002   1.463   1.002   3.597 -0.8294  0.4781  1.9370
  160OSM   C12F18003   1.377   1.218   3.586  0.1035 -0.1560 -0.3627
  160OSM   H12F18004   1.296   1.213   3.661 -0.4590 -2.4335 -1.0719
  160OSM   H12G18005   1.351   1.289   3.504  1.3041 -0.6125 -1.1574
  160OSM   C13F18006   1.502   1.266   3.656  1.0066  0.3057  0.1430
  160OSM   H13F18007   1.500   1.377   3.648  0.2917  0.2557 -0.3962
  160OSM   H13G18008   1.594   1.230   3.605  0.7373 -0.4763  0.2100
  160OSM   C14F18009   1.505   1.229   3.803 -0.2781  0.2956  0.5864
  160OSM   H14F18010   1.504   1.118   3.799 -0.0293  0.3441 -0.9038
  160OSM   H14G18011   1.412   1.274   3.844 -0.6698  2.2395 -2.3383
  160OSM   C15F18012   1.631   1.278   3.874 -0.0753 -0.1670  0.0361
  160OSM   H15F18013   1.711   1.298   3.799  1.3857 -1.9758  1.0565
  160OSM   H15G18014   1.664   1.199   3.946  0.3520 -0.8325 -0.8868
  160OSM   C16F18015   1.596   1.398   3.969  0.2732 -0.3311  0.1393
  160OSM   H16F18016   1.520   1.358   4.038  1.9204 -1.8057  1.1407
  160OSM   H16G18017   1.552   1.478   3.906 -1.5782 -0.5986  1.0621
  160OSM   C17F18018   1.714   1.457   4.042  0.1388  0.1618 -0.2273
  160OSM   H17F18019   1.774   1.484   3.953 -1.3848  0.8920 -1.0638
  160OSM   H17G18020   1.768   1.383   4.105  2.5753 -0.3801 -2.8768
  160OSM   C18F18021   1.696   1.585   4.123  0.2930  0.4228  0.8365
  160OSM   H18F18022   1.606   1.573   4.188 -0.4897 -0.0765 -0.3041
  160OSM   H18G18023   1.692   1.668   4.049 -0.0360  0.4435  0.8737
  160OSM   H18H18024   1.780   1.608   4.190 -0.2892  1.8584  1.0901
  161OSM      N18025   6.083   5.960   2.119  0.4528 -0.0644  0.0895
  161OSM    C1518026   6.176   6.072   2.094 -0.4773  0.0530  1.2056
  161OSM   H15A18027   6.244   6.053   2.012 -1.4023  0.1056  0.4135
  161OSM   H15B18028   6.232   6.099   2.182  0.2374 -0.2155  0.8434
  161OSM   H15C18029   6.119   6.160   2.068  0.3106  0.2308  0.0228
  161OSM    C1418030   6.028   5.908   1.995  0.8265 -0.9410 -0.7691
  161OSM   H14A18031   5.974   5.990   1.949 -0.9829 -0.1324  2.6489
  161OSM   H14B18032   5.954   5.830   2.005 -0.7436  0.6422  0.2482
  161OSM   H14C18033   6.107   5.880   1.927  3.0774  0.7370  1.0749
  161OSM    C1318034   6.173   5.843   2.167 -0.3487 -0.5340 -0.3695
  161OSM   H13A18035   6.223   5.874   2.257 -2.7969 -0.9313  1.1831
  161OSM   H13B18036   6.243   5.823   2.088  1.0212  0.4160  0.5885
  161OSM   H13C18037   6.115   5.755   2.190 -0.5415  0.1741  1.9428
  161OSM    C1218038   5.973   5.992   2.217  0.1532 -0.1537  0.5601
  161OSM   H12A18039   6.015   6.028   2.310  2.1772 -0.3387 -0.2451
  161OSM   H12B18040   5.914   5.904   2.239  1.0159 -0.7337  0.5870
  161OSM    C1118041   5.861   6.103   2.184  0.2304 -0.1606 -0.4918
  161OSM   H11A18042   5.795   6.105   2.273 -0.6550  0.9247 -1.1482
  161OSM   H11B18043   5.795   6.074   2.099 -0.6786  0.9065 -0.1714
  161OSM      P18044   5.910   6.364   2.225 -0.1630  0.0134  0.1248
  161OSM    O1318045   6.026   6.455   2.185 -0.1157  0.7674 -0.4071
  161OSM    O1418046   5.776   6.417   2.215 -0.2871  0.2054  0.1665
  161OSM    O1118047   5.932   6.330   2.376  0.6724  0.1982  0.5310
  161OSM    O1218048   5.926   6.229   2.147  0.1091  0.1839 -0.0828
  161OSM    C1S18049   6.058   6.281   2.431  0.1520  0.3893  0.5742
  161OSM    H1S18050   6.151   6.327   2.391  1.6126 -0.6921  2.6419
  161OSM    H1T18051   6.074   6.174   2.406 -1.4329 -0.0358  1.2906
  161OSM     NF18052   6.166   6.262   2.656  0.8276  0.0753 -0.2459
  161OSM    HNF18053   6.189   6.165   2.667  2.6195  0.3393 -1.3954
  161OSM    C2S18054   6.043   6.295   2.585  0.3298 -0.2829  0.5577
  161OSM    H2S18055   6.019   6.401   2.605  0.2847  0.5393 -3.4511
  161OSM    C3S18056   5.919   6.214   2.634  0.0618 -0.2343  0.8199
  161OSM    H3S18057   5.937   6.105   2.626  0.2081 -0.3371  2.4350
  161OSM     O318058   5.794   6.223   2.565  0.5357 -0.0073  0.2587
  161OSM    HO318059   5.815   6.256   2.478  0.0373 -1.4876 -0.4474
  161OSM    C4S18060   5.891   6.244   2.778  0.1823  0.0160 -0.5247
  161OSM    H4S18061   5.870   6.348   2.804 -0.9271 -1.1368  3.5788
  161OSM    C5S18062   5.891   6.141   2.871  0.3611 -0.1046  0.7898
  161OSM    H5S18063   5.922   6.039   2.845  1.8657  0.4303  0.3946
  161OSM    C6S18064   5.861   6.153   3.021  0.5485  0.2171 -0.3473
  161OSM    H6S18065   5.800   6.067   3.055  0.9949 -0.7989 -2.0224
  161OSM    H6T18066   5.800   6.242   3.047 -0.2458 -0.5295  0.3949
  161OSM    C7S18067   5.993   6.140   3.108 -0.6585 -0.1509  0.3686
  161OSM    H7S18068   6.071   6.211   3.075 -1.3697  1.1828  1.5450
  161OSM    H7T18069   6.023   6.033   3.101  1.0299  0.2698  1.0157
  161OSM    C8S18070   5.989   6.179   3.259 -0.6619  0.3815  0.5756
  161OSM    H8S18071   5.991   6.290   3.270 -1.6862  0.4691 -0.0860
  161OSM    H8T18072   6.079   6.137   3.309 -1.0526 -1.6002 -0.3350
  161OSM    C9S18073   5.867   6.121   3.338  0.1371 -0.5481  0.1781
  161OSM    H9S18074   5.862   6.011   3.349  0.0764 -0.6720 -1.0614
  161OSM    H9T18075   5.774   6.141   3.281  1.6425  0.7938 -1.8688
  161OSM   C10S18076   5.847   6.186   3.479  0.0617 -0.1673  0.7673
  161OSM   H10S18077   5.744   6.186   3.521 -1.4206  1.9365 -2.6711
  161OSM   H10T18078   5.858   6.296   3.467 -0.7115 -0.1337  0.3748
  161OSM   C11S18079   5.950   6.149   3.579 -0.0955  0.1155 -1.3915
  161OSM   H11S18080   6.055   6.153   3.545  0.0611  1.4617 -0.7617
  161OSM   H11T18081   5.934   6.039   3.586  0.9155 -0.0006 -0.7244
  161OSM   C12S18082   5.927   6.212   3.712  0.1227 -0.6445  0.3295
  161OSM   H12S18083   5.919   6.322   3.703  0.9032 -0.6268 -0.2234
  161OSM   H12T18084   6.020   6.213   3.773  0.2510  0.0552  0.1271
  161OSM   C13S18085   5.818   6.142   3.794  0.1095  0.5797 -0.4378
  161OSM   H13S18086   5.825   6.031   3.793  1.2657  0.6440 -0.0280
  161OSM   H13T18087   5.716   6.162   3.754  0.1779 -0.2949 -1.0939
  161OSM   C14S18088   5.819   6.190   3.938  0.2356 -0.5021 -0.1841
  161OSM   H14S18089   5.920   6.225   3.969  0.7633 -2.6729  0.6559
  161OSM   H14T18090   5.795   6.105   4.006  0.3915 -1.0862 -0.8600
  161OSM   C15S18091   5.722   6.298   3.965 -0.3518  0.5172 -0.2318
  161OSM   H15S18092   5.615   6.270   3.967 -0.2206  0.0082 -0.2215
  161OSM   H15T18093   5.736   6.374   3.886  2.0359 -0.1864 -0.5296
  161OSM   C16S18094   5.762   6.371   4.098  0.8873 -0.9748 -0.6672
  161OSM   H16S18095   5.872   6.386   4.104  0.4692  1.4811  2.0675
  161OSM   H16T18096   5.727   6.313   4.186  2.9804 -0.4089  0.5722
  161OSM   C17S18097   5.703   6.520   4.094 -0.7820 -0.1753  0.2507
  161OSM   H17S18098   5.593   6.511   4.081 -0.7420 -0.4554  0.0939
  161OSM   H17T18099   5.750   6.565   4.004 -1.1192  3.6806  1.9303
  161OSM   C18S18100   5.738   6.603   4.203  0.0981 -0.1373 -0.4826
  161OSM   H18S18101   5.841   6.637   4.180 -0.3109 -0.5093 -3.0324
  161OSM   H18T18102   5.738   6.548   4.299  2.1052  2.5749  1.1524
  161OSM   H18U18103   5.673   6.693   4.213 -0.3641 -0.7659  2.8705
  161OSM    C1F18104   6.271   6.341   2.652 -0.3511 -0.2593 -0.2906
  161OSM     OF18105   6.259   6.465   2.624  0.2011  0.4624 -0.1252
  161OSM    C2F18106   6.407   6.288   2.678  0.6578 -0.1581 -0.3180
  161OSM    H2F18107   6.477   6.323   2.599 -0.6068  1.4178 -0.7884
  161OSM    H2G18108   6.407   6.178   2.662 -2.2716 -0.0787 -1.3003
  161OSM    C3F18109   6.455   6.345   2.809  0.4674  0.0909  0.2421
  161OSM    H3F18110   6.383   6.325   2.892  0.4899  1.1103  0.5130
  161OSM    H3G18111   6.455   6.456   2.803 -3.6645  0.2173  0.9853
  161OSM    C4F18112   6.592   6.287   2.845  0.4151  0.2265  0.2384
  161OSM    H4F18113   6.667   6.332   2.775  1.1486 -1.4300 -0.0555
  161OSM    H4G18114   6.585   6.180   2.819 -1.7830  0.2917  0.4848
  161OSM    C5F18115   6.643   6.316   2.993  0.0449 -0.3820 -0.2819
  161OSM    H5F18116   6.652   6.426   3.008  0.8230 -0.4197 -0.4545
  161OSM    H5G18117   6.743   6.268   2.999  0.2039 -0.1916 -1.2923
  161OSM    C6F18118   6.554   6.254   3.104  0.0046  0.3430  0.3001
  161OSM    H6F18119   6.554   6.145   3.086  0.8085  0.1741  1.2443
  161OSM    H6G18120   6.446   6.278   3.090 -0.2712 -0.1335  1.5243
  161OSM    C7F18121   6.603   6.298   3.244 -0.6353 -0.0626  0.8579
  161OSM    H7F18122   6.570   6.397   3.280  0.7467  0.1232  1.6559
  161OSM    H7G18123   6.714   6.296   3.238 -0.4940 -1.2211  3.3833
  161OSM    C8F18124   6.548   6.195   3.342  0.1976 -0.6076  0.0424
  161OSM    H8F18125   6.613   6.108   3.318 -1.7241 -2.2172  0.5362
  161OSM    H8G18126   6.444   6.169   3.313  0.7684 -2.0382 -0.7874
  161OSM    C9F18127   6.555   6.242   3.487 -0.2939 -0.3818  0.4264
  161OSM    H9F18128   6.564   6.352   3.488  1.0583 -0.4939  2.2203
  161OSM   C10F18129   6.569   6.174   3.605  0.0972  0.1501  0.4503
  161OSM   H10F18130   6.564   6.233   3.698  2.4740 -0.2219  0.8470
  161OSM   C11F18131   6.576   6.024   3.622  0.1359 -0.2996  0.2762
  161OSM   H11F18132   6.648   5.999   3.703  1.5777  1.3129 -0.4994
  161OSM   H11G18133   6.623   5.977   3.532  2.2932 -0.8262  1.6499
  161OSM   C12F18134   6.442   5.947   3.637 -0.5578 -0.0316 -0.1526
  161OSM   H12F18135   6.466   5.839   3.628 -0.4058  0.0986 -1.4850
  161OSM   H12G18136   6.384   5.964   3.543  0.8309 -1.3372 -1.2839
  161OSM   C13F18137   6.369   5.980   3.765  0.0307  0.4693 -0.4564
  161OSM   H13F18138   6.374   6.088   3.789  1.4011  0.9017 -2.5599
  161OSM   H13G18139   6.414   5.920   3.847  0.9788  2.1409  0.2745
  161OSM   C14F18140   6.221   5.939   3.750  0.4430  0.2012 -0.3665
  161OSM   H14F18141   6.211   5.836   3.711  1.9237 -0.3854  0.7776
  161OSM   H14G18142   6.179   6.006   3.672 -2.7049 -0.6706  0.4998
  161OSM   C15F18143   6.121   5.954   3.870 -0.5734 -0.0134 -0.6234
  161OSM   H15F18144   6.024   5.910   3.840 -1.9713  0.2743  3.1519
  161OSM   H15G18145   6.107   6.063   3.885 -2.0765 -0.1158 -1.1836
  161OSM   C16F18146   6.178   5.878   3.993 -0.0259  0.2611 -0.3081
  161OSM   H16F18147   6.283   5.910   4.012 -0.3415  2.8308 -2.5257
  161OSM   H16G18148   6.169   5.773   3.960  0.2100  0.4296 -0.9177
  161OSM   C17F18149   6.088   5.909   4.119  0.0150  0.2186  0.6601
  161OSM   H17F18150   6.114   5.839   4.201 -0.0782 -0.1512  0.3754
  161OSM   H17G18151   5.986   5.876   4.087  0.2812  0.3291 -0.3332
  161OSM   C18F18152   6.092   6.054   4.163  0.2559 -0.1869  0.2147
  161OSM   H18F18153   6.191   6.078   4.206  0.2811 -0.5523  0.3619
  161OSM   H18G18154   6.021   6.079   4.246  0.2376 -0.0625  0.1608
  161OSM   H18H18155   6.060   6.122   4.082 -0.5101  2.4603  2.6330
  162OSM      N18156   0.171   5.093   1.857  0.4383 -0.2835 -0.6834
  162OSM    C1518157   0.021   5.064   1.883 -0.7506  0.1312 -0.0178
  162OSM   H15A18158   0.024   5.021   1.982 -0.6145 -0.6813 -0.3777
  162OSM   H15B18159  -0.022   4.993   1.814  0.2890  1.4603 -2.0701
  162OSM   H15C18160  -0.027   5.161   1.888  1.7063  1.3569  0.7176
  162OSM    C1418161   0.228   4.981   1.782  0.2283  0.2889 -0.2099
  162OSM   H14A18162   0.164   4.962   1.698  0.3549  1.6127 -0.6170
  162OSM   H14B18163   0.245   4.891   1.840 -1.6703  0.2615  0.3039
  162OSM   H14C18164   0.324   5.007   1.739  1.2289 -0.3005  1.6131
  162OSM    C1318165   0.179   5.217   1.781  0.1367 -0.1425  0.2522
  162OSM   H13A18166   0.128   5.206   1.687 -1.6825 -2.1758  1.4191
  162OSM   H13B18167   0.281   5.246   1.761 -0.7429  1.6206 -1.8224
  162OSM   H13C18168   0.136   5.305   1.825  1.7175 -0.5322  2.7074
  162OSM    C1218169   0.250   5.113   1.992 -0.7294  0.0033  0.3043
  162OSM   H12A18170   0.348   5.139   1.957 -1.1343 -1.7903 -2.4044
  162OSM   H12B18171   0.258   5.015   2.037  2.2742 -0.1452 -0.4705
  162OSM    C1118172   0.197   5.221   2.090  0.5167 -0.2905 -0.0307
  162OSM   H11A18173   0.254   5.200   2.183  1.3129 -0.5856 -0.5821
  162OSM   H11B18174   0.091   5.192   2.107  0.6163  0.1245  1.3784
  162OSM      P18175   0.299   5.452   2.100  0.3573 -0.3270  0.3647
  162OSM    O1318176   0.440   5.420   2.095  0.4826  0.6319  0.7105
  162OSM    O1418177   0.262   5.594   2.065  0.2240  0.2929  0.4281
  162OSM    O1118178   0.249   5.433   2.257 -0.4774  0.2398 -0.0296
  162OSM    O1218179   0.215   5.349   2.021 -0.1902  0.3049 -0.2898
  162OSM    C1S18180   0.330   5.477   2.362 -0.7398  0.2755 -0.2740
  162OSM    H1S18181   0.352   5.586   2.358 -1.0252  0.4341  1.8831
  162OSM    H1T18182   0.424   5.419   2.378 -0.5598  1.0072  1.4102
  162OSM     NF18183   0.335   5.523   2.596 -0.4181  1.2864 -0.0611
  162OSM    HNF18184   0.389   5.456   2.646 -2.0052  0.2710  0.3652
  162OSM    C2S18185   0.248   5.470   2.496 -0.1279  0.3713  1.0960
  162OSM    H2S18186   0.155   5.530   2.495 -0.7910 -0.6464  1.1672
  162OSM    C3S18187   0.203   5.323   2.518  0.5404 -0.3975 -0.2147
  162OSM    H3S18188   0.301   5.269   2.521  0.0362 -1.2866  0.6815
  162OSM     O318189   0.110   5.274   2.419  0.0864 -0.0550 -0.2405
  162OSM    HO318190   0.124   5.336   2.348  0.5092 -0.9684 -0.9594
  162OSM    C4S18191   0.129   5.319   2.652  0.1329  0.0912 -0.3030
  162OSM    H4S18192   0.023   5.346   2.664  0.0888 -1.2426  2.7585
  162OSM    C5S18193   0.184   5.270   2.768 -0.5266 -0.5893  0.0277
  162OSM    H5S18194   0.280   5.217   2.761 -0.9239 -1.0645 -2.4106
  162OSM    C6S18195   0.125   5.270   2.906 -0.2616 -0.0333  0.7007
  162OSM    H6S18196   0.205   5.299   2.979 -1.8592  0.6025  2.2468
  162OSM    H6T18197   0.082   5.173   2.938  0.1652 -0.2867  0.5011
  162OSM    C7S18198   0.006   5.363   2.913  0.0838  0.2293  1.1275
  162OSM    H7S18199  -0.078   5.332   2.847  0.7327 -2.4082  1.4702
  162OSM    H7T18200   0.029   5.468   2.885  0.7830 -0.8721 -2.7742
  162OSM    C8S18201  -0.059   5.384   3.058 -0.7566  0.4203 -0.1526
  162OSM    H8S18202  -0.078   5.279   3.092  0.2992 -0.1676 -1.3340
  162OSM    H8T18203  -0.154   5.436   3.035  0.5380  3.0925  0.3926
  162OSM    C9S18204   0.019   5.465   3.157 -0.1627 -0.1242  0.0398
  162OSM    H9S18205   0.022   5.573   3.130  1.7147 -0.7013 -2.1342
  162OSM    H9T18206   0.122   5.425   3.152  0.0273  0.5292 -1.2834
  162OSM   C10S18207  -0.039   5.476   3.303 -0.0787 -0.2746  0.1658
  162OSM   H10S18208  -0.041   5.376   3.351 -1.5817 -0.9853 -1.3398
  162OSM   H10T18209  -0.143   5.512   3.283 -0.7530 -2.2061  0.1422
  162OSM   C11S18210   0.048   5.582   3.382  0.3191  0.4150  0.3429
  162OSM   H11S18211   0.010   5.600   3.485 -0.3840 -3.1257  0.7537
  162OSM   H11T18212   0.053   5.678   3.327  3.5807  0.2180  0.1887
  162OSM   C12S18213   0.194   5.544   3.410 -1.1487  0.1013  0.5402
  162OSM   H12S18214   0.238   5.625   3.472 -1.0020  0.8672 -0.5352
  162OSM   H12T18215   0.243   5.540   3.310 -3.1776 -2.5467 -0.4038
  162OSM   C13S18216   0.219   5.413   3.479  0.5369  1.2934  1.3994
  162OSM   H13S18217   0.325   5.384   3.467 -0.1738 -0.8255 -0.1008
  162OSM   H13T18218   0.161   5.332   3.430  0.7352  1.9158  0.1146
  162OSM   C14S18219   0.171   5.420   3.621 -0.6984 -0.0901 -0.2735
  162OSM   H14S18220   0.065   5.448   3.633 -1.0007 -1.4298  0.2815
  162OSM   H14T18221   0.236   5.488   3.681 -0.4131 -1.1489  0.6512
  162OSM   C15S18222   0.172   5.271   3.679 -0.3578 -0.3367 -0.1247
  162OSM   H15S18223   0.264   5.215   3.650  0.1659  1.0603 -1.1911
  162OSM   H15T18224   0.081   5.215   3.651  0.6270 -1.5572 -0.9539
  162OSM   C16S18225   0.173   5.273   3.835  0.0878  0.3702 -0.2320
  162OSM   H16S18226   0.079   5.326   3.858 -1.0847 -0.8154 -2.1619
  162OSM   H16T18227   0.260   5.330   3.875  1.5110 -0.5325 -1.9177
  162OSM   C17S18228   0.174   5.132   3.900 -0.0084  0.4234  0.0440
  162OSM   H17S18229   0.079   5.078   3.878  0.5428 -0.2516 -0.7192
  162OSM   H17T18230   0.178   5.159   4.007 -0.0919 -1.1606  0.4542
  162OSM   C18S18231   0.293   5.038   3.855  0.5901  0.1943  0.0920
  162OSM   H18S18232   0.389   5.094   3.859 -0.1062  1.5074 -0.8815
  162OSM   H18T18233   0.278   5.009   3.749  0.4778 -0.0194  0.1651
  162OSM   H18U18234   0.291   4.945   3.916 -2.4805 -0.5107 -1.0000
  162OSM    C1F18235   0.360   5.653   2.605 -0.1133  0.0971  0.1111
  162OSM     OF18236   0.312   5.734   2.525 -0.3873 -0.2970  0.2182
  162OSM    C2F18237   0.447   5.695   2.719 -0.4739 -0.3108 -0.3900
  162OSM    H2F18238   0.497   5.604   2.758 -0.9375 -0.6332 -0.5452
  162OSM    H2G18239   0.374   5.732   2.794  1.1303  0.2559  0.9288
  162OSM    C3F18240   0.541   5.812   2.681  0.4244  0.5178 -0.3349
  162OSM    H3F18241   0.488   5.904   2.649 -0.9963 -0.1275  0.0922
  162OSM    H3G18242   0.581   5.780   2.582  0.3277 -0.5406 -0.0365
  162OSM    C4F18243   0.643   5.859   2.787 -0.0929 -0.0600 -0.5724
  162OSM    H4F18244   0.693   5.947   2.741 -0.1800  0.8702  1.0619
  162OSM    H4G18245   0.731   5.793   2.796  0.8393  1.1365 -0.6866
  162OSM    C5F18246   0.587   5.920   2.915  0.9421  0.5688 -0.0856
  162OSM    H5F18247   0.517   6.002   2.888  1.7372  1.6033  0.9509
  162OSM    H5G18248   0.683   5.960   2.954  0.9399  1.1759 -0.6892
  162OSM    C6F18249   0.525   5.831   3.023  0.3924  0.1828 -0.2454
  162OSM    H6F18250   0.426   5.788   2.995  0.9035 -0.9166 -0.3845
  162OSM    H6G18251   0.500   5.901   3.106  0.3582  2.4130 -2.0820
  162OSM    C7F18252   0.611   5.713   3.072  0.1989  0.0778  0.2922
  162OSM    H7F18253   0.721   5.720   3.060  0.0789  0.4214 -0.6976
  162OSM    H7G18254   0.583   5.632   3.000  0.4724  0.8494 -0.6989
  162OSM    C8F18255   0.574   5.665   3.210  0.2679  0.1519  0.0296
  162OSM    H8F18256   0.588   5.555   3.223  0.9350  0.1951 -0.3021
  162OSM    H8G18257   0.464   5.670   3.220  0.5408  0.2621  3.4636
  162OSM    C9F18258   0.652   5.747   3.307 -0.3917 -0.5498  0.0598
  162OSM    H9F18259   0.758   5.727   3.285 -1.3125 -1.2111 -4.3118
  162OSM   C10F18260   0.619   5.819   3.407 -0.2064 -0.9522  0.0570
  162OSM   H10F18261   0.695   5.881   3.457  1.3293 -1.3280 -1.7635
  162OSM   C11F18262   0.469   5.837   3.443 -0.4460  0.2944 -0.1536
  162OSM   H11F18263   0.461   5.840   3.554 -1.7208  2.0928 -0.2773
  162OSM   H11G18264   0.419   5.743   3.412  1.2686 -0.7707  0.2073
  162OSM   C12F18265   0.392   5.955   3.379  0.5191  0.1468 -0.3216
  162OSM   H12F18266   0.414   5.947   3.271  0.6359  0.1729 -0.3002
  162OSM   H12G18267   0.434   6.054   3.408  1.0524 -0.4275  0.9355
  162OSM   C13F18268   0.242   5.950   3.409  0.2535  0.0762  0.1591
  162OSM   H13F18269   0.185   5.880   3.345  3.2196 -0.1890 -2.3196
  162OSM   H13G18270   0.205   6.051   3.382  3.4624  1.6889  1.4939
  162OSM   C14F18271   0.198   5.934   3.554 -0.0256 -0.0029 -0.4315
  162OSM   H14F18272   0.223   5.830   3.584 -2.0089 -0.4644 -0.3440
  162OSM   H14G18273   0.087   5.928   3.552 -0.3160  4.0583 -1.2752
  162OSM   C15F18274   0.248   6.043   3.644 -0.0643  0.5216 -0.3429
  162OSM   H15F18275   0.205   6.141   3.614  0.3390 -0.0714 -2.9064
  162OSM   H15G18276   0.357   6.067   3.642  0.2657 -0.7544  0.9945
  162OSM   C16F18277   0.206   6.017   3.790 -0.2587  0.8552  0.2766
  162OSM   H16F18278   0.259   5.928   3.830 -0.9600  0.4806  0.3772
  162OSM   H16G18279   0.096   6.000   3.798 -0.4877  1.8715 -0.5878
  162OSM   C17F18280   0.262   6.127   3.887  0.3399  0.1484 -0.5997
  162OSM   H17F18281   0.225   6.090   3.985  0.7978 -1.6078 -1.0771
  162OSM   H17G18282   0.203   6.216   3.857  0.3179  0.7339  1.1269
  162OSM   C18F18283   0.412   6.155   3.889  0.5245 -0.2028  0.2434
  162OSM   H18F18284   0.426   6.217   3.980  2.2117  0.5624 -0.5157
  162OSM   H18G18285   0.440   6.215   3.800  0.0296  1.2102  1.0158
  162OSM   H18H18286   0.470   6.062   3.903  0.6185 -0.2523 -0.4584
  163OSM      N18287   5.756   6.973   1.935 -0.7529 -0.4057  0.1821
  163OSM    C1518288   5.762   6.829   1.962  0.0220 -0.3069 -0.0236
  163OSM   H15A18289   5.848   6.806   2.022  1.7462  3.1720 -1.0395
  163OSM   H15B18290   5.787   6.765   1.878 -3.7254 -1.3689 -0.4274
  163OSM   H15C18291   5.671   6.799   2.012  0.0121  0.9690  0.7222
  163OSM    C1418292   5.882   7.014   1.856 -0.5408 -0.3195 -0.0540
  163OSM   H14A18293   5.906   6.938   1.783  3.5708 -1.0337  1.9270
  163OSM   H14B18294   5.962   7.012   1.928 -0.8542  0.1715  0.3123
  163OSM   H14C18295   5.874   7.117   1.823 -0.0804 -0.3083 -0.1340
  163OSM    C1318296   5.642   7.007   1.837 -0.4078 -0.5509 -0.4089
  163OSM   H13A18297   5.663   6.963   1.741 -1.5331 -1.4501 -0.2627
  163OSM   H13B18298   5.624   7.112   1.821 -0.6932 -0.9329 -2.6969
  163OSM   H13C18299   5.552   6.954   1.865  1.0851 -3.4341 -0.9044
  163OSM    C1218300   5.751   7.049   2.064  0.2482  0.2712  0.9757
  163OSM   H12A18301   5.661   7.018   2.116  0.2456 -1.4313  0.0106
  163OSM   H12B18302   5.744   7.152   2.035 -0.2990  0.2326  0.9556
  163OSM    C1118303   5.859   7.036   2.171 -0.1097 -0.3006  0.7067
  163OSM   H11A18304   5.832   6.936   2.213  0.9277  0.3179  2.9366
  163OSM   H11B18305   5.850   7.102   2.260 -1.8140  0.3317  0.0755
  163OSM      P18306   6.111   6.963   2.165 -0.1277 -0.2105  0.3549
  163OSM    O1318307   6.126   6.858   2.054  0.3847  0.5051 -0.1249
  163OSM    O1418308   6.232   7.043   2.194  0.3898 -0.3188 -0.0076
  163OSM    O1118309   6.055   6.893   2.293 -0.0591  0.4642 -0.4035
  163OSM    O1218310   5.989   7.051   2.120  0.4680 -1.0251 -0.2479
  163OSM    C1S18311   6.149   6.814   2.366  0.0968  0.3736 -0.2904
  163OSM    H1S18312   6.247   6.863   2.384  0.8179 -1.2854  0.3930
  163OSM    H1T18313   6.160   6.710   2.329 -0.1471 -0.9136  3.0576
  163OSM     NF18314   6.229   6.746   2.588 -0.5308 -0.4255 -0.0153
  163OSM    HNF18315   6.238   6.651   2.619 -0.3390 -0.0134  1.2291
  163OSM    C2S18316   6.110   6.797   2.517  0.0351  0.2791  0.9245
  163OSM    H2S18317   6.082   6.898   2.555 -0.4680  1.3558 -2.1985
  163OSM    C3S18318   5.989   6.700   2.530  0.2734  0.2218 -0.1677
  163OSM    H3S18319   5.994   6.598   2.485  1.1175  0.0255  0.3687
  163OSM     O318320   5.893   6.743   2.437 -0.3325  1.2404  0.1626
  163OSM    HO318321   5.934   6.777   2.357 -0.7703  2.1645  0.3273
  163OSM    C4S18322   5.940   6.707   2.672 -0.7138 -0.3629 -0.3921
  163OSM    H4S18323   5.879   6.796   2.693 -1.4139 -0.6228 -1.3116
  163OSM    C5S18324   5.956   6.619   2.774  0.5733  0.0342  0.3748
  163OSM    H5S18325   5.992   6.518   2.752  0.9719  0.1322  0.5735
  163OSM    C6S18326   5.907   6.644   2.911  0.1600 -0.0635 -0.1382
  163OSM    H6S18327   5.813   6.584   2.915  0.4961 -0.8277 -2.4945
  163OSM    H6T18328   5.877   6.748   2.936  0.7569 -0.0183  0.3805
  163OSM    C7S18329   6.004   6.590   3.015  0.5098 -0.1437 -0.5227
  163OSM    H7S18330   6.109   6.618   2.994  0.6365  0.5772  1.0320
  163OSM    H7T18331   6.003   6.479   3.011  1.9513 -0.1633 -0.4440
  163OSM    C8S18332   5.961   6.636   3.161  0.4267 -0.2142 -0.5392
  163OSM    H8S18333   5.974   6.746   3.154 -1.6005  0.2683  2.6364
  163OSM    H8T18334   6.036   6.588   3.228  0.5152  1.9052  0.9231
  163OSM    C9S18335   5.821   6.586   3.201  0.1024 -0.3554  0.0364
  163OSM    H9S18336   5.825   6.477   3.220 -1.1191 -0.3498  0.3854
  163OSM    H9T18337   5.744   6.612   3.125  0.8707  2.9097  0.2980
  163OSM   C10S18338   5.777   6.662   3.338 -0.1285  0.6514  0.0805
  163OSM   H10S18339   5.679   6.622   3.372  0.9939 -0.8092  1.6236
  163OSM   H10T18340   5.760   6.768   3.308  0.4708  1.0013  0.9827
  163OSM   C11S18341   5.882   6.651   3.448 -0.1817 -0.6757 -0.1897
  163OSM   H11S18342   5.962   6.719   3.410  0.2544 -0.3857  1.2350
  163OSM   H11T18343   5.924   6.549   3.460  1.1292 -0.1978 -0.7059
  163OSM   C12S18344   5.815   6.691   3.580 -0.9739  0.0949  0.8313
  163OSM   H12S18345   5.764   6.601   3.619  0.0120 -1.3544 -1.1174
  163OSM   H12T18346   5.733   6.762   3.557  0.1548  1.1873  0.0395
  163OSM   C13S18347   5.909   6.743   3.689  0.4313  0.2812 -0.2017
  163OSM   H13S18348   5.973   6.663   3.733  0.0763  1.2508  2.1813
  163OSM   H13T18349   5.846   6.791   3.767  1.8037  1.0910  0.4324
  163OSM   C14S18350   5.993   6.866   3.646  0.0917  0.2491 -0.4299
  163OSM   H14S18351   5.921   6.945   3.614 -0.4170  0.1203  0.3687
  163OSM   H14T18352   6.047   6.850   3.550  1.0056  0.9550 -0.0287
  163OSM   C15S18353   6.080   6.909   3.763  0.0209  0.0193  0.5965
  163OSM   H15S18354   6.129   6.824   3.817  0.1708 -0.8782 -0.9258
  163OSM   H15T18355   6.015   6.958   3.839  1.2240 -0.4574  1.9659
  163OSM   C16S18356   6.195   7.008   3.741 -0.4783 -0.0738  0.9417
  163OSM   H16S18357   6.267   6.993   3.824 -0.3116 -0.8079  0.6642
  163OSM   H16T18358   6.151   7.110   3.741  0.5798  0.4151 -0.9898
  163OSM   C17S18359   6.273   6.991   3.613 -0.2007  0.6965 -0.2844
  163OSM   H17S18360   6.204   7.029   3.535 -0.0520  2.4100  0.4161
  163OSM   H17T18361   6.305   6.885   3.600  0.4881  0.4696  2.7457
  163OSM   C18S18362   6.404   7.072   3.615 -0.0510 -0.2848 -0.0866
  163OSM   H18S18363   6.457   7.059   3.711 -0.0742 -0.0322 -0.0418
  163OSM   H18T18364   6.391   7.177   3.582  3.3712  0.0861 -0.4159
  163OSM   H18U18365   6.462   7.014   3.540  0.3065 -0.8111  0.5889
  163OSM    C1F18366   6.327   6.826   2.632  0.1841  0.7690 -0.3536
  163OSM     OF18367   6.312   6.951   2.632  0.8833 -0.2343  0.2214
  163OSM    C2F18368   6.444   6.756   2.699 -0.3018 -0.4262  0.0680
  163OSM    H2F18369   6.540   6.806   2.673  0.3518 -1.7655 -0.1525
  163OSM    H2G18370   6.451   6.650   2.666 -2.5765 -0.5231 -0.1229
  163OSM    C3F18371   6.434   6.744   2.856  0.2159  0.7945 -0.1661
  163OSM    H3F18372   6.521   6.683   2.888  0.0297 -0.3529 -1.7875
  163OSM    H3G18373   6.343   6.684   2.879  0.5397  1.0045  1.7409
  163OSM    C4F18374   6.419   6.875   2.942 -0.2711  0.2407 -0.3798
  163OSM    H4F18375   6.323   6.929   2.929  0.3043  1.1863 -0.8155
  163OSM    H4G18376   6.501   6.946   2.917 -0.5909  0.9590  0.5422
  163OSM    C5F18377   6.426   6.848   3.091 -0.2476  0.1637 -0.7827
  163OSM    H5F18378   6.419   6.945   3.145  0.1631 -0.7893  1.0218
  163OSM    H5G18379   6.523   6.796   3.107 -0.4028 -0.1560 -0.8881
  163OSM    C6F18380   6.307   6.767   3.149 -0.4549 -0.9472  0.0388
  163OSM    H6F18381   6.293   6.670   3.096  0.8021 -2.1714  1.9082
  163OSM    H6G18382   6.215   6.829   3.136  1.0609  1.6221  1.1658
  163OSM    C7F18383   6.312   6.751   3.301  0.5847  0.3126  0.1117
  163OSM    H7F18384   6.206   6.765   3.332  0.7442  0.2656  0.6923
  163OSM    H7G18385   6.365   6.837   3.348 -0.2112  1.0051 -0.2521
  163OSM    C8F18386   6.376   6.624   3.358 -0.8607  0.1167 -0.7795
  163OSM    H8F18387   6.412   6.626   3.463  1.5500 -0.3346 -1.5494
  163OSM    H8G18388   6.469   6.604   3.300 -0.6577  0.4903 -0.5804
  163OSM    C9F18389   6.281   6.509   3.335 -0.7875 -0.3614 -0.0748
  163OSM    H9F18390   6.279   6.465   3.234  0.9894  0.2297 -0.3797
  163OSM   C10F18391   6.203   6.462   3.427  0.1680 -0.3035 -0.7602
  163OSM   H10F18392   6.146   6.378   3.385 -1.9170  1.1616 -0.9509
  163OSM   C11F18393   6.187   6.509   3.571  0.0831 -0.4097  0.4491
  163OSM   H11F18394   6.079   6.497   3.595 -0.1494  0.6669 -0.0081
  163OSM   H11G18395   6.203   6.619   3.583 -0.5519 -0.1074 -1.2403
  163OSM   C12F18396   6.272   6.436   3.680  0.9024 -0.9435  0.7682
  163OSM   H12F18397   6.380   6.460   3.670  0.0872  2.6356 -0.1996
  163OSM   H12G18398   6.252   6.329   3.655 -1.7962 -0.1641 -0.5795
  163OSM   C13F18399   6.227   6.458   3.824 -0.5631 -0.2526  0.3271
  163OSM   H13F18400   6.117   6.443   3.822 -0.2694 -2.4836 -0.5524
  163OSM   H13G18401   6.246   6.565   3.850  3.4186 -0.7853 -0.1361
  163OSM   C14F18402   6.288   6.361   3.935 -0.2026 -0.4154  0.0113
  163OSM   H14F18403   6.396   6.373   3.956  0.1778  0.0143 -2.0911
  163OSM   H14G18404   6.275   6.258   3.895 -0.1732 -0.4683  0.1385
  163OSM   C15F18405   6.209   6.383   4.065 -0.5180 -0.2391 -0.1067
  163OSM   H15F18406   6.273   6.328   4.138  0.3511  0.6093 -0.2181
  163OSM   H15G18407   6.111   6.331   4.060 -0.6933  0.0416  0.3796
  163OSM   C16F18408   6.195   6.529   4.106  0.1318 -0.2279 -0.7273
  163OSM   H16F18409   6.142   6.588   4.027  3.0345  1.1409 -1.7192
  163OSM   H16G18410   6.296   6.573   4.100  0.4304 -0.8132 -0.0497
  163OSM   C17F18411   6.119   6.561   4.237  0.9273 -0.0017 -0.5542
  163OSM   H17F18412   6.021   6.509   4.239  0.9027 -0.0119 -1.5129
  163OSM   H17G18413   6.095   6.669   4.232 -1.5392 -0.5761 -2.1239
  163OSM   C18F18414   6.199   6.518   4.360  0.5928  0.2009 -0.0348
  163OSM   H18F18415   6.152   6.528   4.460  0.1552 -0.3964 -0.1746
  163OSM   H18G18416   6.289   6.582   4.373 -0.6056  2.0871 -0.6787
  163OSM   H18H18417   6.236   6.414   4.351  1.9036  0.7320 -0.9898
  164OSM      N18418   0.858   0.493   2.292  0.1465 -0.1870 -0.8412
  164OSM    C1518419   0.743   0.576   2.231  0.3453  0.2154  0.3266
  164OSM   H15A18420   0.767   0.679   2.207 -2.1102  0.4754 -1.2071
  164OSM   H15B18421   0.656   0.579   2.295 -0.5302 -0.0024 -0.8420
  164OSM   H15C18422   0.713   0.528   2.139 -0.2346  2.0484 -0.4716
  164OSM    C1418423   0.972   0.483   2.196 -0.0041 -0.0386 -0.3362
  164OSM   H14A18424   0.986   0.578   2.146  3.4142 -0.3654 -0.0827
  164OSM   H14B18425   0.946   0.406   2.125 -2.1620  0.4789 -0.1626
  164OSM   H14C18426   1.066   0.461   2.243 -0.0848  0.0032 -0.1543
  164OSM    C1318427   0.898   0.565   2.421 -0.6795  0.2620  0.3725
  164OSM   H13A18428   0.912   0.671   2.406  0.2465 -0.2378 -2.6033
  164OSM   H13B18429   0.981   0.509   2.460 -0.2113  1.1768  0.7149
  164OSM   H13C18430   0.828   0.580   2.502  0.3349  3.4576  0.7624
  164OSM    C1218431   0.813   0.355   2.324  1.0611  0.3099 -0.1017
  164OSM   H12A18432   0.747   0.364   2.408  2.1635  1.1123  0.7013
  164OSM   H12B18433   0.895   0.291   2.353  0.5869 -0.9768 -1.4944
  164OSM    C1118434   0.759   0.269   2.210  1.0082  0.0593  0.5118
  164OSM   H11A18435   0.657   0.300   2.180  1.4036  2.8567  1.8742
  164OSM   H11B18436   0.744   0.169   2.256 -1.4592 -0.0753 -0.5284
  164OSM      P18437   0.930   0.150   2.055  0.5538  0.1874  0.2329
  164OSM    O1318438   0.847   0.025   2.044  0.1725 -0.2152 -0.3549
  164OSM    O1418439   1.013   0.182   1.939  0.2111 -0.4943 -0.3307
  164OSM    O1118440   1.025   0.160   2.178 -0.1650 -0.0778  0.5994
  164OSM    O1218441   0.831   0.267   2.088 -0.5306 -0.9621 -0.4273
  164OSM    C1S18442   1.034   0.055   2.273  0.2337 -0.0625  0.3617
  164OSM    H1S18443   1.083  -0.029   2.218  0.7426  0.0978  0.5662
  164OSM    H1T18444   0.934   0.021   2.308  0.6650 -0.1817  1.5054
  164OSM     NF18445   1.083   0.183   2.493  1.1790  0.3659  0.2088
  164OSM    HNF18446   1.136   0.265   2.509  2.1852 -0.4190  0.9740
  164OSM    C2S18447   1.135   0.094   2.387  0.0866  0.9470  0.6628
  164OSM    H2S18448   1.160   0.004   2.446  0.9443 -1.7642 -3.6121
  164OSM    C3S18449   1.266   0.156   2.327 -0.3908  0.2558 -0.3405
  164OSM    H3S18450   1.236   0.253   2.281  0.9593 -0.1061 -2.0316
  164OSM     O318451   1.333   0.083   2.220 -0.2661 -0.5184 -0.3615
  164OSM    HO318452   1.270   0.013   2.202 -2.3017  1.5239 -1.3853
  164OSM    C4S18453   1.364   0.180   2.435 -0.4394 -0.0171  0.7164
  164OSM    H4S18454   1.358   0.277   2.487 -0.1592  1.1681 -1.4198
  164OSM    C5S18455   1.448   0.083   2.476 -0.9185 -0.2049 -0.2999
  164OSM    H5S18456   1.449  -0.019   2.434 -0.1597 -0.4961  0.4041
  164OSM    C6S18457   1.549   0.114   2.583 -0.0072  0.1435 -0.2997
  164OSM    H6S18458   1.622   0.191   2.552 -0.3067  0.4807 -0.1665
  164OSM    H6T18459   1.603   0.023   2.618 -1.8071 -0.4860  0.9308
  164OSM    C7S18460   1.490   0.159   2.723  0.2667 -0.0788  0.7513
  164OSM    H7S18461   1.427   0.248   2.701  0.7095 -0.4224 -2.0624
  164OSM    H7T18462   1.567   0.196   2.794  0.5555  1.3200 -0.2826
  164OSM    C8S18463   1.412   0.049   2.781  0.7109 -0.6501  0.3169
  164OSM    H8S18464   1.472  -0.038   2.816  1.3050 -0.9271 -1.3362
  164OSM    H8T18465   1.341   0.014   2.703 -0.2793  0.9573  0.4799
  164OSM    C9S18466   1.329   0.096   2.910 -0.6844  0.1471 -0.1808
  164OSM    H9S18467   1.254   0.019   2.940  0.4654 -1.3289 -1.0448
  164OSM    H9T18468   1.269   0.186   2.886 -2.0653  0.8388  5.1256
  164OSM   C10S18469   1.414   0.108   3.047  0.1298 -0.3299 -0.1277
  164OSM   H10S18470   1.498   0.179   3.033 -0.1459 -0.2406 -1.3882
  164OSM   H10T18471   1.463   0.011   3.069  0.9882 -0.5179 -2.6730
  164OSM   C11S18472   1.333   0.132   3.176  0.1362  0.7148  0.1199
  164OSM   H11S18473   1.251   0.058   3.175  0.0257  0.8497 -1.6587
  164OSM   H11T18474   1.289   0.234   3.177 -0.6257  0.3853  1.2522
  164OSM   C12S18475   1.417   0.109   3.305 -0.5773 -0.6024 -0.7704
  164OSM   H12S18476   1.508   0.174   3.306  0.1991 -1.6685 -1.1505
  164OSM   H12T18477   1.462   0.008   3.319  1.9767  0.3404 -1.8154
  164OSM   C13S18478   1.329   0.124   3.426  0.2670  0.2697 -0.1084
  164OSM   H13S18479   1.265   0.039   3.455  2.0029 -0.5811  1.3666
  164OSM   H13T18480   1.263   0.212   3.412 -0.1442  0.6674  3.7149
  164OSM   C14S18481   1.416   0.140   3.557  0.0091 -1.1041  0.1136
  164OSM   H14S18482   1.458   0.242   3.553  2.2090 -1.9218  1.2936
  164OSM   H14T18483   1.505   0.074   3.541 -1.4155 -3.0514  0.0367
  164OSM   C15S18484   1.339   0.113   3.685  0.5130 -0.9034  0.1737
  164OSM   H15S18485   1.246   0.056   3.660 -1.5343  1.9165  1.1658
  164OSM   H15T18486   1.299   0.211   3.717 -2.2437 -1.1634 -2.1824
  164OSM   C16S18487   1.422   0.054   3.792 -0.5059  0.0023 -0.3290
  164OSM   H16S18488   1.488   0.139   3.819  1.1637 -1.2368 -0.4103
  164OSM   H16T18489   1.494  -0.022   3.753  0.4117  0.0290  1.2544
  164OSM   C17S18490   1.353   0.010   3.924 -0.1193 -0.7275  0.0943
  164OSM   H17S18491   1.426  -0.050   3.983  0.4758  0.6014  0.7117
  164OSM   H17T18492   1.265  -0.052   3.896 -0.5254 -0.0790 -0.0854
  164OSM   C18S18493   1.290   0.123   4.007 -0.5535 -0.5463  0.0602
  164OSM   H18S18494   1.212   0.166   3.941  0.4522  0.4368 -0.5176
  164OSM   H18T18495   1.360   0.208   4.026 -2.8561  2.1803 -3.0421
  164OSM   H18U18496   1.238   0.084   4.097 -1.5768 -0.5058 -0.5026
  164OSM    C1F18497   0.968   0.173   2.565  0.1703 -0.0607  0.3351
  164OSM     OF18498   0.893   0.077   2.552  0.3229  0.2673  0.0992
  164OSM    C2F18499   0.923   0.278   2.656 -0.1364 -0.3192  0.3027
  164OSM    H2F18500   0.813   0.287   2.664 -0.0096  1.6188  0.0750
  164OSM    H2G18501   0.952   0.378   2.616  1.6989 -1.4900 -1.4523
  164OSM    C3F18502   0.988   0.268   2.796  0.3389  0.5714  0.3132
  164OSM    H3F18503   1.099   0.275   2.797  0.3223  1.1251  2.9631
  164OSM    H3G18504   0.945   0.172   2.831  0.5775 -0.7781 -2.9235
  164OSM    C4F18505   0.936   0.378   2.891  0.1967  0.0315  0.7823
  164OSM    H4F18506   0.834   0.357   2.930  0.2055 -0.8730  0.3367
  164OSM    H4G18507   0.936   0.473   2.834 -0.7030 -0.2474  0.3120
  164OSM    C5F18508   1.035   0.391   3.005  0.3533 -0.0510  0.0275
  164OSM    H5F18509   1.141   0.397   2.974  0.4524  1.7465  0.6534
  164OSM    H5G18510   1.037   0.293   3.058 -1.2814  0.0105  0.2351
  164OSM    C6F18511   0.996   0.501   3.115 -0.2200  0.0603  0.5547
  164OSM    H6F18512   0.892   0.497   3.154 -0.7212  0.5528 -0.6892
  164OSM    H6G18513   1.008   0.590   3.050 -0.7777 -0.2774 -0.0199
  164OSM    C7F18514   1.089   0.497   3.242  0.5402 -0.4059 -0.3975
  164OSM    H7F18515   1.190   0.535   3.218  0.5236 -0.3714 -0.4133
  164OSM    H7G18516   1.106   0.389   3.263  0.6233 -0.3602 -0.2290
  164OSM    C8F18517   1.037   0.578   3.370  0.1940 -0.0887  0.1328
  164OSM    H8F18518   1.035   0.685   3.340  2.8612 -0.4885 -1.6700
  164OSM    H8G18519   1.122   0.580   3.441  2.3022  2.5809 -2.3233
  164OSM    C9F18520   0.909   0.534   3.436  0.6691  0.4644 -0.1536
  164OSM    H9F18521   0.903   0.426   3.458 -1.1746  0.9052  1.7289
  164OSM   C10F18522   0.790   0.604   3.458 -0.2293  0.4718  0.2785
  164OSM   H10F18523   0.701   0.541   3.476  0.4146  0.1472  2.5137
  164OSM   C11F18524   0.774   0.751   3.418 -0.1000 -0.1239  0.5569
  164OSM   H11F18525   0.675   0.757   3.368  0.6743 -1.4707 -1.2283
  164OSM   H11G18526   0.852   0.779   3.343 -0.1921 -1.2619  0.0182
  164OSM   C12F18527   0.780   0.855   3.538 -0.2350 -0.3079 -0.1553
  164OSM   H12F18528   0.709   0.814   3.613 -0.4221  0.1992 -0.0524
  164OSM   H12G18529   0.749   0.958   3.510 -0.3183 -0.3341 -0.1608
  164OSM   C13F18530   0.907   0.845   3.618 -0.0488  0.5113 -0.1373
  164OSM   H13F18531   0.983   0.899   3.558 -1.8457  1.9400 -1.1589
  164OSM   H13G18532   0.939   0.738   3.624 -1.1074  0.0839 -1.6858
  164OSM   C14F18533   0.906   0.914   3.754  0.6552 -0.2427 -0.2928
  164OSM   H14F18534   0.841   0.851   3.818 -1.1010  1.9419  0.1453
  164OSM   H14G18535   0.849   1.009   3.746  1.7066  0.4333  0.1554
  164OSM   C15F18536   1.046   0.927   3.803  0.4609  0.4445  0.1581
  164OSM   H15F18537   1.095   0.996   3.731 -0.3947  0.1942 -0.6906
  164OSM   H15G18538   1.101   0.834   3.778 -0.6271  0.1568 -1.2395
  164OSM   C16F18539   1.068   0.970   3.946 -0.1055 -0.2128  0.1748
  164OSM   H16F18540   0.981   0.944   4.011 -0.1365  0.3543  0.3561
  164OSM   H16G18541   1.088   1.077   3.963  1.5592 -0.5919  0.6212
  164OSM   C17F18542   1.189   0.890   4.004 -0.6931 -0.0040  0.5635
  164OSM   H17F18543   1.274   0.901   3.934 -0.6789 -1.4965  0.3228
  164OSM   H17G18544   1.168   0.782   4.018  0.4939 -0.2352  0.5783
  164OSM   C18F18545   1.240   0.952   4.127 -0.4338 -0.0017 -0.2520
  164OSM   H18F18546   1.338   0.913   4.161 -0.3295  0.8700  0.4554
  164OSM   H18G18547   1.177   0.943   4.218  1.5445 -1.0614  1.0441
  164OSM   H18H18548   1.254   1.061   4.110 -0.9141  0.1068  0.0393
  165SAPS     N18549   5.228   4.752   6.602  0.2114  0.4562  0.9389
  165SAPS   HN118550   5.156   4.679   6.620  0.6896 -0.4851 -0.8100
  165SAPS   HN218551   5.298   4.762   6.678  2.1793  4.4805 -1.2354
  165SAPS   HN318552   5.184   4.845   6.589 -2.4184 -0.9233 -0.3784
  165SAPS   C1218553   5.292   4.691   6.472  0.6200 -0.7012  0.8560
  165SAPS  H12A18554   5.384   4.745   6.451  1.2905 -0.1494  4.7557
  165SAPS   C1318555   5.326   4.542   6.493 -0.4372 -0.4836 -0.0016
  165SAPS  O13A18556   5.290   4.480   6.598  0.2334 -0.4580 -0.0887
  165SAPS  O13B18557   5.395   4.483   6.407  0.6284  0.3972  0.3332
  165SAPS   C1118558   5.200   4.707   6.349 -0.3210  0.0261  0.3934
  165SAPS  H11A18559   5.123   4.627   6.353  0.4696 -0.7066  0.9195
  165SAPS  H11B18560   5.267   4.692   6.261  0.4752  0.7605  0.8652
  165SAPS     P18561   5.034   4.874   6.250 -0.1790 -0.5672 -0.2927
  165SAPS   O1318562   4.912   4.831   6.309  0.5460 -0.0059 -0.0622
  165SAPS   O1418563   5.051   5.018   6.222  0.2799  0.7783  0.0197
  165SAPS   O1218564   5.157   4.841   6.344  0.2628 -0.2358  0.1689
  165SAPS   O1118565   5.073   4.780   6.126 -0.0236 -0.4391  0.0398
  165SAPS    C118566   5.189   4.817   6.053  0.1647 -0.5605 -0.3526
  165SAPS    HA18567   5.247   4.902   6.093 -0.5838  0.7294 -1.9512
  165SAPS    HB18568   5.257   4.729   6.045  0.3820 -0.2842 -1.7950
  165SAPS    C218569   5.150   4.850   5.908  0.4093 -0.0629 -0.6589
  165SAPS    HS18570   5.062   4.785   5.886  0.3597 -0.2749  0.1287
  165SAPS   O2118571   5.259   4.838   5.821  0.6185 -0.1563 -0.2086
  165SAPS   C2118572   5.261   4.736   5.739 -0.3929  0.2713 -0.1936
  165SAPS   O2218573   5.174   4.651   5.735  0.1163 -0.2078  0.0019
  165SAPS   C2218574   5.386   4.742   5.645 -0.5316 -0.1693  1.0562
  165SAPS   H2R18575   5.479   4.720   5.701 -0.6316  0.3994  1.4392
  165SAPS   H2S18576   5.382   4.661   5.568  0.3312  0.6117  0.1821
  165SAPS    C318577   5.100   4.999   5.894 -0.5703 -0.4309 -0.1979
  165SAPS    HX18578   5.167   5.073   5.943 -1.8072  0.7823 -0.2823
  165SAPS    HY18579   5.014   5.003   5.965  0.1733  0.5591  0.6677
  165SAPS   O3118580   5.072   5.024   5.753  0.6063 -0.1475 -0.0095
  165SAPS   C3118581   5.158   5.110   5.690 -0.5226  0.5967  0.6098
  165SAPS   O3218582   5.251   5.167   5.746  0.4569  0.0858 -0.1960
  165SAPS   C3218583   5.122   5.111   5.538  0.4144  0.0120  0.1129
  165SAPS   H2X18584   5.020   5.154   5.536 -0.4715 -2.1353 -3.0726
  165SAPS   H2Y18585   5.115   5.004   5.511  1.6807 -0.6701  2.3355
  165SAPS   C2318586   5.408   4.876   5.573 -0.0936 -0.3137 -0.0524
  165SAPS   H3R18587   5.403   4.962   5.645 -1.0071 -1.2155  0.9847
  165SAPS   H3S18588   5.329   4.908   5.501  0.8023  0.5256 -0.6818
  165SAPS   C2418589   5.553   4.882   5.510  0.0300  0.1653 -0.9918
  165SAPS   H4R18590   5.558   4.810   5.426  1.6808  1.8553 -2.3871
  165SAPS   H4S18591   5.617   4.849   5.594 -0.9130  0.3237 -0.1937
  165SAPS   C2518592   5.589   5.023   5.468 -0.3108  0.0415  0.2022
  165SAPS   H5R18593   5.616   5.094   5.547  0.1586 -1.1601  1.1337
  165SAPS   C2618594   5.601   5.066   5.346 -0.0995 -0.3972 -0.2183
  165SAPS   H6R18595   5.637   5.170   5.334 -1.5404  0.2734  1.0481
  165SAPS   C2718596   5.579   4.997   5.210 -0.4017  1.4719  0.0071
  165SAPS   H7R18597   5.575   5.072   5.128 -1.1974 -0.1926 -1.4966
  165SAPS   H7S18598   5.479   4.950   5.217 -1.3974  3.5617  0.2574
  165SAPS   C2818599   5.680   4.893   5.183  0.4029 -0.3450  0.5883
  165SAPS   H8R18600   5.743   4.861   5.268 -1.0368  1.5064  2.4147
  165SAPS   C2918601   5.698   4.829   5.069 -0.2259 -0.1964  0.9388
  165SAPS   H9R18602   5.776   4.752   5.064  0.7822  0.6085  3.2906
  165SAPS  C21018603   5.618   4.843   4.937  0.5206 -0.5439  0.4949
  165SAPS  H10R18604   5.528   4.906   4.953  0.8623  0.6221 -1.9727
  165SAPS  H10S18605   5.572   4.749   4.901  0.9358 -1.8188  3.1686
  165SAPS  C21118606   5.692   4.912   4.820  0.3416 -0.0746 -0.5622
  165SAPS  H11R18607   5.751   4.999   4.854  0.3056 -0.4244  0.4057
  165SAPS  C21218608   5.703   4.878   4.689 -0.1714 -0.2802 -0.4513
  165SAPS  H12R18609   5.771   4.935   4.624  0.0571 -2.4383 -2.1743
  165SAPS  C21318610   5.637   4.756   4.614 -0.3396  0.0007 -0.7467
  165SAPS  H13R18611   5.576   4.690   4.679 -2.8282  0.7065 -2.3023
  165SAPS  H13S18612   5.720   4.697   4.568 -0.8716 -0.9307 -0.5236
  165SAPS  C21418613   5.543   4.808   4.512  0.0292 -0.3120 -0.1130
  165SAPS  H14R18614   5.447   4.839   4.554  0.0162 -1.0315  0.4013
  165SAPS  C21518615   5.558   4.828   4.383 -0.3286 -0.1726 -0.3621
  165SAPS  H15R18616   5.478   4.869   4.319 -0.9522 -1.6088 -0.5078
  165SAPS  C21618617   5.682   4.799   4.300  0.4450 -0.1823  0.4569
  165SAPS  H16R18618   5.649   4.737   4.214  0.5884 -2.3565  1.9366
  165SAPS  H16S18619   5.750   4.729   4.354 -0.8760 -1.5924  0.3413
  165SAPS  C21718620   5.746   4.925   4.235 -0.1854 -0.0724 -0.1094
  165SAPS  H17R18621   5.676   4.955   4.154  2.2807  0.6329 -2.0480
  165SAPS  H17S18622   5.836   4.884   4.184 -0.8124  0.6604 -1.8296
  165SAPS  C21818623   5.784   5.039   4.333  0.8193  1.1753  0.5828
  165SAPS  H18R18624   5.854   5.001   4.410  2.2692  2.4801 -0.0686
  165SAPS  H18S18625   5.699   5.082   4.391  0.9530  0.9748  0.9273
  165SAPS  C21918626   5.840   5.167   4.272 -0.0285  0.6870  0.9701
  165SAPS  H19R18627   5.772   5.196   4.189 -0.4696 -1.6153  0.4963
  165SAPS  H19S18628   5.941   5.154   4.228 -0.1813  1.2244  0.4448
  165SAPS  C22018629   5.861   5.279   4.378 -0.0513 -0.0551  0.2842
  165SAPS  H20R18630   5.765   5.304   4.427  1.2822 -0.8154  3.3998
  165SAPS  H20S18631   5.889   5.382   4.346 -2.5986  0.1088 -1.5515
  165SAPS  H20T18632   5.935   5.258   4.458  1.0391  2.9797  0.1328
  165SAPS   C3318633   5.217   5.191   5.444  0.4594 -0.7897 -1.2450
  165SAPS   H3X18634   5.319   5.179   5.487 -0.4889  1.1376  1.6254
  165SAPS   H3Y18635   5.189   5.298   5.449  0.6325 -0.8593  1.5970
  165SAPS   C3418636   5.214   5.139   5.301  0.4833 -0.1358  0.6534
  165SAPS   H4X18637   5.105   5.127   5.282  0.4149 -0.1749  1.0711
  165SAPS   H4Y18638   5.247   5.034   5.289  0.6157 -0.2524  1.9590
  165SAPS   C3518639   5.285   5.219   5.191  0.7446 -0.7597 -0.1151
  165SAPS   H5X18640   5.395   5.215   5.200  0.6317 -0.4220  1.6251
  165SAPS   H5Y18641   5.261   5.327   5.206  1.3730 -0.5256 -0.8337
  165SAPS   C3618642   5.221   5.184   5.053 -0.0705 -0.7103  0.2195
  165SAPS   H6X18643   5.113   5.203   5.035  0.4581  1.2202 -1.0209
  165SAPS   H6Y18644   5.232   5.073   5.045 -0.2875 -0.5226 -3.8056
  165SAPS   C3718645   5.288   5.247   4.927  0.2389 -0.3911  0.1318
  165SAPS   H7X18646   5.398   5.227   4.930  0.6204  1.7463  2.0181
  165SAPS   H7Y18647   5.265   5.355   4.936  0.3031 -0.3028 -0.6912
  165SAPS   C3818648   5.219   5.189   4.804  0.2863  0.1613 -0.4788
  165SAPS   H8X18649   5.110   5.201   4.814  0.6853  2.1819  1.8810
  165SAPS   H8Y18650   5.229   5.079   4.809  1.0548  0.2336 -0.2625
  165SAPS   C3918651   5.269   5.237   4.672 -0.4485 -0.1249 -0.0491
  165SAPS   H9X18652   5.373   5.199   4.662  0.0019  0.4384  2.1872
  165SAPS   H9Y18653   5.266   5.348   4.681  1.2852  0.1967 -2.7277
  165SAPS  C31018654   5.176   5.196   4.559 -0.6204  0.2309  0.7405
  165SAPS  H10X18655   5.205   5.251   4.468 -0.3874 -0.9853  0.0708
  165SAPS  H10Y18656   5.073   5.231   4.582 -1.1487 -0.2187 -0.8748
  165SAPS  C31118657   5.176   5.048   4.533  0.0780  0.2405 -0.0157
  165SAPS  H11X18658   5.119   4.993   4.611 -0.7248  0.6024 -0.3411
  165SAPS  H11Y18659   5.278   5.004   4.536  0.8564  1.7993 -2.3376
  165SAPS  C31218660   5.116   5.015   4.403 -0.8948 -0.0114 -0.0288
  165SAPS  H12X18661   5.174   5.080   4.334  0.5986 -0.1433  1.0691
  165SAPS  H12Y18662   5.009   5.044   4.401  0.0587  3.8359  0.4694
  165SAPS  C31318663   5.137   4.866   4.351  0.1858  0.6463 -0.1035
  165SAPS  H13X18664   5.078   4.797   4.416  0.7591  0.5582  0.3248
  165SAPS  H13Y18665   5.246   4.847   4.354  0.1447  0.5903  1.5770
  165SAPS  C31418666   5.075   4.844   4.209  0.5485  0.3392 -0.7307
  165SAPS  H14X18667   5.108   4.937   4.159 -2.8152  2.3188  0.5844
  165SAPS  H14Y18668   4.965   4.827   4.207  0.2243  2.1755  0.6959
  165SAPS  C31518669   5.131   4.715   4.149  0.2510 -0.2281  0.1750
  165SAPS  H15X18670   5.234   4.706   4.190  1.5532 -2.1924 -3.2773
  165SAPS  H15Y18671   5.135   4.744   4.042 -2.5543  0.8329  0.3303
  165SAPS  C31618672   5.051   4.585   4.167  0.2995 -0.3124  0.3632
  165SAPS  H16X18673   4.999   4.576   4.264 -1.1675  0.1284 -0.3658
  165SAPS  H16Y18674   5.125   4.503   4.176  0.7262 -0.0119 -0.3558
  165SAPS  C31718675   4.948   4.549   4.052 -0.0964 -0.0513  0.3279
  165SAPS  H17X18676   4.905   4.451   4.081 -0.9822  0.0698 -0.5477
  165SAPS  H17Y18677   5.007   4.553   3.958  0.0570  0.4686  0.4431
  165SAPS  C31818678   4.820   4.647   4.046  0.5506 -0.2917  0.5250
  165SAPS  H18X18679   4.808   4.677   4.153 -1.3860 -1.9633  0.8280
  165SAPS  H18Y18680   4.732   4.587   4.015  0.9510 -0.2085 -0.8002
  165SAPS  H18Z18681   4.834   4.742   3.990 -1.8039  0.5493  1.2678
  166SAPS     N18682   2.163   4.921   6.133 -0.1732 -0.4468  0.1196
  166SAPS   HN118683   2.193   4.991   6.204  2.6455 -0.8016 -0.6849
  166SAPS   HN218684   2.249   4.887   6.085 -0.3318 -0.1044 -0.4153
  166SAPS   HN318685   2.105   4.975   6.066 -2.5380 -1.4575  1.2977
  166SAPS   C1218686   2.080   4.825   6.202  0.6740 -0.3542  0.3479
  166SAPS  H12A18687   2.058   4.757   6.120 -2.9706 -0.1259  1.0320
  166SAPS   C1318688   2.141   4.739   6.311  0.4113  0.2568 -0.2274
  166SAPS  O13A18689   2.260   4.772   6.355  0.1839 -0.0111 -0.1183
  166SAPS  O13B18690   2.074   4.652   6.367 -0.6061  0.5829  0.5267
  166SAPS   C1118691   1.952   4.904   6.251  0.5960 -0.5862 -0.4582
  166SAPS  H11A18692   1.986   4.964   6.338 -0.6939 -2.5589  1.4506
  166SAPS  H11B18693   1.875   4.830   6.282  0.7939 -1.2675 -1.5405
  166SAPS     P18694   1.757   5.053   6.132  0.1292 -0.2166  0.0305
  166SAPS   O1318695   1.679   4.978   6.235  0.0180 -0.3168 -0.1506
  166SAPS   O1418696   1.739   5.199   6.129 -0.0541 -0.0735  0.2198
  166SAPS   O1218697   1.903   4.996   6.149 -0.1541 -0.0254  0.3674
  166SAPS   O1118698   1.718   5.000   5.990 -0.1619  0.5939 -0.0211
  166SAPS    C118699   1.742   4.863   5.950  0.2022 -0.1783 -0.3006
  166SAPS    HA18700   1.737   4.787   6.031  0.4651  0.1459  0.0191
  166SAPS    HB18701   1.660   4.830   5.883  0.0629 -1.1489  0.3382
  166SAPS    C218702   1.874   4.842   5.878  0.6910 -0.3784 -0.0279
  166SAPS    HS18703   1.951   4.832   5.957 -0.9673  0.9962  1.7995
  166SAPS   O2118704   1.886   4.950   5.778 -0.4916  0.1530 -0.5808
  166SAPS   C2118705   1.996   5.019   5.804 -0.6907 -0.2301  0.3612
  166SAPS   O2218706   2.077   4.991   5.891 -0.2430  0.0357 -0.5613
  166SAPS   C2218707   2.013   5.133   5.705 -0.3270  0.0250  0.7727
  166SAPS   H2R18708   2.050   5.103   5.605 -5.0629  1.0185 -1.3988
  166SAPS   H2S18709   1.913   5.178   5.684 -2.0419 -3.4536  1.1167
  166SAPS    C318710   1.877   4.705   5.805 -0.6091  0.5596  0.1714
  166SAPS    HX18711   1.782   4.708   5.748  0.9153  2.2509 -2.3606
  166SAPS    HY18712   1.874   4.619   5.875 -3.5025  0.5909  0.1558
  166SAPS   O3118713   1.989   4.688   5.716  0.2100 -0.1006  0.1846
  166SAPS   C3118714   2.100   4.686   5.783 -0.4465 -0.2926  0.1838
  166SAPS   O3218715   2.114   4.680   5.904 -1.0516 -0.5342 -0.0393
  166SAPS   C3218716   2.223   4.690   5.685  0.8364  0.3806  0.1622
  166SAPS   H2X18717   2.207   4.614   5.605 -1.9427 -0.1194  1.1229
  166SAPS   H2Y18718   2.309   4.646   5.739  1.8875  1.6227 -0.4758
  166SAPS   C2318719   2.115   5.237   5.761 -0.3930  0.6263 -0.1545
  166SAPS   H3R18720   2.207   5.186   5.795 -0.6207  1.1586  1.2797
  166SAPS   H3S18721   2.065   5.293   5.844 -1.4458 -1.0291  0.3572
  166SAPS   C2418722   2.159   5.342   5.663 -0.7269  0.6767  0.2135
  166SAPS   H4R18723   2.219   5.291   5.584  3.1718 -0.4537  3.7117
  166SAPS   H4S18724   2.240   5.397   5.716 -1.3403  1.2075  0.6108
  166SAPS   C2518725   2.060   5.434   5.611  0.3044 -0.1191 -0.2544
  166SAPS   H5R18726   1.991   5.485   5.680 -1.0137  1.0623 -2.3561
  166SAPS   C2618727   2.019   5.438   5.482 -0.4421 -0.2117  0.3180
  166SAPS   H6R18728   1.943   5.516   5.462  0.9778  0.5736 -2.1841
  166SAPS   C2718729   2.073   5.352   5.363 -0.1870  0.3570 -0.3761
  166SAPS   H7R18730   2.097   5.250   5.401  3.2158  0.9082 -0.8493
  166SAPS   H7S18731   2.172   5.389   5.328 -0.2463  0.9605  0.0794
  166SAPS   C2818732   1.962   5.346   5.260 -0.0473 -0.1739  0.2883
  166SAPS   H8R18733   1.863   5.336   5.306 -0.0058 -0.1007  0.3946
  166SAPS   C2918734   1.973   5.369   5.129  0.5572  0.6390  0.0883
  166SAPS   H9R18735   1.884   5.343   5.070  1.3283 -3.2128  0.4588
  166SAPS  C21018736   2.091   5.402   5.048  0.4879 -0.3136 -0.3019
  166SAPS  H10R18737   2.131   5.312   4.995 -0.2483 -1.3445  0.8607
  166SAPS  H10S18738   2.172   5.445   5.111  0.2605  1.5069 -1.2279
  166SAPS  C21118739   2.045   5.513   4.950  0.4510  0.4585  0.1864
  166SAPS  H11R18740   2.010   5.600   5.008  1.5335  0.4335  0.9101
  166SAPS  C21218741   2.041   5.507   4.817  0.0248  0.9645  0.7971
  166SAPS  H12R18742   2.003   5.593   4.761 -0.7098  1.1698  1.6134
  166SAPS  C21318743   2.079   5.383   4.735 -0.5351 -0.4793  0.4335
  166SAPS  H13R18744   2.176   5.339   4.769  0.2667  0.6803 -0.3061
  166SAPS  H13S18745   2.102   5.422   4.634  0.0631  1.9751  1.4835
  166SAPS  C21418746   1.980   5.266   4.725  0.5776 -0.2511 -0.4703
  166SAPS  H14R18747   1.950   5.230   4.824 -0.8931 -0.2571 -0.8977
  166SAPS  C21518748   1.941   5.199   4.618  0.1756 -0.4125 -0.0373
  166SAPS  H15R18749   1.871   5.115   4.635  0.5797 -0.9600 -1.0058
  166SAPS  C21618750   1.983   5.238   4.481 -0.5147 -0.0698 -0.1619
  166SAPS  H16R18751   1.960   5.152   4.414 -1.6194  0.7076 -0.7910
  166SAPS  H16S18752   2.093   5.254   4.474 -0.3409  0.7146  3.3820
  166SAPS  C21718753   1.903   5.357   4.418 -0.1255 -0.4345 -0.0693
  166SAPS  H17R18754   1.889   5.434   4.496 -0.4038  0.3943 -0.9372
  166SAPS  H17S18755   1.807   5.315   4.381  1.0809 -2.2904 -1.2508
  166SAPS  C21818756   1.959   5.430   4.288 -0.0280  0.4127  0.0035
  166SAPS  H18R18757   1.879   5.507   4.274 -1.9166 -1.8599 -2.1665
  166SAPS  H18S18758   1.964   5.354   4.207  0.6818 -0.3820  0.7796
  166SAPS  C21918759   2.093   5.492   4.308 -0.0661 -0.1739 -0.6961
  166SAPS  H19R18760   2.167   5.410   4.327  0.2980  0.4968  0.9364
  166SAPS  H19S18761   2.076   5.554   4.399  0.3396  1.4691 -1.7438
  166SAPS  C22018762   2.143   5.580   4.189 -0.2608  0.3500  0.2401
  166SAPS  H20R18763   2.155   5.516   4.099  0.8352 -1.4165  1.6041
  166SAPS  H20S18764   2.246   5.621   4.194  0.0485 -0.0953 -1.8988
  166SAPS  H20T18765   2.080   5.667   4.161  0.6865  0.8917 -0.1906
  166SAPS   C3318766   2.264   4.827   5.629  1.1153 -0.2415 -0.4137
  166SAPS   H3X18767   2.369   4.816   5.593  0.6114  0.4683 -2.1278
  166SAPS   H3Y18768   2.261   4.894   5.717  2.8912 -1.9479  0.9956
  166SAPS   C3418769   2.167   4.877   5.519 -0.6183 -0.4152 -0.5230
  166SAPS   H4X18770   2.186   4.986   5.511 -1.8978 -0.2233 -1.1556
  166SAPS   H4Y18771   2.063   4.861   5.554 -0.2798  1.6262  1.5006
  166SAPS   C3518772   2.190   4.814   5.382  1.0673  0.3923 -0.1961
  166SAPS   H5X18773   2.161   4.707   5.380 -2.4776  1.3174 -0.5696
  166SAPS   H5Y18774   2.300   4.811   5.369  1.2290  0.0241  1.1224
  166SAPS   C3618775   2.099   4.872   5.269  0.9426 -0.5558 -0.1724
  166SAPS   H6X18776   2.091   4.982   5.278  1.2245 -0.5060 -0.4877
  166SAPS   H6Y18777   1.996   4.841   5.294  0.3815  1.1674 -0.3526
  166SAPS   C3718778   2.134   4.843   5.119 -0.7885 -0.4072 -0.2220
  166SAPS   H7X18779   2.051   4.863   5.048 -1.8271 -0.2480  1.0316
  166SAPS   H7Y18780   2.170   4.738   5.110  0.5462  0.2261 -3.0486
  166SAPS   C3818781   2.247   4.936   5.067 -0.7038 -0.2604  0.2886
  166SAPS   H8X18782   2.343   4.896   5.105  1.1063  1.6704 -2.1116
  166SAPS   H8Y18783   2.228   5.034   5.116 -0.0514  0.8623 -1.6504
  166SAPS   C3918784   2.253   4.945   4.918 -0.0040  0.4683  0.4585
  166SAPS   H9X18785   2.153   4.975   4.880  0.1077 -1.9521 -1.9081
  166SAPS   H9Y18786   2.286   4.843   4.887 -0.5911  0.6317 -0.7647
  166SAPS  C31018787   2.351   5.056   4.861  0.2582  0.6652 -0.0930
  166SAPS  H10X18788   2.439   5.049   4.929  0.6199  0.0417 -0.6208
  166SAPS  H10Y18789   2.309   5.158   4.872 -1.9657 -0.1981 -0.2683
  166SAPS  C31118790   2.400   5.022   4.720  0.5120 -0.3463  0.6970
  166SAPS  H11X18791   2.438   4.918   4.714 -0.0773 -0.4205 -3.1398
  166SAPS  H11Y18792   2.483   5.090   4.690 -0.4161  0.4861 -0.0076
  166SAPS  C31218793   2.296   5.057   4.615 -0.5409  0.0294  0.4934
  166SAPS  H12X18794   2.289   5.166   4.601  0.1105  0.0885  0.5726
  166SAPS  H12Y18795   2.194   5.025   4.645 -1.0596 -0.4870 -1.7098
  166SAPS  C31318796   2.336   5.002   4.475 -0.2634 -0.5625  0.1036
  166SAPS  H13X18797   2.339   4.892   4.492 -2.7607 -0.2644  2.9653
  166SAPS  H13Y18798   2.443   5.028   4.464 -0.2443 -0.1105  1.2564
  166SAPS  C31418799   2.256   5.052   4.360  0.2334 -0.4168  0.4479
  166SAPS  H14X18800   2.280   5.156   4.329 -1.1265  0.0210  0.8508
  166SAPS  H14Y18801   2.150   5.042   4.393  0.2015 -0.1757  0.4174
  166SAPS  C31518802   2.270   4.964   4.236  0.2879 -0.1166  0.0416
  166SAPS  H15X18803   2.239   4.863   4.272  1.0523  0.8389  3.4748
  166SAPS  H15Y18804   2.374   4.960   4.195  0.5614 -2.0830  0.8288
  166SAPS  C31618805   2.181   5.002   4.125  0.1297 -0.0464 -0.2373
  166SAPS  H16X18806   2.082   4.963   4.155  1.5413 -3.3601  0.2977
  166SAPS  H16Y18807   2.205   4.937   4.038  2.4741 -0.5234  0.7255
  166SAPS  C31718808   2.181   5.160   4.083 -0.9389 -0.5189  0.0192
  166SAPS  H17X18809   2.290   5.179   4.069 -0.4293 -1.8483  1.9956
  166SAPS  H17Y18810   2.149   5.229   4.163 -3.0853 -0.2986 -0.9931
  166SAPS  C31818811   2.103   5.202   3.952  0.4044 -0.4337 -0.3038
  166SAPS  H18X18812   1.994   5.182   3.958  0.9189 -3.3305  0.2601
  166SAPS  H18Y18813   2.141   5.136   3.871  0.1509 -2.5706  1.2697
  166SAPS  H18Z18814   2.120   5.308   3.924 -0.0396  0.1199  1.4661
  167SAPS     N18815   4.342   6.864   6.331 -0.3976 -0.6771  0.1296
  167SAPS   HN118816   4.404   6.794   6.286  0.5948  0.7129 -0.7107
  167SAPS   HN218817   4.366   6.956   6.289  1.7620 -1.0830  0.4170
  167SAPS   HN318818   4.356   6.873   6.433  0.5036  0.6202 -0.0938
  167SAPS   C1218819   4.190   6.822   6.335 -0.2393 -0.1770 -0.5087
  167SAPS  H12A18820   4.171   6.732   6.392 -0.7325  1.5081  2.0956
  167SAPS   C1318821   4.103   6.927   6.404 -0.0704 -0.4980 -0.1170
  167SAPS  O13A18822   4.159   7.027   6.461  0.1606  0.9388  0.0434
  167SAPS  O13B18823   3.975   6.916   6.403  0.0660 -0.1749  0.2303
  167SAPS   C1118824   4.145   6.803   6.187 -1.1933  0.1792  0.0948
  167SAPS  H11A18825   4.131   6.898   6.132  1.2553 -0.0442 -0.9823
  167SAPS  H11B18826   4.044   6.758   6.193 -2.1691  2.1591 -1.0462
  167SAPS     P18827   4.200   6.559   6.118  0.2708  0.0609  0.0342
  167SAPS   O1318828   4.324   6.482   6.088  0.0850 -0.1322 -0.1354
  167SAPS   O1418829   4.121   6.524   6.236 -0.1178  0.0489  0.1798
  167SAPS   O1218830   4.231   6.712   6.125 -0.0529 -0.2480 -0.3807
  167SAPS   O1118831   4.101   6.543   5.996 -0.1379  0.0986  0.3415
  167SAPS    C118832   4.152   6.548   5.858 -0.1514  0.6328 -0.1951
  167SAPS    HA18833   4.236   6.476   5.851  0.8194  1.8915 -2.0569
  167SAPS    HB18834   4.076   6.514   5.784  1.3729  1.1122 -2.0194
  167SAPS    C218835   4.193   6.690   5.817 -0.2852 -0.4459 -0.6737
  167SAPS    HS18836   4.289   6.717   5.865 -0.9581  2.7336 -0.9907
  167SAPS   O2118837   4.090   6.780   5.860  0.2273 -0.3288 -0.2782
  167SAPS   C2118838   4.113   6.911   5.863  0.0498 -0.9357  0.0395
  167SAPS   O2218839   4.223   6.963   5.871 -0.6583 -0.2668 -0.0276
  167SAPS   C2218840   3.978   6.977   5.854  0.4046 -0.0634 -0.4630
  167SAPS   H2R18841   3.890   6.915   5.883  0.3154 -0.9361 -2.4933
  167SAPS   H2S18842   3.984   7.060   5.928 -1.2342 -0.5946  0.2744
  167SAPS    C318843   4.211   6.700   5.660  1.0521 -0.3774  0.6250
  167SAPS    HX18844   4.262   6.794   5.630 -0.8674  1.3348  2.4896
  167SAPS    HY18845   4.108   6.700   5.618  1.7089 -0.9162 -1.0019
  167SAPS   O3118846   4.267   6.578   5.613  0.1892 -0.2196 -0.1386
  167SAPS   C3118847   4.393   6.592   5.573 -0.1513 -0.1166  0.1508
  167SAPS   O3218848   4.459   6.693   5.566 -0.5045 -0.2107  0.7523
  167SAPS   C3218849   4.456   6.463   5.523 -0.1272 -0.5341 -0.3243
  167SAPS   H2X18850   4.400   6.383   5.577 -0.2122  0.0435  0.4469
  167SAPS   H2Y18851   4.554   6.459   5.575 -0.5588 -0.4946  0.5012
  167SAPS   C2318852   3.956   7.039   5.716 -0.4615 -0.1855 -0.7408
  167SAPS   H3R18853   3.848   7.034   5.688 -0.5880 -1.4331 -0.0256
  167SAPS   H3S18854   4.001   6.976   5.637 -0.2320 -2.3009  1.0538
  167SAPS   C2418855   3.991   7.196   5.703  0.4660  0.6649 -0.4380
  167SAPS   H4R18856   3.936   7.255   5.779 -1.3569  0.9171 -1.9367
  167SAPS   H4S18857   3.963   7.228   5.601  0.5949 -0.4636 -0.8357
  167SAPS   C2518858   4.136   7.223   5.726 -0.9074 -0.0265  0.1187
  167SAPS   H5R18859   4.160   7.229   5.833  2.4842  0.3045 -0.5991
  167SAPS   C2618860   4.236   7.251   5.636  1.3029  1.2376  0.3102
  167SAPS   H6R18861   4.329   7.300   5.669  1.2333  1.3666  0.3129
  167SAPS   C2718862   4.215   7.240   5.490 -0.7643  0.5152  0.0132
  167SAPS   H7R18863   4.107   7.221   5.472 -0.5549  0.0787 -0.8281
  167SAPS   H7S18864   4.276   7.154   5.455 -1.1074  0.1521  0.2994
  167SAPS   C2818865   4.260   7.356   5.401 -0.2640 -0.4794  0.4073
  167SAPS   H8R18866   4.285   7.452   5.448  1.7921 -1.3331  1.0915
  167SAPS   C2918867   4.253   7.354   5.269  0.1525 -0.4039  0.8070
  167SAPS   H9R18868   4.253   7.455   5.225 -0.2818  0.6978  3.2887
  167SAPS  C21018869   4.198   7.249   5.175  0.5753  0.3432 -0.2250
  167SAPS  H10R18870   4.171   7.157   5.231  0.4308  0.3790 -0.2352
  167SAPS  H10S18871   4.279   7.215   5.107  1.2274  1.5775 -0.0904
  167SAPS  C21118872   4.091   7.317   5.089  0.5019  0.5028 -0.1033
  167SAPS  H11R18873   3.987   7.302   5.123  1.4466 -0.1220  2.7071
  167SAPS  C21218874   4.104   7.388   4.980  0.0455 -0.3569  0.4667
  167SAPS  H12R18875   4.013   7.418   4.925 -1.1604 -3.1946  0.8326
  167SAPS  C21318876   4.239   7.424   4.915  0.8907 -0.5836  0.6462
  167SAPS  H13R18877   4.243   7.382   4.812  0.1518 -1.2117  0.8625
  167SAPS  H13S18878   4.318   7.365   4.967  1.7979 -3.0970 -3.3676
  167SAPS  C21418879   4.292   7.575   4.929  0.1676 -0.1128  0.3783
  167SAPS  H14R18880   4.283   7.616   5.030  1.7885  1.2167  0.0104
  167SAPS  C21518881   4.365   7.647   4.838 -0.3226 -0.2318 -0.7313
  167SAPS  H15R18882   4.399   7.746   4.870 -0.8314 -0.2554 -0.0960
  167SAPS  C21618883   4.414   7.610   4.702 -0.5901 -0.4017 -0.3598
  167SAPS  H16R18884   4.358   7.517   4.677  2.3440 -3.2190  2.9240
  167SAPS  H16S18885   4.523   7.596   4.689 -0.4410  1.1796 -0.9251
  167SAPS  C21718886   4.366   7.719   4.603  0.6813 -0.1633 -0.1686
  167SAPS  H17R18887   4.256   7.718   4.621  0.5351  1.7052 -0.8246
  167SAPS  H17S18888   4.374   7.675   4.501 -2.9672  0.0251 -0.6301
  167SAPS  C21818889   4.435   7.852   4.606 -0.4956  0.2367 -0.2754
  167SAPS  H18R18890   4.545   7.839   4.592 -0.2788 -0.4931  1.7922
  167SAPS  H18S18891   4.413   7.891   4.708  2.3822  1.5145 -0.0912
  167SAPS  C21918892   4.375   7.942   4.504  0.1193 -0.7766  0.5932
  167SAPS  H19R18893   4.265   7.951   4.515 -0.2012 -0.8885 -2.2201
  167SAPS  H19S18894   4.397   7.908   4.401  0.4668 -0.2570  0.4977
  167SAPS  C22018895   4.425   8.083   4.531  0.5837  0.0480  0.5069
  167SAPS  H20R18896   4.415   8.106   4.639 -0.0583  1.0957  0.2212
  167SAPS  H20S18897   4.381   8.162   4.468  1.2247 -1.1899 -1.5317
  167SAPS  H20T18898   4.532   8.092   4.502  1.4296 -0.3767  3.2754
  167SAPS   C3318899   4.462   6.426   5.371  0.5679  0.2483 -0.0467
  167SAPS   H3X18900   4.522   6.335   5.352  0.2165 -0.0726  0.4085
  167SAPS   H3Y18901   4.523   6.511   5.332 -0.9827  0.1257 -2.8978
  167SAPS   C3418902   4.324   6.422   5.297 -0.2562 -0.2164  0.2190
  167SAPS   H4X18903   4.269   6.516   5.317 -1.5470 -0.3524 -2.3478
  167SAPS   H4Y18904   4.262   6.347   5.351 -1.0814 -0.4360 -0.9990
  167SAPS   C3518905   4.341   6.395   5.144  0.2477  0.8276  0.7763
  167SAPS   H5X18906   4.240   6.371   5.105  1.3399 -1.6304 -0.6399
  167SAPS   H5Y18907   4.408   6.306   5.138  0.0550  0.7297  0.1184
  167SAPS   C3618908   4.385   6.517   5.062 -0.8157 -0.3331 -0.4713
  167SAPS   H6X18909   4.488   6.551   5.084 -0.7693 -0.2180 -0.8618
  167SAPS   H6Y18910   4.313   6.602   5.066  0.0973  0.4796 -1.1889
  167SAPS   C3718911   4.391   6.475   4.908 -0.0353  0.2427 -0.7690
  167SAPS   H7X18912   4.289   6.430   4.899  1.4874 -3.1690 -1.5869
  167SAPS   H7Y18913   4.458   6.387   4.909 -0.7401 -0.3045  0.6444
  167SAPS   C3818914   4.427   6.581   4.801  0.4184  0.0821  0.5156
  167SAPS   H8X18915   4.531   6.610   4.826  0.2037  1.2021  0.1336
  167SAPS   H8Y18916   4.351   6.662   4.811 -0.2496 -0.3136 -1.1504
  167SAPS   C3918917   4.434   6.518   4.668 -0.4845  0.8128 -0.0733
  167SAPS   H9X18918   4.344   6.453   4.664 -0.2492  0.5965 -3.5587
  167SAPS   H9Y18919   4.524   6.455   4.654 -0.0042  0.6947  3.1426
  167SAPS  C31018920   4.408   6.623   4.556 -0.0598 -0.4903  0.6214
  167SAPS  H10X18921   4.510   6.666   4.541 -0.0214  0.4832  3.3960
  167SAPS  H10Y18922   4.362   6.718   4.590  1.9193  0.7184  0.0459
  167SAPS  C31118923   4.354   6.562   4.434 -0.1434 -0.4221  0.7213
  167SAPS  H11X18924   4.249   6.530   4.449  0.0092 -1.4540 -0.3622
  167SAPS  H11Y18925   4.411   6.472   4.405  0.7636  0.7992 -1.4587
  167SAPS  C31218926   4.359   6.658   4.314  0.3522 -0.5763  0.2292
  167SAPS  H12X18927   4.447   6.727   4.318 -0.7377  0.8284  0.5186
  167SAPS  H12Y18928   4.271   6.723   4.333  1.7716  1.4416  0.1267
  167SAPS  C31318929   4.353   6.595   4.172  0.1734 -0.4002  0.1117
  167SAPS  H13X18930   4.327   6.677   4.102 -0.1130 -0.5372  0.0535
  167SAPS  H13Y18931   4.260   6.533   4.169 -1.2735  1.7118  0.5652
  167SAPS  C31418932   4.464   6.498   4.131  0.3498  0.0932  0.5580
  167SAPS  H14X18933   4.456   6.411   4.200  1.6594  0.4089  1.1108
  167SAPS  H14Y18934   4.558   6.554   4.147 -0.4828  1.4037  0.9637
  167SAPS  C31518935   4.434   6.439   3.993 -0.3595  0.0485 -0.1676
  167SAPS  H15X18936   4.455   6.510   3.910 -1.1231 -0.1628 -0.5461
  167SAPS  H15Y18937   4.324   6.421   3.984 -0.3413 -0.1274 -0.0369
  167SAPS  C31618938   4.501   6.304   3.974  0.4773 -0.4427 -0.8295
  167SAPS  H16X18939   4.438   6.223   4.016  0.3789 -0.4374 -0.9658
  167SAPS  H16Y18940   4.597   6.315   4.029  0.4014 -1.3344 -0.5222
  167SAPS  C31718941   4.527   6.271   3.831 -0.0829  0.2210 -0.8705
  167SAPS  H17X18942   4.595   6.184   3.832  0.5143  0.6873  0.3535
  167SAPS  H17Y18943   4.584   6.355   3.786 -0.2664 -0.1615 -1.8446
  167SAPS  C31818944   4.399   6.246   3.753 -0.2070  0.7341  0.3793
  167SAPS  H18X18945   4.344   6.343   3.760 -1.7480 -0.0592 -0.5264
  167SAPS  H18Y18946   4.335   6.159   3.779  1.7753 -0.8244  0.0778
  167SAPS  H18Z18947   4.420   6.243   3.644 -1.8907  1.7893  0.0066
  168SAPS     N18948   2.993   6.889   6.111 -0.2590  0.2875 -0.2631
  168SAPS   HN118949   3.030   6.802   6.067 -2.0282 -0.7099  0.1620
  168SAPS   HN218950   2.896   6.912   6.084  0.1050  1.6484 -0.4477
  168SAPS   HN318951   3.051   6.971   6.086 -0.8305  0.6531 -0.3905
  168SAPS   C1218952   2.989   6.870   6.255  0.3538  0.0486 -0.9340
  168SAPS  H12A18953   3.086   6.863   6.300  0.4268 -2.7027 -1.4288
  168SAPS   C1318954   2.925   6.989   6.329 -0.3761 -0.3428 -0.5046
  168SAPS  O13A18955   2.912   7.109   6.274  0.3582  0.0618 -0.1886
  168SAPS  O13B18956   2.922   6.970   6.455 -0.1283  0.1597 -0.3062
  168SAPS   C1118957   2.907   6.741   6.291 -0.0365  0.7096 -0.0740
  168SAPS  H11A18958   2.799   6.751   6.266  0.5313  0.7987 -2.6706
  168SAPS  H11B18959   2.904   6.736   6.402  1.0436 -1.5348 -0.1234
  168SAPS     P18960   2.899   6.525   6.145  0.1531 -0.8763 -0.1171
  168SAPS   O1318961   2.979   6.404   6.143 -0.5188 -0.9693  0.0533
  168SAPS   O1418962   2.756   6.513   6.198 -0.1686 -0.3241  0.5348
  168SAPS   O1218963   2.968   6.624   6.240 -0.5141 -0.2444 -0.0910
  168SAPS   O1118964   2.903   6.603   6.014 -0.1604  0.4357  0.2556
  168SAPS    C118965   2.830   6.574   5.894  0.2832 -0.1680 -0.4279
  168SAPS    HA18966   2.896   6.528   5.818 -1.2618 -0.9378 -1.3258
  168SAPS    HB18967   2.747   6.505   5.917  3.3081 -2.2998  4.8276
  168SAPS    C218968   2.753   6.701   5.853  0.1528  0.2730 -0.1112
  168SAPS    HS18969   2.703   6.688   5.755  0.2120 -1.0032  0.0234
  168SAPS   O2118970   2.842   6.822   5.846 -0.1358 -0.1795 -0.3908
  168SAPS   C2118971   2.914   6.822   5.735 -0.4992  0.0561  0.4736
  168SAPS   O2218972   2.930   6.726   5.659  0.4585  0.2134  0.1792
  168SAPS   C2218973   2.992   6.950   5.723 -0.0711 -0.0541 -0.5459
  168SAPS   H2R18974   2.916   7.026   5.692  0.8503  0.5079 -1.4421
  168SAPS   H2S18975   3.026   6.972   5.827 -2.1962  1.7508 -0.1835
  168SAPS    C318976   2.632   6.741   5.953 -0.0448  0.2435 -0.2488
  168SAPS    HX18977   2.668   6.729   6.057 -1.8257 -0.8507  0.2691
  168SAPS    HY18978   2.559   6.658   5.941 -0.8595  0.6236  1.9211
  168SAPS   O3118979   2.559   6.867   5.934 -0.0107  0.0873 -0.1163
  168SAPS   C3118980   2.624   6.973   5.997  0.0651 -0.4678  0.1302
  168SAPS   O3218981   2.730   6.966   6.059  0.0772  0.2486  0.3906
  168SAPS   C3218982   2.548   7.100   5.965 -0.5512  0.6204  0.2334
  168SAPS   H2X18983   2.600   7.180   6.021  0.7744  0.5312 -0.8320
  168SAPS   H2Y18984   2.450   7.086   6.016  0.4919  1.5680  2.5744
  168SAPS   C2318985   3.107   6.936   5.627  0.1592  0.4189 -0.1052
  168SAPS   H3R18986   3.068   6.907   5.527 -2.6623 -0.6907  1.2676
  168SAPS   H3S18987   3.179   6.864   5.669  0.2341  2.3045  3.1867
  168SAPS   C2418988   3.197   7.059   5.605 -0.9095  0.9061  0.0899
  168SAPS   H4R18989   3.291   7.018   5.562 -0.5418  2.0787 -0.2524
  168SAPS   H4S18990   3.226   7.107   5.701  1.5595 -1.9413  0.8432
  168SAPS   C2518991   3.137   7.149   5.501 -0.6894  0.0223 -0.0138
  168SAPS   H5R18992   3.066   7.225   5.537  1.1515  1.2384  1.1295
  168SAPS   C2618993   3.168   7.161   5.375 -0.0426  0.4614  0.3690
  168SAPS   H6R18994   3.112   7.222   5.303 -0.2360 -0.5728 -0.3767
  168SAPS   C2718995   3.270   7.088   5.297 -0.2089  0.3865  0.3121
  168SAPS   H7R18996   3.359   7.091   5.363  0.2853 -1.4587 -0.2608
  168SAPS   H7S18997   3.295   7.155   5.211 -0.6225  0.3274  0.1441
  168SAPS   C2818998   3.232   6.955   5.230  0.6249  1.1473 -0.3794
  168SAPS   H8R18999   3.153   6.899   5.282  1.3780 -0.6288 -1.1081
  168SAPS   C2919000   3.292   6.912   5.120  0.1413 -0.0400  0.5532
  168SAPS   H9R19001   3.254   6.820   5.074  1.2943  0.0228 -0.5810
  168SAPS  C21019002   3.409   6.982   5.048  0.2266 -0.2631  0.3964
  168SAPS  H10R19003   3.470   7.026   5.130 -2.1160 -1.3163  2.7588
  168SAPS  H10S19004   3.386   7.071   4.985 -3.5392 -0.4308  1.4465
  168SAPS  C21119005   3.495   6.880   4.979  0.5138  0.7019 -0.3475
  168SAPS  H11R19006   3.564   6.820   5.039 -1.6452 -1.8244 -0.2823
  168SAPS  C21219007   3.490   6.852   4.850 -0.2116 -0.1192  0.2517
  168SAPS  H12R19008   3.540   6.760   4.817 -0.1377 -0.2042  0.5997
  168SAPS  C21319009   3.408   6.920   4.749 -0.2123 -0.0836 -0.0341
  168SAPS  H13R19010   3.455   6.911   4.648 -1.8879 -1.9806 -0.6874
  168SAPS  H13S19011   3.407   7.028   4.770 -0.4413 -0.1492  0.2853
  168SAPS  C21419012   3.261   6.878   4.749  0.3505 -0.3574  0.0536
  168SAPS  H14R19013   3.198   6.923   4.827  0.2798  0.2715 -0.3633
  168SAPS  C21519014   3.195   6.807   4.654  0.8328 -0.1256  0.4318
  168SAPS  H15R19015   3.089   6.782   4.661  1.0458 -1.6570 -1.4579
  168SAPS  C21619016   3.253   6.745   4.531 -0.2148  0.0218  0.2045
  168SAPS  H16R19017   3.362   6.765   4.534  0.0017 -1.0216 -0.4722
  168SAPS  H16S19018   3.199   6.798   4.450 -0.5544  0.4926  0.7293
  168SAPS  C21719019   3.242   6.587   4.545  0.1392 -0.2529  0.4264
  168SAPS  H17R19020   3.268   6.544   4.446 -0.2952 -2.9598  1.4413
  168SAPS  H17S19021   3.134   6.564   4.555 -0.0400 -0.3229 -1.5248
  168SAPS  C21819022   3.338   6.513   4.644  0.5270 -0.6932 -0.4132
  168SAPS  H18R19023   3.286   6.423   4.683 -1.6462  1.6325  2.3307
  168SAPS  H18S19024   3.356   6.563   4.741  2.4446 -2.1819  0.0041
  168SAPS  C21919025   3.470   6.459   4.581 -0.4250  0.4787  0.0178
  168SAPS  H19R19026   3.445   6.375   4.513 -2.8716 -0.2400  1.7216
  168SAPS  H19S19027   3.532   6.410   4.659  0.6697  2.0380  0.1529
  168SAPS  C22019028   3.552   6.571   4.510 -0.1699  0.5681 -0.3280
  168SAPS  H20R19029   3.637   6.516   4.464 -0.5262 -2.7059  2.7686
  168SAPS  H20S19030   3.596   6.644   4.581  0.1877 -1.8522  2.0007
  168SAPS  H20T19031   3.486   6.612   4.430  0.4356 -2.0272 -2.2297
  168SAPS   C3319032   2.538   7.128   5.820 -0.6522 -0.3085 -0.0211
  168SAPS   H3X19033   2.476   7.219   5.804  1.8259  1.3894 -0.1754
  168SAPS   H3Y19034   2.504   7.046   5.753 -3.3095 -0.5886  1.5923
  168SAPS   C3419035   2.668   7.193   5.776 -0.6873 -0.0604  0.2198
  168SAPS   H4X19036   2.750   7.127   5.812 -1.7452 -0.4208  2.0374
  168SAPS   H4Y19037   2.696   7.287   5.828 -1.1493  0.0184  0.3193
  168SAPS   C3519038   2.672   7.204   5.628  0.0763 -0.5360 -0.1700
  168SAPS   H5X19039   2.578   7.243   5.583 -1.5063 -3.2193  0.6809
  168SAPS   H5Y19040   2.690   7.107   5.577  0.6143 -0.0613 -0.8852
  168SAPS   C3619041   2.789   7.290   5.596 -0.4258 -1.0689 -0.1201
  168SAPS   H6X19042   2.888   7.242   5.611  0.6215  0.8093 -0.8162
  168SAPS   H6Y19043   2.787   7.371   5.672  0.0626 -1.0053 -0.1725
  168SAPS   C3719044   2.780   7.351   5.456 -0.0513 -0.2698  0.1880
  168SAPS   H7X19045   2.867   7.421   5.454 -0.9639  0.9119  1.0741
  168SAPS   H7Y19046   2.684   7.407   5.460  0.5359  0.6407  3.1714
  168SAPS   C3819047   2.787   7.249   5.345 -0.2270  0.1449  0.4080
  168SAPS   H8X19048   2.691   7.194   5.344  0.7392 -1.6010  1.0641
  168SAPS   H8Y19049   2.863   7.169   5.359  0.5117  0.4093 -1.8552
  168SAPS   C3919050   2.817   7.336   5.219  0.0097  0.3460  0.9050
  168SAPS   H9X19051   2.920   7.377   5.206 -0.9147  1.8093 -2.5195
  168SAPS   H9Y19052   2.743   7.420   5.218 -0.0213  0.3136 -0.2559
  168SAPS  C31019053   2.783   7.259   5.092 -0.1249 -0.2233 -0.1021
  168SAPS  H10X19054   2.822   7.305   4.998 -0.9965 -1.0603 -0.8844
  168SAPS  H10Y19055   2.672   7.264   5.087 -0.1091  2.0186  1.2003
  168SAPS  C31119056   2.829   7.115   5.085 -0.0951  0.5680  0.1502
  168SAPS  H11X19057   2.784   7.055   5.167 -1.3242  2.4524  0.8783
  168SAPS  H11Y19058   2.940   7.113   5.085 -0.1026 -1.9640  1.1955
  168SAPS  C31219059   2.796   7.044   4.951 -0.2781 -0.2118  0.5263
  168SAPS  H12X19060   2.864   6.958   4.939  0.7227  0.2620  2.6303
  168SAPS  H12Y19061   2.819   7.116   4.869  1.1812 -1.6088 -0.3161
  168SAPS  C31319062   2.649   6.999   4.926  0.5750 -0.0999  0.1844
  168SAPS  H13X19063   2.574   7.057   4.983 -2.9157 -1.7685 -2.4840
  168SAPS  H13Y19064   2.638   6.895   4.963 -3.2792  0.1003 -0.2035
  168SAPS  C31419065   2.614   6.989   4.772 -0.2408  0.1051  0.9496
  168SAPS  H14X19066   2.675   6.907   4.728 -0.4032  0.1137  0.7045
  168SAPS  H14Y19067   2.647   7.081   4.719 -0.0048  0.2641  1.3727
  168SAPS  C31519068   2.471   6.958   4.742  0.7629  0.4592  0.3715
  168SAPS  H15X19069   2.410   7.032   4.798 -0.3470 -1.4380  1.7282
  168SAPS  H15Y19070   2.443   6.861   4.786  0.0178  1.0372  1.1810
  168SAPS  C31619071   2.438   6.953   4.595  0.0657 -0.5057  0.7723
  168SAPS  H16X19072   2.494   6.872   4.544 -1.8840 -2.2766  1.4080
  168SAPS  H16Y19073   2.463   7.051   4.548 -0.3674 -0.7769 -0.0248
  168SAPS  C31719074   2.285   6.930   4.564  0.5180 -0.0266 -0.2981
  168SAPS  H17X19075   2.229   7.016   4.607  0.4105 -0.1005 -0.2922
  168SAPS  H17Y19076   2.251   6.850   4.632  1.2203 -0.1669 -0.1064
  168SAPS  C31819077   2.261   6.892   4.422 -0.1400  1.2971  0.1615
  168SAPS  H18X19078   2.322   6.946   4.346 -2.0032  2.4255 -0.5723
  168SAPS  H18Y19079   2.156   6.913   4.393 -0.8051  0.5977  1.9952
  168SAPS  H18Z19080   2.274   6.783   4.408 -0.3847  1.4969 -1.6797
  169SAPS     N19081   6.439   2.146   6.209  0.3604 -0.1141 -0.5610
  169SAPS   HN119082   6.398   2.052   6.191 -0.0957 -0.0501  0.1127
  169SAPS   HN219083   6.368   2.214   6.243  0.7567  0.7076 -1.3905
  169SAPS   HN319084   6.482   2.182   6.122 -0.1225  1.4966 -0.1482
  169SAPS   C1219085   6.548   2.147   6.316 -0.4471  0.2859  0.1260
  169SAPS  H12A19086   6.588   2.247   6.306 -2.6096  1.0049 -1.7159
  169SAPS   C1319087   6.495   2.128   6.462 -0.1044 -0.1662 -0.2598
  169SAPS  O13A19088   6.396   2.205   6.493 -0.5091 -0.5023  0.6765
  169SAPS  O13B19089   6.592   2.123   6.546 -0.1490 -0.4362 -0.0994
  169SAPS   C1119090   6.652   2.042   6.272  0.7803 -0.0577  0.5509
  169SAPS  H11A19091   6.601   1.944   6.275  0.0329  0.1426 -2.9375
  169SAPS  H11B19092   6.736   2.030   6.344  0.9384 -0.1286  0.3569
  169SAPS     P19093   6.845   2.023   6.080 -0.2316  0.4593  0.1802
  169SAPS   O1319094   6.927   2.144   6.092 -0.1433 -0.0057 -0.3283
  169SAPS   O1419095   6.900   1.905   6.157  0.3073 -0.0678  0.0960
  169SAPS   O1219096   6.700   2.054   6.140  0.5269  0.2863 -0.1176
  169SAPS   O1119097   6.810   1.992   5.930 -0.3801 -0.0170  0.0230
  169SAPS    C119098   6.810   2.097   5.833  0.1564 -0.6723  0.3631
  169SAPS    HA19099   6.894   2.166   5.855  0.4084 -0.8845  0.0705
  169SAPS    HB19100   6.838   2.043   5.740  0.9126 -0.5014  0.4861
  169SAPS    C219101   6.667   2.163   5.817 -0.4812 -0.2258 -0.2243
  169SAPS    HS19102   6.650   2.222   5.909  3.5340  1.2249 -0.3329
  169SAPS   O2119103   6.577   2.051   5.809  0.0710  0.7447  1.2016
  169SAPS   C2119104   6.456   2.066   5.867 -0.1877 -0.4149 -0.1751
  169SAPS   O2219105   6.426   2.162   5.935 -0.5059  0.2554  0.4802
  169SAPS   C2219106   6.361   1.961   5.823  0.0031 -0.2206 -0.1950
  169SAPS   H2R19107   6.423   1.878   5.783 -0.6176  0.2952 -2.2942
  169SAPS   H2S19108   6.313   1.927   5.917  1.2913 -2.2205 -0.2337
  169SAPS    C319109   6.659   2.258   5.694  0.0569  0.3047  0.5472
  169SAPS    HX19110   6.687   2.190   5.611  0.4900  2.9168 -1.5262
  169SAPS    HY19111   6.736   2.339   5.692  0.8266 -0.4372 -1.1518
  169SAPS   O3119112   6.529   2.307   5.676  0.2275  0.3191  0.1703
  169SAPS   C3119113   6.496   2.407   5.755  0.5590  0.2041  0.0578
  169SAPS   O3219114   6.567   2.472   5.832 -0.2885  0.2522 -0.4710
  169SAPS   C3219115   6.350   2.433   5.741  0.2964 -0.0679 -0.7563
  169SAPS   H2X19116   6.314   2.530   5.781 -0.1508 -0.7188  0.4803
  169SAPS   H2Y19117   6.302   2.348   5.794  0.4665  0.5909  0.4758
  169SAPS   C2319118   6.258   2.019   5.722  0.7614 -0.9265  0.2425
  169SAPS   H3R19119   6.228   2.123   5.749 -2.1256 -1.0943 -2.0548
  169SAPS   H3S19120   6.171   1.950   5.719  0.8779 -1.1317  1.2572
  169SAPS   C2419121   6.315   2.037   5.577 -0.2388 -0.7913 -0.3775
  169SAPS   H4R19122   6.404   2.103   5.587 -0.3044 -0.0633 -4.1134
  169SAPS   H4S19123   6.245   2.101   5.518  0.4288  2.2909  2.0192
  169SAPS   C2519124   6.343   1.902   5.508 -0.6281 -0.1328 -0.7466
  169SAPS   H5R19125   6.268   1.823   5.522  1.3008 -1.8156  0.4223
  169SAPS   C2619126   6.457   1.865   5.448 -0.2590  0.2120  0.6079
  169SAPS   H6R19127   6.472   1.764   5.406 -1.1602  0.9487 -1.5962
  169SAPS   C2719128   6.581   1.954   5.433  0.7567 -0.5341 -0.3495
  169SAPS   H7R19129   6.561   2.053   5.480  0.3168 -0.6637 -0.2685
  169SAPS   H7S19130   6.602   1.964   5.324 -0.2694 -2.6021 -0.7680
  169SAPS   C2819131   6.693   1.886   5.508  0.1076  0.0261 -0.3841
  169SAPS   H8R19132   6.658   1.848   5.605  0.5559 -1.5807 -0.8385
  169SAPS   C2919133   6.825   1.877   5.474  0.8599 -0.3431 -0.0200
  169SAPS   H9R19134   6.889   1.822   5.544  0.6761  1.0674  1.2847
  169SAPS  C21019135   6.876   1.938   5.344 -0.7215 -0.6352  0.5822
  169SAPS  H10R19136   6.847   2.045   5.348  0.7576 -0.1411 -1.1099
  169SAPS  H10S19137   6.822   1.907   5.252  1.4679 -0.4117 -0.8180
  169SAPS  C21119138   7.026   1.936   5.332  0.0520 -0.8443 -0.0656
  169SAPS  H11R19139   7.080   1.968   5.422 -0.2488 -0.1542 -0.1277
  169SAPS  C21219140   7.096   1.917   5.217 -0.0786  0.4629  0.3262
  169SAPS  H12R19141   7.205   1.908   5.217 -0.1335 -0.2725 -1.6152
  169SAPS  C21319142   7.038   1.896   5.075  0.5621 -0.2233  0.0394
  169SAPS  H13R19143   7.103   1.944   4.999  1.2831  0.6782  1.2081
  169SAPS  H13S19144   6.943   1.952   5.062  0.4665 -0.0944  1.2485
  169SAPS  C21419145   7.008   1.747   5.054 -0.2815  0.6316  0.2114
  169SAPS  H14R19146   6.949   1.699   5.133 -1.1682 -0.2459 -0.9654
  169SAPS  C21519147   7.043   1.668   4.948 -0.1457 -0.0893  0.1541
  169SAPS  H15R19148   7.031   1.559   4.957  2.0331 -0.3016  0.6636
  169SAPS  C21619149   7.120   1.730   4.830  0.1991 -0.3012  0.4080
  169SAPS  H16R19150   7.221   1.691   4.804  1.8043  1.7586  3.3073
  169SAPS  H16S19151   7.118   1.842   4.832  1.2739 -0.2402 -0.9840
  169SAPS  C21719152   7.039   1.685   4.702  0.9610  0.1731 -0.1653
  169SAPS  H17R19153   7.043   1.772   4.632 -1.1146  0.4257 -0.0058
  169SAPS  H17S19154   6.935   1.655   4.727  1.4038 -0.2391  1.2375
  169SAPS  C21819155   7.112   1.562   4.626 -0.0567 -0.0193  0.7681
  169SAPS  H18R19156   7.100   1.462   4.673  0.9410 -0.3319  0.3712
  169SAPS  H18S19157   7.219   1.590   4.610  0.2839 -1.6807  0.0493
  169SAPS  C21919158   7.062   1.538   4.483  0.2960 -0.2993  1.0887
  169SAPS  H19R19159   7.097   1.624   4.422  0.0204  0.1049  1.4975
  169SAPS  H19S19160   6.953   1.551   4.474  0.5662  2.2904  1.2916
  169SAPS  C22019161   7.117   1.410   4.415 -0.2081  0.7426  0.1640
  169SAPS  H20R19162   7.226   1.392   4.427 -0.3614  1.0238  2.1493
  169SAPS  H20S19163   7.082   1.407   4.310  1.3309 -1.8378 -0.3202
  169SAPS  H20T19164   7.078   1.321   4.467  0.0963  0.1081 -0.6876
  169SAPS   C3319165   6.291   2.435   5.598 -0.3832 -0.2665  0.5203
  169SAPS   H3X19166   6.189   2.479   5.602 -0.8054 -1.2122  0.3273
  169SAPS   H3Y19167   6.279   2.329   5.566 -2.2113  0.2204 -0.4754
  169SAPS   C3419168   6.375   2.507   5.493 -0.3325  0.5423  0.2446
  169SAPS   H4X19169   6.482   2.480   5.502 -0.5649  0.3465  2.8835
  169SAPS   H4Y19170   6.370   2.617   5.511 -3.3505  0.3173  1.1078
  169SAPS   C3519171   6.334   2.471   5.347  0.0119 -0.9867  0.2367
  169SAPS   H5X19172   6.386   2.550   5.288 -0.9037  1.0186  2.0579
  169SAPS   H5Y19173   6.227   2.486   5.324  0.0032 -0.8903  0.3469
  169SAPS   C3619174   6.378   2.326   5.303  0.5469 -0.2914 -0.0392
  169SAPS   H6X19175   6.309   2.259   5.360  0.1101  0.4804  0.3473
  169SAPS   H6Y19176   6.479   2.295   5.338  0.3989 -1.9652 -1.0581
  169SAPS   C3719177   6.375   2.302   5.152 -0.5655  0.1588  0.0252
  169SAPS   H7X19178   6.437   2.379   5.101 -0.1655 -0.6353 -0.7010
  169SAPS   H7Y19179   6.270   2.312   5.116 -0.7034  1.2351  0.6942
  169SAPS   C3819180   6.425   2.168   5.111 -0.3902 -0.1011  0.2126
  169SAPS   H8X19181   6.388   2.150   5.007 -1.5751 -0.8915  0.7656
  169SAPS   H8Y19182   6.388   2.090   5.179  0.1844  0.3587  1.0617
  169SAPS   C3919183   6.580   2.171   5.113  0.8323 -0.0689 -0.3878
  169SAPS   H9X19184   6.619   2.164   5.217  3.9361  0.6442 -1.4526
  169SAPS   H9Y19185   6.630   2.256   5.064  0.6469  0.2911  0.0407
  169SAPS  C31019186   6.636   2.043   5.048 -0.7943  0.4989  0.5729
  169SAPS  H10X19187   6.616   1.961   5.119 -0.1669  1.3434  1.7490
  169SAPS  H10Y19188   6.746   2.055   5.063 -0.7281 -0.4536  0.8614
  169SAPS  C31119189   6.601   2.005   4.903  0.3527 -0.7146 -0.0028
  169SAPS  H11X19190   6.490   2.003   4.895  0.1915 -2.6135  2.3587
  169SAPS  H11Y19191   6.641   1.904   4.879 -1.4468 -1.8512  1.6007
  169SAPS  C31219192   6.643   2.114   4.804 -0.0309  0.5436  0.0225
  169SAPS  H12X19193   6.754   2.120   4.807  0.0891 -1.8288  2.6862
  169SAPS  H12Y19194   6.608   2.211   4.844 -1.7696 -0.2009  0.3647
  169SAPS  C31319195   6.606   2.096   4.654 -0.1923  0.4448 -0.7246
  169SAPS  H13X19196   6.643   2.186   4.601 -0.7414 -0.6635 -3.0700
  169SAPS  H13Y19197   6.496   2.089   4.645 -0.2268  0.8769 -0.6577
  169SAPS  C31419198   6.683   1.980   4.587  0.1123  0.3541 -0.3601
  169SAPS  H14X19199   6.681   1.884   4.644  0.7281 -0.1539 -1.1795
  169SAPS  H14Y19200   6.787   2.020   4.587  0.4280 -0.4420 -1.4381
  169SAPS  C31519201   6.635   1.937   4.451 -0.0154  0.4535 -0.1216
  169SAPS  H15X19202   6.660   2.023   4.385  0.1549  1.2200  0.9099
  169SAPS  H15Y19203   6.526   1.917   4.452 -0.2220  1.3939 -1.9413
  169SAPS  C31619204   6.716   1.810   4.413  0.0507 -0.6392 -0.0791
  169SAPS  H16X19205   6.692   1.722   4.476 -1.9848 -1.1271 -1.4661
  169SAPS  H16Y19206   6.822   1.843   4.419 -0.0003 -0.2399 -1.3021
  169SAPS  C31719207   6.699   1.767   4.269 -0.4478  0.6986  0.4440
  169SAPS  H17X19208   6.732   1.847   4.200  0.7136 -1.1928 -1.2592
  169SAPS  H17Y19209   6.595   1.757   4.232 -0.3617  0.0493  0.3626
  169SAPS  C31819210   6.779   1.633   4.244  0.4683  0.7399  0.1665
  169SAPS  H18X19211   6.885   1.660   4.261  0.9541 -1.5968  1.0238
  169SAPS  H18Y19212   6.769   1.592   4.141 -2.1998 -0.0906  0.7127
  169SAPS  H18Z19213   6.757   1.558   4.323 -2.5442  1.6009  0.2175
  170SAPS     N19214   6.303   6.075   6.187 -0.1067  0.9892 -0.1740
  170SAPS   HN119215   6.308   5.971   6.196 -0.7193  1.1401  2.4029
  170SAPS   HN219216   6.207   6.115   6.176  0.2580  2.4734  1.7267
  170SAPS   HN319217   6.342   6.092   6.093  2.0211 -2.7303 -0.0546
  170SAPS   C1219218   6.374   6.149   6.300  0.2530  0.8112 -0.5900
  170SAPS  H12A19219   6.296   6.165   6.373  0.1632  1.2091 -0.7738
  170SAPS   C1319220   6.492   6.066   6.362  0.8254 -0.6090  0.5359
  170SAPS  O13A19221   6.499   5.945   6.332  0.1587 -0.0211  0.4513
  170SAPS  O13B19222   6.552   6.114   6.456  0.7627 -0.1271  0.8615
  170SAPS   C1119223   6.431   6.276   6.235  0.5690 -0.4405  0.3405
  170SAPS  H11A19224   6.508   6.251   6.159  1.2717 -0.1266  0.9351
  170SAPS  H11B19225   6.470   6.340   6.318  1.1530  1.1283 -1.1190
  170SAPS     P19226   6.352   6.437   6.048  0.0967 -0.0101 -0.2320
  170SAPS   O1319227   6.320   6.359   5.929 -0.7585 -0.3933  0.0335
  170SAPS   O1419228   6.272   6.560   6.081  0.2042 -0.3674 -0.1138
  170SAPS   O1219229   6.324   6.347   6.168 -0.2634  0.1384 -0.3914
  170SAPS   O1119230   6.507   6.470   6.060  0.4658 -0.7759  0.4359
  170SAPS    C119231   6.612   6.430   5.972 -0.2978 -0.0239 -0.7642
  170SAPS    HA19232   6.690   6.397   6.044 -0.1853  1.4901 -0.1706
  170SAPS    HB19233   6.580   6.341   5.913 -2.0048  1.9324 -2.9116
  170SAPS    C219234   6.663   6.542   5.882  0.3730 -0.1214  0.1121
  170SAPS    HS19235   6.653   6.632   5.946  0.6466  1.1842 -1.6455
  170SAPS   O2119236   6.603   6.542   5.752 -0.1677 -0.1742 -0.3929
  170SAPS   C2119237   6.515   6.639   5.737  0.2597 -0.5013  0.8781
  170SAPS   O2219238   6.467   6.710   5.819  0.0691 -0.4444  0.2737
  170SAPS   C2219239   6.480   6.647   5.593 -0.2407 -0.7741 -0.1755
  170SAPS   H2R19240   6.482   6.543   5.552  2.6037 -1.0463  0.5947
  170SAPS   H2S19241   6.375   6.684   5.590 -0.1692 -0.6299 -0.9652
  170SAPS    C319242   6.818   6.523   5.865 -0.8086 -0.0120 -0.2980
  170SAPS    HX19243   6.861   6.545   5.965 -0.2749  2.8474 -1.0882
  170SAPS    HY19244   6.865   6.592   5.792 -1.7926 -0.0069 -0.9456
  170SAPS   O3119245   6.846   6.387   5.825  0.1681  0.9663  0.0563
  170SAPS   C3119246   6.971   6.349   5.796 -0.0422  0.3294 -0.8188
  170SAPS   O3219247   7.064   6.427   5.806 -0.3764  0.1449 -0.3749
  170SAPS   C3219248   6.985   6.222   5.726  0.8848  0.3477 -0.3128
  170SAPS   H2X19249   6.958   6.140   5.796 -0.9056  3.9943  3.4857
  170SAPS   H2Y19250   7.088   6.211   5.685  0.5001 -0.0030 -1.1928
  170SAPS   C2319251   6.572   6.743   5.521 -0.4413 -0.6339  0.0713
  170SAPS   H3R19252   6.676   6.710   5.501 -0.1293  1.0195 -1.1362
  170SAPS   H3S19253   6.587   6.829   5.590 -1.4192  0.3986 -0.9795
  170SAPS   C2419254   6.509   6.787   5.387  0.1812  0.2704 -0.5654
  170SAPS   H4R19255   6.565   6.880   5.363 -0.8941  0.8774 -0.7654
  170SAPS   H4S19256   6.410   6.835   5.405  0.6589  1.1713 -0.2957
  170SAPS   C2519257   6.495   6.686   5.277 -0.4512  0.0154 -0.3990
  170SAPS   H5R19258   6.405   6.623   5.280 -0.6010  0.2544  0.1857
  170SAPS   C2619259   6.584   6.663   5.180  0.0215 -0.0347  0.3988
  170SAPS   H6R19260   6.547   6.603   5.096  2.0687 -0.0881 -0.5046
  170SAPS   C2719261   6.722   6.723   5.153 -0.3918  0.2758 -0.2439
  170SAPS   H7R19262   6.750   6.808   5.220  0.5816  0.4231 -0.8200
  170SAPS   H7S19263   6.731   6.771   5.053  0.5518  0.2629 -0.1778
  170SAPS   C2819264   6.829   6.618   5.161  0.0353  0.0572 -0.5373
  170SAPS   H8R19265   6.804   6.553   5.247 -0.2193  0.0272 -0.6350
  170SAPS   C2919266   6.935   6.597   5.081  0.6259 -0.0399 -0.5801
  170SAPS   H9R19267   7.000   6.512   5.103  0.2722  0.1746  1.3536
  170SAPS  C21019268   6.974   6.675   4.953  0.2999  0.1951  0.1323
  170SAPS  H10R19269   7.048   6.752   4.981  1.5714 -0.6124 -0.9653
  170SAPS  H10S19270   6.878   6.715   4.912  0.9516  1.3245 -0.3223
  170SAPS  C21119271   7.021   6.573   4.845  0.1542 -0.2835  0.2558
  170SAPS  H11R19272   6.973   6.475   4.857 -1.3747  0.1156 -2.3354
  170SAPS  C21219273   7.120   6.600   4.760 -0.1618  0.2009  0.8715
  170SAPS  H12R19274   7.141   6.521   4.686  1.3548 -1.5038  3.0416
  170SAPS  C21319275   7.204   6.732   4.745  0.6243 -0.5450 -0.3570
  170SAPS  H13R19276   7.172   6.813   4.815 -1.9164  0.2777 -2.3877
  170SAPS  H13S19277   7.184   6.785   4.650  1.4845  0.2874 -0.0797
  170SAPS  C21419278   7.354   6.692   4.767  0.5768 -0.6520  0.3050
  170SAPS  H14R19279   7.391   6.713   4.869 -0.7875  0.2141  0.6487
  170SAPS  C21519280   7.436   6.626   4.678  0.0989  0.0780 -0.0541
  170SAPS  H15R19281   7.536   6.592   4.706 -0.1228 -1.6915 -1.2974
  170SAPS  C21619282   7.402   6.569   4.542  0.2218 -0.4369 -0.0555
  170SAPS  H16R19283   7.335   6.638   4.487  0.8075  0.2451  0.0707
  170SAPS  H16S19284   7.361   6.467   4.555  0.4784 -0.5324  0.0163
  170SAPS  C21719285   7.533   6.554   4.447 -0.0801  0.5714  0.4741
  170SAPS  H17R19286   7.603   6.485   4.499  0.7200  0.1351 -1.1472
  170SAPS  H17S19287   7.586   6.649   4.422 -0.6080  0.1668 -2.3331
  170SAPS  C21819288   7.504   6.492   4.307 -0.4329  0.3264  0.0840
  170SAPS  H18R19289   7.596   6.473   4.247  0.0053 -0.2915  0.9439
  170SAPS  H18S19290   7.450   6.572   4.253  0.6039  2.0543  1.5309
  170SAPS  C21919291   7.422   6.366   4.317 -0.4140  0.0413 -0.1124
  170SAPS  H19R19292   7.327   6.392   4.369  0.5816  0.5152  1.4989
  170SAPS  H19S19293   7.464   6.294   4.391  0.7608 -1.4219 -2.1300
  170SAPS  C22019294   7.384   6.302   4.188  0.4586 -0.0398  0.2275
  170SAPS  H20R19295   7.315   6.215   4.189  1.2134 -0.6414  1.4755
  170SAPS  H20S19296   7.476   6.271   4.134  1.0766  1.1759  0.5558
  170SAPS  H20T19297   7.324   6.379   4.135 -0.5247 -0.5244  0.6350
  170SAPS   C3319298   6.882   6.211   5.608  0.1609 -0.4037 -0.2180
  170SAPS   H3X19299   6.780   6.235   5.645  0.3399  1.8065 -1.0491
  170SAPS   H3Y19300   6.896   6.108   5.570 -0.7205 -0.9809  1.0163
  170SAPS   C3419301   6.913   6.309   5.489  0.0123 -0.7424 -0.1992
  170SAPS   H4X19302   7.018   6.308   5.452  1.0271  0.7919  2.4952
  170SAPS   H4Y19303   6.890   6.414   5.518  1.7726 -0.3117 -0.3257
  170SAPS   C3519304   6.820   6.275   5.365  0.6631  0.2129 -0.4812
  170SAPS   H5X19305   6.836   6.177   5.315 -1.2497 -0.4980  0.2092
  170SAPS   H5Y19306   6.840   6.350   5.287  1.4029 -0.5902 -1.0639
  170SAPS   C3619307   6.674   6.296   5.396  0.1114  0.2208  0.1289
  170SAPS   H6X19308   6.652   6.400   5.430 -0.1125 -1.3170  4.9108
  170SAPS   H6Y19309   6.633   6.221   5.466 -0.1597 -0.3653 -0.6468
  170SAPS   C3719310   6.581   6.281   5.273  0.2783 -0.2236  0.3808
  170SAPS   H7X19311   6.614   6.191   5.216  0.6199 -0.0447  0.2983
  170SAPS   H7Y19312   6.583   6.373   5.211  0.7520  0.0996  0.8819
  170SAPS   C3819313   6.438   6.255   5.310  0.6884 -0.0802 -0.3479
  170SAPS   H8X19314   6.404   6.327   5.388 -0.6351 -1.6464  0.5279
  170SAPS   H8Y19315   6.424   6.161   5.366 -0.9660 -0.7216 -1.8029
  170SAPS   C3919316   6.340   6.250   5.193  0.0887 -0.4526 -0.3371
  170SAPS   H9X19317   6.322   6.150   5.147 -0.2636 -0.8484  0.6479
  170SAPS   H9Y19318   6.384   6.318   5.116 -0.7736 -0.5806 -0.9514
  170SAPS  C31019319   6.206   6.314   5.223 -0.2099  0.3710  0.6374
  170SAPS  H10X19320   6.227   6.422   5.237  1.6137  0.1576 -0.4449
  170SAPS  H10Y19321   6.152   6.275   5.312 -0.5956 -0.5765 -0.0009
  170SAPS  C31119322   6.093   6.305   5.110  0.0926 -0.1317  0.5639
  170SAPS  H11X19323   5.999   6.320   5.169 -0.6731  1.0771 -0.9137
  170SAPS  H11Y19324   6.102   6.202   5.070  1.6472 -0.3516  1.4453
  170SAPS  C31219325   6.090   6.419   5.001  0.4516  0.3806 -0.7259
  170SAPS  H12X19326   6.082   6.514   5.058  1.2082  1.0244 -1.6828
  170SAPS  H12Y19327   5.994   6.412   4.946  0.9511  2.0685 -1.8744
  170SAPS  C31319328   6.199   6.424   4.898  0.5325 -0.9531 -0.3864
  170SAPS  H13X19329   6.210   6.319   4.863 -0.8214 -0.6219 -1.8945
  170SAPS  H13Y19330   6.289   6.457   4.954 -2.0230  1.7111  2.3115
  170SAPS  C31419331   6.165   6.519   4.785  0.1171  0.8975 -0.0592
  170SAPS  H14X19332   6.073   6.479   4.736  1.0413 -0.9995 -0.2620
  170SAPS  H14Y19333   6.245   6.521   4.709  1.0654 -0.8503  0.8771
  170SAPS  C31519334   6.162   6.667   4.824 -0.6490  0.1295  0.0842
  170SAPS  H15X19335   6.076   6.680   4.894 -2.2716 -0.0124 -1.8426
  170SAPS  H15Y19336   6.144   6.733   4.737 -0.2441 -0.5601 -0.5202
  170SAPS  C31619337   6.281   6.712   4.916 -0.3324 -0.1481  0.3100
  170SAPS  H16X19338   6.376   6.676   4.873  1.1804  2.6755  1.1639
  170SAPS  H16Y19339   6.278   6.665   5.016 -2.1098 -5.9115 -2.2542
  170SAPS  C31719340   6.302   6.861   4.941 -0.5534  0.0073  0.4271
  170SAPS  H17X19341   6.354   6.868   5.039  0.3500 -2.1353  0.1287
  170SAPS  H17Y19342   6.203   6.907   4.959 -0.2433  0.3729  1.1923
  170SAPS  C31819343   6.387   6.934   4.838 -0.4009  0.1874 -0.2711
  170SAPS  H18X19344   6.397   7.042   4.863  2.2394 -0.1460  0.1766
  170SAPS  H18Y19345   6.352   6.923   4.733  1.1158 -0.5160 -0.7187
  170SAPS  H18Z19346   6.491   6.897   4.839 -1.3200 -2.6675  3.3782
  171SAPS     N19347   0.502   5.870   6.393 -0.2418  0.1843  0.2076
  171SAPS   HN119348   0.587   5.889   6.336 -0.3028  0.3646  0.1754
  171SAPS   HN219349   0.509   5.933   6.476  0.8787  0.8249 -0.3631
  171SAPS   HN319350   0.504   5.769   6.417  0.4882  0.3758  0.9613
  171SAPS   C1219351   0.384   5.903   6.308  0.5878 -0.6295  0.1175
  171SAPS  H12A19352   0.308   5.831   6.332  0.4994 -0.6767 -0.3001
  171SAPS   C1319353   0.337   6.047   6.316  0.0168 -0.0785  0.1228
  171SAPS  O13A19354   0.404   6.126   6.392  0.0376  0.7199 -0.2584
  171SAPS  O13B19355   0.228   6.075   6.267  0.2018 -0.4066 -0.2224
  171SAPS   C1119356   0.434   5.875   6.161  0.2245 -0.5768 -0.0497
  171SAPS  H11A19357   0.513   5.943   6.124 -0.0833  0.2675  0.8443
  171SAPS  H11B19358   0.342   5.872   6.099 -0.5075  0.8977  0.9519
  171SAPS     P19359   0.579   5.669   6.060 -0.5313 -0.2546 -0.4101
  171SAPS   O1319360   0.711   5.728   6.093  0.2354  0.3084 -0.4821
  171SAPS   O1419361   0.575   5.523   6.049  0.0420  0.8517  0.0988
  171SAPS   O1219362   0.471   5.737   6.163  0.9989 -0.0007  0.1528
  171SAPS   O1119363   0.519   5.739   5.924 -0.2990  0.0877  0.6256
  171SAPS    C119364   0.625   5.762   5.823  0.0646 -0.1663  0.1432
  171SAPS    HA19365   0.704   5.684   5.821 -0.2944 -0.5258 -0.2570
  171SAPS    HB19366   0.580   5.751   5.722 -0.7065 -0.8676  0.5539
  171SAPS    C219367   0.687   5.908   5.834  0.3548  0.1478  0.1786
  171SAPS    HS19368   0.717   5.920   5.941 -1.7947 -2.4347  1.1132
  171SAPS   O2119369   0.583   6.003   5.810  0.0958 -0.4858  0.3467
  171SAPS   C2119370   0.611   6.126   5.861  0.0584  0.4861  0.6543
  171SAPS   O2219371   0.712   6.152   5.925 -0.4711  0.5824 -0.2398
  171SAPS   C2219372   0.505   6.221   5.813 -0.3839 -0.2518  0.5794
  171SAPS   H2R19373   0.472   6.178   5.716  0.8685 -0.4110  0.2112
  171SAPS   H2S19374   0.417   6.232   5.880 -1.6579  2.6908 -1.4702
  171SAPS    C319375   0.803   5.930   5.731 -0.2065  0.0104  0.2640
  171SAPS    HX19376   0.889   5.869   5.766 -0.9730 -0.9292  0.5172
  171SAPS    HY19377   0.846   6.033   5.737 -0.2309 -0.1065  3.1513
  171SAPS   O3119378   0.772   5.902   5.590  0.2411 -0.0908  0.2187
  171SAPS   C3119379   0.735   6.016   5.517  0.2619  0.4020  0.1731
  171SAPS   O3219380   0.731   6.128   5.567 -0.3764  0.5232  0.2483
  171SAPS   C3219381   0.692   5.980   5.369  0.0758 -0.2135 -0.0570
  171SAPS   H2X19382   0.768   5.907   5.332  0.7525  0.2737  0.3636
  171SAPS   H2Y19383   0.691   6.078   5.317  1.0126  1.0565  2.2463
  171SAPS   C2319384   0.549   6.367   5.777  0.3289  0.3489 -0.3109
  171SAPS   H3R19385   0.623   6.350   5.696 -1.3732  3.8490 -2.7759
  171SAPS   H3S19386   0.609   6.412   5.859  0.4657 -2.4163  1.1611
  171SAPS   C2419387   0.431   6.455   5.742  0.2020  0.1547  0.4230
  171SAPS   H4R19388   0.384   6.497   5.834 -0.2814 -0.9234  0.6781
  171SAPS   H4S19389   0.351   6.396   5.692  0.4053  1.5320 -1.5647
  171SAPS   C2519390   0.479   6.572   5.660 -1.6736 -0.0927  0.0071
  171SAPS   H5R19391   0.506   6.657   5.725 -2.3515 -0.2308  0.4786
  171SAPS   C2619392   0.513   6.576   5.528 -0.0080 -0.2862  0.1630
  171SAPS   H6R19393   0.557   6.668   5.487 -0.7554 -0.3054 -0.7010
  171SAPS   C2719394   0.513   6.456   5.432 -0.6917 -0.9987  0.4260
  171SAPS   H7R19395   0.415   6.403   5.439  0.3984 -2.9501  1.1105
  171SAPS   H7S19396   0.600   6.388   5.439 -0.6034 -1.3299 -3.1770
  171SAPS   C2819397   0.525   6.519   5.296 -0.6991 -1.2140 -0.3454
  171SAPS   H8R19398   0.608   6.590   5.286  0.0395 -1.6572  2.2101
  171SAPS   C2919399   0.434   6.514   5.197 -0.6557  0.5725  0.0710
  171SAPS   H9R19400   0.462   6.568   5.105 -0.5065 -1.9999 -1.4440
  171SAPS  C21019401   0.299   6.442   5.197  0.7728  0.0932  0.3292
  171SAPS  H10R19402   0.234   6.502   5.129 -0.0323 -1.2279 -0.0979
  171SAPS  H10S19403   0.256   6.452   5.299 -0.1989  1.1872 -0.1806
  171SAPS  C21119404   0.302   6.293   5.175  0.1766  0.5947  0.2042
  171SAPS  H11R19405   0.326   6.222   5.255  0.2978  0.3158 -0.0805
  171SAPS  C21219406   0.279   6.236   5.053  0.1848 -0.4123 -0.2162
  171SAPS  H12R19407   0.270   6.127   5.041  1.8371 -0.4005 -1.8113
  171SAPS  C21319408   0.253   6.315   4.929  0.3630  0.8766  0.1583
  171SAPS  H13R19409   0.284   6.420   4.943 -1.8409  1.7564 -1.3202
  171SAPS  H13S19410   0.143   6.327   4.921  0.1754  0.0111  1.2754
  171SAPS  C21419411   0.315   6.275   4.796 -0.0913  1.2095  0.4589
  171SAPS  H14R19412   0.425   6.281   4.788 -0.0381 -0.2672 -0.1401
  171SAPS  C21519413   0.247   6.224   4.691 -0.3619  0.0247  0.6889
  171SAPS  H15R19414   0.312   6.197   4.606  0.7668  4.2299  0.1192
  171SAPS  C21619415   0.102   6.188   4.671 -0.0018  0.3887  0.2024
  171SAPS  H16R19416   0.082   6.168   4.563  1.7026  1.3756 -0.3190
  171SAPS  H16S19417   0.046   6.281   4.694  0.2728  0.8710 -1.0406
  171SAPS  C21719418   0.048   6.071   4.755 -0.4827 -0.3304 -0.5193
  171SAPS  H17R19419  -0.057   6.100   4.778 -1.0570 -1.1124 -2.1161
  171SAPS  H17S19420   0.104   6.072   4.851  0.3952 -0.2510 -1.0267
  171SAPS  C21819421   0.035   5.928   4.693 -0.1551  0.0060 -0.1430
  171SAPS  H18R19422  -0.003   5.943   4.590  2.9086  0.3195 -1.2512
  171SAPS  H18S19423  -0.041   5.855   4.730  0.4423 -0.3237  0.4275
  171SAPS  C21919424   0.170   5.853   4.675  0.5800  0.4646  0.3978
  171SAPS  H19R19425   0.213   5.825   4.773 -2.2462  0.3624  1.6469
  171SAPS  H19S19426   0.253   5.912   4.631  0.0143 -0.4941 -2.0440
  171SAPS  C22019427   0.155   5.709   4.609 -0.3476  0.3863  0.2029
  171SAPS  H20R19428   0.092   5.731   4.520  1.2522  0.3899 -0.9366
  171SAPS  H20S19429   0.089   5.647   4.673 -0.0961 -0.2328 -0.1338
  171SAPS  H20T19430   0.254   5.662   4.593  1.8707  4.2210  1.8464
  171SAPS   C3319431   0.554   5.918   5.376 -0.4550  0.1677 -0.3555
  171SAPS   H3X19432   0.562   5.823   5.433  2.1462  0.8497  0.4776
  171SAPS   H3Y19433   0.529   5.893   5.270 -0.2825 -0.4963 -0.2415
  171SAPS   C3419434   0.442   6.006   5.421  0.9501 -0.1767 -0.2088
  171SAPS   H4X19435   0.442   6.099   5.361  0.3449 -1.1203 -1.7038
  171SAPS   H4Y19436   0.470   6.025   5.527  1.2357  0.9910 -0.4994
  171SAPS   C3519437   0.301   5.951   5.420 -0.2387  0.0510 -0.2972
  171SAPS   H5X19438   0.297   5.845   5.456  1.3041  0.1997  0.3472
  171SAPS   H5Y19439   0.257   5.956   5.318  0.7384  1.2108 -0.6636
  171SAPS   C3619440   0.210   6.028   5.521 -0.2831  0.4754  0.2105
  171SAPS   H6X19441   0.259   6.031   5.621  1.3999  0.8801 -0.6146
  171SAPS   H6Y19442   0.116   5.971   5.541  0.1259 -0.6118 -0.9312
  171SAPS   C3719443   0.177   6.170   5.478  0.2246 -0.1677 -0.8395
  171SAPS   H7X19444   0.132   6.184   5.377 -0.7986 -1.5655 -0.6022
  171SAPS   H7Y19445   0.267   6.234   5.474  0.3192 -0.1863  0.7596
  171SAPS   C3819446   0.094   6.241   5.589 -0.3760 -0.2191  0.1980
  171SAPS   H8X19447   0.151   6.238   5.685 -0.0449 -1.1845 -0.0279
  171SAPS   H8Y19448  -0.002   6.188   5.602 -1.8803  2.1150 -1.1239
  171SAPS   C3919449   0.071   6.393   5.548 -1.3465  0.0132 -0.0387
  171SAPS   H9X19450   0.168   6.445   5.537 -0.4608 -1.8767 -1.3866
  171SAPS   H9Y19451   0.010   6.435   5.631 -0.5382 -1.0652  1.1220
  171SAPS  C31019452  -0.014   6.412   5.421 -0.0808 -0.0417  0.6809
  171SAPS  H10X19453  -0.117   6.372   5.434 -0.9425  1.1902 -1.9983
  171SAPS  H10Y19454   0.041   6.355   5.344 -0.5486  0.4942 -0.0518
  171SAPS  C31119455  -0.025   6.559   5.375  0.0145 -0.1053  0.4153
  171SAPS  H11X19456   0.076   6.605   5.377 -0.2443  0.4527  1.3584
  171SAPS  H11Y19457  -0.090   6.616   5.445 -1.0706  1.5216 -1.8997
  171SAPS  C31219458  -0.082   6.566   5.234 -0.4087  0.2388 -0.4169
  171SAPS  H12X19459  -0.178   6.510   5.236  0.3239 -1.0404 -0.2651
  171SAPS  H12Y19460  -0.010   6.502   5.178 -2.5145 -1.2808 -1.4977
  171SAPS  C31319461  -0.088   6.704   5.158  0.1707  0.4207  0.0041
  171SAPS  H13X19462  -0.177   6.761   5.193  0.6545  1.2767 -0.1536
  171SAPS  H13Y19463  -0.103   6.683   5.050  1.2907 -0.0556 -0.0734
  171SAPS  C31419464   0.033   6.808   5.164  0.0818 -0.2133 -0.3515
  171SAPS  H14X19465   0.131   6.756   5.166  0.9638  1.4393  2.9411
  171SAPS  H14Y19466   0.020   6.859   5.262 -2.6887 -0.3562 -0.6171
  171SAPS  C31519467   0.032   6.918   5.050 -0.1714 -0.2039 -0.6801
  171SAPS  H15X19468  -0.070   6.915   5.008  0.3511 -0.8521 -1.9246
  171SAPS  H15Y19469   0.097   6.875   4.970  0.5084 -0.4274 -0.0152
  171SAPS  C31619470   0.069   7.056   5.105  0.5439  0.6557  0.7793
  171SAPS  H16X19471   0.155   7.052   5.175  3.0963  3.8814 -1.9415
  171SAPS  H16Y19472  -0.015   7.085   5.171 -0.2633 -0.5363  0.2815
  171SAPS  C31719473   0.095   7.153   4.997 -0.7048  0.1437 -0.0223
  171SAPS  H17X19474  -0.003   7.162   4.945 -1.5890  0.6846  1.7218
  171SAPS  H17Y19475   0.171   7.120   4.922 -1.6269 -0.8833 -0.5192
  171SAPS  C31819476   0.128   7.293   5.051 -0.6696 -0.0372  0.2416
  171SAPS  H18X19477   0.043   7.327   5.114 -0.1572 -0.2944  1.0777
  171SAPS  H18Y19478   0.142   7.366   4.968 -0.0806 -0.7810 -0.3170
  171SAPS  H18Z19479   0.223   7.283   5.108 -0.7552 -0.9125  0.2323
  172SAPS     N19480   7.073   6.495   6.372 -0.0571 -0.2261  0.1385
  172SAPS   HN119481   7.122   6.441   6.446 -2.3587 -2.1627  0.3254
  172SAPS   HN219482   7.005   6.556   6.420 -1.4674 -1.8152  0.2223
  172SAPS   HN319483   7.018   6.425   6.318 -0.5947 -0.0461  0.4505
  172SAPS   C1219484   7.163   6.575   6.285 -0.5761  0.4198 -0.1943
  172SAPS  H12A19485   7.216   6.643   6.350  0.3472  0.1691 -0.6658
  172SAPS   C1319486   7.273   6.493   6.217  0.3021 -0.0886  0.1404
  172SAPS  O13A19487   7.285   6.366   6.230  0.1006  0.3379 -0.2304
  172SAPS  O13B19488   7.349   6.563   6.141 -0.0161  0.0180 -0.0197
  172SAPS   C1119489   7.089   6.654   6.171  0.5111 -0.6153 -0.0469
  172SAPS  H11A19490   7.034   6.581   6.107  0.1476 -0.3253 -0.0660
  172SAPS  H11B19491   7.161   6.696   6.097  1.4324 -1.1567  0.5462
  172SAPS     P19492   6.909   6.839   6.130 -0.2297 -0.1147  0.2318
  172SAPS   O1319493   6.775   6.768   6.121  0.6499 -0.1096  0.0335
  172SAPS   O1419494   6.913   6.983   6.163  0.6092  0.1703 -0.2660
  172SAPS   O1219495   7.003   6.758   6.225 -0.6845  0.5216 -0.5712
  172SAPS   O1119496   6.983   6.825   6.000  0.1273  0.1415 -0.2506
  172SAPS    C119497   7.083   6.912   5.956  0.1628  0.1015  0.0981
  172SAPS    HA19498   7.041   7.015   5.946  0.6594  0.3204  0.1984
  172SAPS    HB19499   7.165   6.916   6.031 -1.1605  0.8489  1.5261
  172SAPS    C219500   7.147   6.885   5.813  0.5119 -0.2131 -0.8385
  172SAPS    HS19501   7.214   6.972   5.795  0.5662 -0.2107 -0.6195
  172SAPS   O2119502   7.046   6.860   5.710  0.1758 -0.1848 -0.1117
  172SAPS   C2119503   7.013   6.970   5.644 -0.3066 -0.7407 -0.8687
  172SAPS   O2219504   7.070   7.080   5.649 -0.2795 -0.4077  0.5448
  172SAPS   C2219505   6.898   6.926   5.550  0.0547  0.2150 -0.2392
  172SAPS   H2R19506   6.926   6.823   5.518 -3.7866 -1.5807  1.9011
  172SAPS   H2S19507   6.801   6.916   5.603 -0.5441 -1.1242 -1.5336
  172SAPS    C319508   7.232   6.760   5.811  0.1545 -0.3821  0.4711
  172SAPS    HX19509   7.154   6.681   5.812  0.5308 -0.7532  0.9038
  172SAPS    HY19510   7.278   6.742   5.911 -1.6983 -1.4351  1.1515
  172SAPS   O3119511   7.313   6.741   5.697 -0.0903 -0.2759 -0.2263
  172SAPS   C3119512   7.425   6.815   5.703 -0.1708 -0.6935  0.4738
  172SAPS   O3219513   7.462   6.882   5.795  0.4769 -0.7008  0.5841
  172SAPS   C3219514   7.501   6.799   5.564 -0.2179  0.7513 -0.4565
  172SAPS   H2X19515   7.418   6.810   5.490 -0.5231 -0.0056 -0.2291
  172SAPS   H2Y19516   7.547   6.699   5.569 -0.5012  0.6429  0.0519
  172SAPS   C2319517   6.900   7.024   5.431  0.3109 -0.0590  0.6131
  172SAPS   H3R19518   6.884   7.126   5.472 -0.8483  0.4073 -0.9344
  172SAPS   H3S19519   6.815   7.001   5.363  1.4262 -4.2336  0.5105
  172SAPS   C2419520   7.029   7.019   5.348  0.5054  0.6663  0.5565
  172SAPS   H4R19521   7.040   6.920   5.298 -0.7756  1.1287 -0.6752
  172SAPS   H4S19522   7.118   7.039   5.410  1.3331 -1.2068  0.0118
  172SAPS   C2519523   7.015   7.115   5.233 -0.2111 -0.5729  0.6215
  172SAPS   H5R19524   6.956   7.087   5.145 -2.2859 -2.0775  2.4337
  172SAPS   C2619525   7.084   7.236   5.225 -0.3401  0.8971 -0.0226
  172SAPS   H6R19526   7.071   7.298   5.135  1.2848  1.0852 -0.1417
  172SAPS   C2719527   7.186   7.297   5.327  0.3736  0.5820  0.0506
  172SAPS   H7R19528   7.283   7.311   5.273  0.3460 -0.2726 -0.2266
  172SAPS   H7S19529   7.213   7.237   5.416  1.7399  2.9962  1.3170
  172SAPS   C2819530   7.111   7.421   5.377 -0.3947  0.1052  0.3117
  172SAPS   H8R19531   7.017   7.394   5.426  0.3829 -0.7402  1.3736
  172SAPS   C2919532   7.152   7.552   5.373  0.3033  0.3709 -0.2403
  172SAPS   H9R19533   7.095   7.627   5.430 -1.9030 -1.1194 -0.4117
  172SAPS  C21019534   7.281   7.620   5.316 -0.5667 -0.6926  0.6335
  172SAPS  H10R19535   7.352   7.553   5.263  0.6883  0.1414  1.2265
  172SAPS  H10S19536   7.346   7.655   5.399  2.3632 -0.7464 -1.5580
  172SAPS  C21119537   7.238   7.746   5.242  0.7392  0.3133  0.3352
  172SAPS  H11R19538   7.187   7.826   5.298  0.8245  1.8201 -1.6728
  172SAPS  C21219539   7.268   7.766   5.112  0.2054 -0.2337  0.6045
  172SAPS  H12R19540   7.237   7.860   5.064  1.4743 -0.2471 -0.2664
  172SAPS  C21319541   7.344   7.674   5.017  0.5140  0.2350  1.1475
  172SAPS  H13R19542   7.431   7.632   5.073  1.0752  1.3530  1.1249
  172SAPS  H13S19543   7.404   7.733   4.944 -1.2914 -1.4261 -1.7947
  172SAPS  C21419544   7.258   7.563   4.949 -0.1480  0.7662 -0.6682
  172SAPS  H14R19545   7.194   7.503   5.015 -0.0715 -0.3824 -1.6039
  172SAPS  C21519546   7.265   7.522   4.823  0.6329 -0.3011  0.2901
  172SAPS  H15R19547   7.181   7.466   4.780  0.2606  1.6592 -1.6682
  172SAPS  C21619548   7.362   7.571   4.719  0.3173  0.2635 -0.6384
  172SAPS  H16R19549   7.447   7.504   4.696  0.9862  1.3376 -1.3294
  172SAPS  H16S19550   7.385   7.677   4.740 -0.3796  0.3215 -0.1551
  172SAPS  C21719551   7.285   7.577   4.588 -0.4001 -0.3049  0.3391
  172SAPS  H17R19552   7.344   7.635   4.514  2.3923 -1.0779  1.8817
  172SAPS  H17S19553   7.187   7.627   4.605  0.5683  2.7075 -2.3628
  172SAPS  C21819554   7.246   7.443   4.522  0.1156  0.7363  0.0585
  172SAPS  H18R19555   7.198   7.472   4.427 -0.6216  1.2846  0.5970
  172SAPS  H18S19556   7.165   7.404   4.587  0.4377  0.7457  0.4733
  172SAPS  C21919557   7.359   7.346   4.489  0.6856 -0.5700 -0.1317
  172SAPS  H19R19558   7.327   7.245   4.457  2.3423 -1.1154 -0.1594
  172SAPS  H19S19559   7.422   7.320   4.577  0.3510  1.0038  0.6005
  172SAPS  C22019560   7.454   7.401   4.378 -0.2724 -0.0311  0.0143
  172SAPS  H20R19561   7.521   7.482   4.416 -0.2781 -0.7011  1.4749
  172SAPS  H20S19562   7.403   7.453   4.294 -0.4065  0.9911  0.7205
  172SAPS  H20T19563   7.508   7.312   4.339 -0.5066  0.7526 -2.1382
  172SAPS   C3319564   7.613   6.901   5.527  0.1373 -0.0103  0.3942
  172SAPS   H3X19565   7.705   6.890   5.587  0.7415  0.6403 -0.4102
  172SAPS   H3Y19566   7.566   6.999   5.551  1.9203  0.7384  0.8752
  172SAPS   C3419567   7.653   6.872   5.383  0.1883  0.5198  0.0289
  172SAPS   H4X19568   7.568   6.876   5.311  0.0553 -1.5484  0.0436
  172SAPS   H4Y19569   7.681   6.765   5.382  1.1246  0.7554 -2.4971
  172SAPS   C3519570   7.766   6.966   5.335 -0.1055 -0.6007  0.1827
  172SAPS   H5X19571   7.846   6.963   5.412 -1.0214  0.1515  1.1682
  172SAPS   H5Y19572   7.730   7.070   5.324 -1.4086 -1.1164 -0.5565
  172SAPS   C3619573   7.829   6.915   5.204 -0.4707  0.0692 -0.8061
  172SAPS   H6X19574   7.863   6.810   5.218 -0.0002  0.2197 -0.8139
  172SAPS   H6Y19575   7.916   6.977   5.173  2.3473 -3.1315  0.4042
  172SAPS   C3719576   7.737   6.904   5.074  1.0495  0.2349  0.0817
  172SAPS   H7X19577   7.681   6.999   5.061  1.6361  0.1243 -3.7120
  172SAPS   H7Y19578   7.671   6.816   5.093  2.3966 -0.7195  0.3719
  172SAPS   C3819579   7.817   6.857   4.955  0.0273 -0.3439 -0.2013
  172SAPS   H8X19580   7.855   6.752   4.958 -0.1547 -0.3418  3.0607
  172SAPS   H8Y19581   7.898   6.932   4.949  0.1278 -0.4454 -0.1062
  172SAPS   C3919582   7.737   6.864   4.820  0.7071  0.0128  0.4340
  172SAPS   H9X19583   7.666   6.947   4.838  0.7322  0.2152 -0.3835
  172SAPS   H9Y19584   7.692   6.765   4.796  0.1888  0.1345  0.9103
  172SAPS  C31019585   7.821   6.907   4.698  0.3768 -0.0833 -0.1492
  172SAPS  H10X19586   7.893   6.822   4.699 -0.9216 -1.1945  0.9274
  172SAPS  H10Y19587   7.871   7.004   4.719 -1.2246  0.9358 -0.9315
  172SAPS  C31119588   7.745   6.915   4.553  1.3614 -0.8070 -0.7651
  172SAPS  H11X19589   7.762   6.820   4.499 -0.9420 -2.1670  0.8594
  172SAPS  H11Y19590   7.781   7.006   4.498 -0.6907 -0.6803 -1.9609
  172SAPS  C31219591   7.598   6.954   4.563  0.9799 -0.3565  0.2409
  172SAPS  H12X19592   7.592   7.048   4.622  1.0321 -0.6278  0.6795
  172SAPS  H12Y19593   7.548   6.884   4.634 -1.4838  0.9581 -0.1525
  172SAPS  C31319594   7.529   6.972   4.431  0.6860 -0.2821 -0.7180
  172SAPS  H13X19595   7.563   6.889   4.364 -2.8527 -1.2070 -1.4873
  172SAPS  H13Y19596   7.566   7.068   4.389  0.6148  0.1442  0.1998
  172SAPS  C31419597   7.378   6.952   4.448  0.1224 -0.0788 -0.0982
  172SAPS  H14X19598   7.350   7.030   4.522  2.0083 -1.0044  1.6273
  172SAPS  H14Y19599   7.369   6.853   4.497 -1.3805 -1.0667 -2.2792
  172SAPS  C31519600   7.295   6.938   4.326  0.0280 -0.2305  1.0994
  172SAPS  H15X19601   7.190   6.967   4.348 -0.8041 -2.0231 -0.4121
  172SAPS  H15Y19602   7.295   6.831   4.298  1.2080  0.5675 -2.1388
  172SAPS  C31619603   7.344   7.020   4.203 -0.9693 -0.5005  0.1937
  172SAPS  H16X19604   7.376   7.116   4.248 -1.2360 -1.2528  2.0411
  172SAPS  H16Y19605   7.435   6.968   4.165 -1.1778 -0.7018 -0.0323
  172SAPS  C31719606   7.240   7.020   4.098  0.6680 -0.1318  0.4203
  172SAPS  H17X19607   7.135   7.021   4.134  0.6988  0.1343  0.5076
  172SAPS  H17Y19608   7.249   6.916   4.059 -0.5808 -0.8437  2.0125
  172SAPS  C31819609   7.267   7.125   3.988  0.6187  0.1724  0.4471
  172SAPS  H18X19610   7.233   7.093   3.887 -0.2859 -0.2167  0.8700
  172SAPS  H18Y19611   7.376   7.142   4.002  0.5496 -0.8827  2.5320
  172SAPS  H18Z19612   7.216   7.221   4.011  0.3615 -0.7419  4.0249
  173SAPS     N19613   4.574   3.036   2.264 -0.2766 -0.0394 -0.5803
  173SAPS   HN119614   4.628   3.074   2.344 -0.7209  0.2073 -0.3956
  173SAPS   HN219615   4.504   3.110   2.242  0.0356  0.1864 -0.8101
  173SAPS   HN319616   4.530   2.946   2.292  1.5507  0.1811  3.2815
  173SAPS   C1219617   4.666   2.992   2.158 -0.7925 -0.0361  0.3111
  173SAPS  H12A19618   4.738   2.928   2.206 -1.6895 -0.0856  1.6182
  173SAPS   C1319619   4.625   2.913   2.034  0.1356  0.8682  0.9024
  173SAPS  O13A19620   4.507   2.874   2.017 -0.2683 -0.4310  0.2438
  173SAPS  O13B19621   4.710   2.896   1.942 -0.0475 -0.0333  0.6202
  173SAPS   C1119622   4.724   3.129   2.097 -0.1654  0.4669 -0.2396
  173SAPS  H11A19623   4.651   3.170   2.024  0.6833 -0.4958 -1.6350
  173SAPS  H11B19624   4.814   3.094   2.043 -0.0106 -2.2066  1.6617
  173SAPS     P19625   4.753   3.368   2.189  0.3195  0.2802 -0.0570
  173SAPS   O1319626   4.880   3.407   2.121  0.5489  0.7387  0.2633
  173SAPS   O1419627   4.626   3.399   2.126  0.3294 -0.0568 -0.0723
  173SAPS   O1219628   4.763   3.212   2.203  0.8401  0.7381 -0.1152
  173SAPS   O1119629   4.755   3.416   2.333  0.0308  0.5438 -0.4060
  173SAPS    C119630   4.679   3.386   2.446 -0.2968  0.5490 -0.5200
  173SAPS    HA19631   4.599   3.315   2.415 -0.8896  1.4275 -0.9992
  173SAPS    HB19632   4.734   3.337   2.530 -0.0686 -0.1403 -1.0590
  173SAPS    C219633   4.598   3.504   2.508  0.4404  0.8951  0.1930
  173SAPS    HS19634   4.540   3.548   2.424 -2.0724 -2.4718  0.0232
  173SAPS   O2119635   4.692   3.596   2.562 -0.1587 -0.7752 -0.6882
  173SAPS   C2119636   4.642   3.719   2.589  0.2865  0.6363 -0.4207
  173SAPS   O2219637   4.528   3.758   2.567  0.0841 -0.3843 -0.1721
  173SAPS   C2219638   4.763   3.800   2.645  0.3077 -0.1322 -0.0565
  173SAPS   H2R19639   4.797   3.758   2.742  1.6579  2.5861  0.7093
  173SAPS   H2S19640   4.843   3.775   2.571 -0.9783  0.1017 -1.5375
  173SAPS    C319641   4.491   3.448   2.612  0.2152  0.3914 -0.5526
  173SAPS    HX19642   4.427   3.372   2.562 -0.1052 -0.4026  1.0239
  173SAPS    HY19643   4.423   3.533   2.632 -1.0182 -0.3571 -1.4614
  173SAPS   O3119644   4.564   3.403   2.730  0.0504 -0.0912  0.4619
  173SAPS   C3119645   4.592   3.486   2.829 -0.0836 -0.5096  0.6163
  173SAPS   O3219646   4.544   3.597   2.843  0.3089 -0.2069  0.1014
  173SAPS   C3219647   4.692   3.433   2.933 -0.1535  0.3975  0.0732
  173SAPS   H2X19648   4.634   3.392   3.018 -1.6137  2.2064 -0.0005
  173SAPS   H2Y19649   4.759   3.514   2.968 -2.6859  2.8353 -0.4927
  173SAPS   C2319650   4.737   3.948   2.674  0.1763 -0.3225 -0.0329
  173SAPS   H3R19651   4.798   3.987   2.758  0.6812 -0.7963 -0.1736
  173SAPS   H3S19652   4.630   3.966   2.694 -0.4690  1.4385 -4.4788
  173SAPS   C2419653   4.769   4.044   2.560  0.6307 -0.4485  0.1785
  173SAPS   H4R19654   4.739   4.148   2.585  0.4628 -1.5369  5.1153
  173SAPS   H4S19655   4.710   4.017   2.470  1.3087  2.1271 -1.0805
  173SAPS   C2519656   4.907   4.019   2.512  0.7144 -0.5409  0.1064
  173SAPS   H5R19657   4.907   3.944   2.432 -1.1481 -0.1790 -0.2606
  173SAPS   C2619658   5.012   4.095   2.548  0.1619  0.3567  0.1391
  173SAPS   H6R19659   5.112   4.064   2.516 -0.2577  0.3604 -1.1942
  173SAPS   C2719660   5.001   4.207   2.654 -0.1243 -0.0149  0.0196
  173SAPS   H7R19661   4.898   4.230   2.691 -0.2921  2.7331 -1.9303
  173SAPS   H7S19662   5.016   4.297   2.590  0.8881 -0.5638 -0.5188
  173SAPS   C2819663   5.107   4.225   2.762 -0.0194  0.0780  0.1629
  173SAPS   H8R19664   5.207   4.245   2.722 -0.3815 -1.0581 -1.3279
  173SAPS   C2919665   5.093   4.201   2.896 -0.4319  0.5870 -0.0876
  173SAPS   H9R19666   5.181   4.181   2.959 -1.9791 -2.1654  1.3285
  173SAPS  C21019667   4.958   4.153   2.950  0.0321  0.1383 -0.1277
  173SAPS  H10R19668   4.945   4.048   2.917 -0.5648  0.6012 -1.3816
  173SAPS  H10S19669   4.871   4.211   2.913  0.2899  1.1006  0.7503
  173SAPS  C21119670   4.954   4.165   3.101  0.0033 -0.5876  1.1153
  173SAPS  H11R19671   4.966   4.266   3.144 -1.5795  0.5858 -1.0453
  173SAPS  C21219672   4.926   4.069   3.182 -0.4996  0.3917 -0.3175
  173SAPS  H12R19673   4.953   4.080   3.288  2.2767 -1.0622 -0.8158
  173SAPS  C21319674   4.885   3.923   3.149  0.1703  0.3873  0.4860
  173SAPS  H13R19675   4.907   3.858   3.237 -0.2377 -0.6274 -0.1506
  173SAPS  H13S19676   4.942   3.882   3.063 -0.0106  0.6513  0.2412
  173SAPS  C21419677   4.735   3.913   3.113 -0.5444 -0.2063 -0.2854
  173SAPS  H14R19678   4.713   3.921   3.006  1.8261 -0.6346 -0.8305
  173SAPS  C21519679   4.630   3.872   3.185  0.6690  0.0954 -0.7756
  173SAPS  H15R19680   4.531   3.875   3.138  1.3743  2.2102 -2.2352
  173SAPS  C21619681   4.632   3.826   3.328  0.9650  0.0617 -0.1205
  173SAPS  H16R19682   4.570   3.898   3.387  1.0616 -0.1961  0.3012
  173SAPS  H16S19683   4.731   3.832   3.378 -0.2598 -1.3974  2.6401
  173SAPS  C21719684   4.593   3.676   3.358  0.2312  0.2611 -0.4187
  173SAPS  H17R19685   4.486   3.651   3.344 -0.5093  1.5280  2.5244
  173SAPS  H17S19686   4.616   3.661   3.466 -1.6717  1.5871  0.1980
  173SAPS  C21819687   4.698   3.580   3.293 -0.0404 -0.4440 -0.4946
  173SAPS  H18R19688   4.801   3.618   3.307  0.3675 -1.9050  0.5612
  173SAPS  H18S19689   4.683   3.590   3.183  1.1220  2.9483 -0.3829
  173SAPS  C21919690   4.696   3.430   3.317 -0.7622  0.0639 -0.6739
  173SAPS  H19R19691   4.785   3.387   3.265 -1.6092 -1.6731 -0.7290
  173SAPS  H19S19692   4.614   3.378   3.263 -0.2306 -1.1722 -0.3117
  173SAPS  C22019693   4.709   3.383   3.461  0.1078 -0.0464 -0.1278
  173SAPS  H20R19694   4.794   3.432   3.512 -0.8092  1.6393 -0.2011
  173SAPS  H20S19695   4.718   3.272   3.462 -0.9068 -0.1376 -0.4722
  173SAPS  H20T19696   4.620   3.418   3.519  1.4457  1.0592  1.2826
  173SAPS   C3319697   4.781   3.314   2.892 -0.1480  0.2518 -0.3886
  173SAPS   H3X19698   4.724   3.228   2.852 -1.5017  0.0468  1.8890
  173SAPS   H3Y19699   4.820   3.290   2.993 -5.8872  0.0449  1.9768
  173SAPS   C3419700   4.899   3.359   2.801  0.2698 -1.0590 -0.1570
  173SAPS   H4X19701   4.839   3.392   2.713  0.2108  2.6329  1.1936
  173SAPS   H4Y19702   4.948   3.263   2.773  1.1584 -0.8225  0.5779
  173SAPS   C3519703   4.990   3.469   2.842  0.0111 -0.2402  0.2720
  173SAPS   H5X19704   4.918   3.554   2.846  1.6986  1.3299 -1.6453
  173SAPS   H5Y19705   5.062   3.483   2.759 -2.4320 -0.3962 -1.9434
  173SAPS   C3619706   5.056   3.455   2.977  0.0577 -0.7089  0.4322
  173SAPS   H6X19707   5.163   3.425   2.973  0.8607  2.1341 -0.7124
  173SAPS   H6Y19708   4.996   3.389   3.042 -1.5526 -0.1730 -0.4944
  173SAPS   C3719709   5.051   3.589   3.061  0.5360  0.8098  0.0381
  173SAPS   H7X19710   4.944   3.611   3.086  0.7359  1.1973  0.5609
  173SAPS   H7Y19711   5.091   3.675   3.004  1.7269  0.7495  0.7698
  173SAPS   C3819712   5.120   3.581   3.196 -0.0660 -0.1108  0.7696
  173SAPS   H8X19713   5.096   3.674   3.251 -3.3352 -0.6406  0.3029
  173SAPS   H8Y19714   5.231   3.578   3.186 -0.2461 -2.2150 -1.0184
  173SAPS   C3919715   5.085   3.456   3.278  0.1219  0.3296 -0.2025
  173SAPS   H9X19716   5.139   3.371   3.231 -0.4257  0.4394 -1.0615
  173SAPS   H9Y19717   4.978   3.424   3.274  0.2295 -0.1708  0.8805
  173SAPS  C31019718   5.117   3.458   3.430  1.2530 -0.2108  0.1754
  173SAPS  H10X19719   5.224   3.488   3.439  1.3741 -0.6019  0.0533
  173SAPS  H10Y19720   5.095   3.355   3.463 -0.9303  0.3640  0.5670
  173SAPS  C31119721   5.042   3.566   3.506  0.1242  0.4089 -0.1784
  173SAPS  H11X19722   4.944   3.573   3.455  0.7779  1.3355 -1.3374
  173SAPS  H11Y19723   5.096   3.663   3.496 -2.0051  1.7742  1.2440
  173SAPS  C31219724   5.031   3.534   3.659  0.7288  0.7990 -0.0048
  173SAPS  H12X19725   5.128   3.514   3.708 -0.9736 -3.3643  1.9178
  173SAPS  H12Y19726   4.976   3.437   3.664 -1.3967  1.9003 -1.1605
  173SAPS  C31319727   4.941   3.627   3.735 -0.0151  1.2890 -0.0669
  173SAPS  H13X19728   4.858   3.640   3.662  2.6279 -0.1890 -3.5118
  173SAPS  H13Y19729   4.984   3.730   3.736  1.7785  0.5674 -0.3425
  173SAPS  C31419730   4.905   3.586   3.878 -0.0600 -0.0714 -0.6271
  173SAPS  H14X19731   4.864   3.484   3.867  2.1131 -1.1580  0.9534
  173SAPS  H14Y19732   4.834   3.662   3.916 -1.8596 -1.3623 -1.3684
  173SAPS  C31519733   5.014   3.585   3.983 -0.0537  0.7606 -0.2725
  173SAPS  H15X19734   5.055   3.688   3.989 -1.1620  1.2617 -1.1476
  173SAPS  H15Y19735   5.095   3.517   3.948  0.1010 -1.1037  3.4760
  173SAPS  C31619736   4.970   3.542   4.125 -0.5640  0.3217  0.8652
  173SAPS  H16X19737   5.058   3.554   4.193  0.2261  2.4155 -0.4947
  173SAPS  H16Y19738   4.944   3.435   4.139  1.6187 -0.1467  1.6509
  173SAPS  C31719739   4.861   3.637   4.178  0.2948 -0.1051 -0.2604
  173SAPS  H17X19740   4.768   3.624   4.119  0.6856 -0.0319 -0.9046
  173SAPS  H17Y19741   4.892   3.744   4.174  0.2541 -0.0213  1.3517
  173SAPS  C31819742   4.823   3.610   4.320  0.1679  0.0131 -0.7376
  173SAPS  H18X19743   4.917   3.595   4.378 -0.4203 -0.0626  0.2008
  173SAPS  H18Y19744   4.768   3.514   4.325 -2.0078  1.2512 -0.2141
  173SAPS  H18Z19745   4.772   3.702   4.356  2.3723  1.8359 -2.0986
  174SAPS     N19746   1.478   3.423   2.152 -0.1943 -0.7696 -0.4417
  174SAPS   HN119747   1.382   3.452   2.179  1.2418  1.1838  2.9197
  174SAPS   HN219748   1.542   3.427   2.234  0.3607  0.1324 -0.9095
  174SAPS   HN319749   1.511   3.499   2.089 -1.2204  1.4943  1.6636
  174SAPS   C1219750   1.482   3.295   2.075  0.2112 -0.1467 -0.8425
  174SAPS  H12A19751   1.406   3.319   2.002  0.0686  2.2886  0.0615
  174SAPS   C1319752   1.610   3.280   1.988 -0.7628 -0.0334 -0.4658
  174SAPS  O13A19753   1.707   3.362   2.013 -0.4635  0.2058  0.3529
  174SAPS  O13B19754   1.624   3.171   1.930 -0.2509  0.6255 -0.4506
  174SAPS   C1119755   1.447   3.180   2.163 -0.4502  0.1157  0.1565
  174SAPS  H11A19756   1.532   3.159   2.233 -0.3332 -1.9717 -0.5595
  174SAPS  H11B19757   1.450   3.086   2.103 -0.0486  0.7115 -0.7587
  174SAPS     P19758   1.192   3.124   2.188  0.1684 -0.1741 -0.1455
  174SAPS   O1319759   1.082   3.137   2.290  0.2039  0.3288 -0.0674
  174SAPS   O1419760   1.173   3.166   2.050  0.1527 -0.1708  0.4023
  174SAPS   O1219761   1.324   3.201   2.234 -0.4353 -0.0278  0.7333
  174SAPS   O1119762   1.237   2.968   2.184 -0.0975  0.0589 -0.8285
  174SAPS    C119763   1.223   2.867   2.286 -0.1880  0.1127 -0.2137
  174SAPS    HA19764   1.115   2.858   2.312  0.3354 -1.8636  1.3715
  174SAPS    HB19765   1.246   2.769   2.240 -0.0725  0.2059 -0.3556
  174SAPS    C219766   1.310   2.872   2.413  0.5177 -0.3820  0.0049
  174SAPS    HS19767   1.277   2.786   2.475  2.8157 -1.9750 -0.9270
  174SAPS   O2119768   1.276   2.999   2.476  0.1350 -0.9764  0.2385
  174SAPS   C2119769   1.165   3.006   2.551  0.2108 -0.1582  0.2143
  174SAPS   O2219770   1.090   2.913   2.571 -0.1759 -0.4705 -0.1713
  174SAPS   C2219771   1.153   3.147   2.614 -0.2465  0.3121 -0.3051
  174SAPS   H2R19772   1.251   3.194   2.594  0.3013 -0.3615  0.7504
  174SAPS   H2S19773   1.090   3.210   2.547 -0.5294  2.4737  1.9329
  174SAPS    C319774   1.465   2.858   2.373  0.3375 -0.7840  0.3088
  174SAPS    HX19775   1.478   2.935   2.294 -0.0298 -2.4995 -1.4657
  174SAPS    HY19776   1.487   2.759   2.328  0.8092 -0.6644  0.2685
  174SAPS   O3119777   1.546   2.880   2.493 -0.2414  0.9298 -0.3345
  174SAPS   C3119778   1.677   2.857   2.466  0.3072 -0.2907 -0.7651
  174SAPS   O3219779   1.719   2.807   2.361 -0.6512  0.0080  0.3509
  174SAPS   C3219780   1.773   2.886   2.591  0.1910  0.4934  0.0620
  174SAPS   H2X19781   1.759   2.995   2.606  1.3363  0.7429 -0.6164
  174SAPS   H2Y19782   1.874   2.858   2.555 -0.0754  0.7414 -0.8969
  174SAPS   C2319783   1.096   3.142   2.753 -0.5552 -0.5115  0.0357
  174SAPS   H3R19784   1.176   3.100   2.817 -0.0200  0.6921  0.1798
  174SAPS   H3S19785   1.006   3.077   2.759 -2.1162  1.5728 -0.2200
  174SAPS   C2419786   1.059   3.279   2.800 -0.1014  0.5289  0.1125
  174SAPS   H4R19787   1.132   3.356   2.766  2.2828 -0.8946  1.8929
  174SAPS   H4S19788   1.062   3.282   2.912  0.5438 -0.0203  0.1109
  174SAPS   C2519789   0.928   3.327   2.736  0.3006 -0.3119 -0.6157
  174SAPS   H5R19790   0.876   3.254   2.673 -1.1845  2.2882 -2.5210
  174SAPS   C2619791   0.880   3.449   2.749 -0.5524  0.4384 -0.5762
  174SAPS   H6R19792   0.786   3.470   2.695  0.1887 -2.0107 -2.9094
  174SAPS   C2719793   0.953   3.566   2.821 -0.6884  0.2616 -0.6209
  174SAPS   H7R19794   1.026   3.614   2.751 -1.8039 -0.6280 -2.4488
  174SAPS   H7S19795   1.010   3.524   2.907 -0.4584  0.3777 -0.7165
  174SAPS   C2819796   0.872   3.680   2.871 -0.7071  0.0550 -0.1024
  174SAPS   H8R19797   0.808   3.722   2.793 -0.0047  1.4538  0.0675
  174SAPS   C2919798   0.863   3.732   2.991  0.4175  0.5253 -0.1765
  174SAPS   H9R19799   0.798   3.820   2.995 -0.9383 -0.4929  0.1981
  174SAPS  C21019800   0.926   3.707   3.124 -0.7142  0.4964 -0.3227
  174SAPS  H10R19801   1.029   3.670   3.106 -1.3010 -0.9681 -0.7290
  174SAPS  H10S19802   0.873   3.627   3.180 -0.7882  1.1023  0.4960
  174SAPS  C21119803   0.912   3.830   3.205  0.1785  0.4589  0.0249
  174SAPS  H11R19804   0.808   3.864   3.215 -0.5832 -1.8883  0.5394
  174SAPS  C21219805   1.018   3.891   3.274 -0.4273  0.1352  0.2764
  174SAPS  H12R19806   0.984   3.968   3.345  0.9773 -0.0064  1.1282
  174SAPS  C21319807   1.159   3.843   3.279 -0.1017 -0.1436  0.2480
  174SAPS  H13R19808   1.160   3.732   3.289 -2.3841 -0.2336 -0.4112
  174SAPS  H13S19809   1.215   3.873   3.371 -1.3643 -0.6251  1.1845
  174SAPS  C21419810   1.236   3.875   3.151  0.0112  0.0847 -0.3346
  174SAPS  H14R19811   1.204   3.973   3.114 -4.1677 -0.5018  1.3899
  174SAPS  C21519812   1.310   3.785   3.079 -0.8301 -0.5827 -0.3403
  174SAPS  H15R19813   1.380   3.823   3.004 -0.9737 -0.2046 -0.2816
  174SAPS  C21619814   1.340   3.643   3.105  0.6849 -0.0186  0.8127
  174SAPS  H16R19815   1.374   3.598   3.010 -0.2997  2.6810 -0.8537
  174SAPS  H16S19816   1.244   3.593   3.129  0.0455 -0.2434 -2.0445
  174SAPS  C21719817   1.451   3.645   3.212 -0.3421  0.0672  0.2315
  174SAPS  H17R19818   1.405   3.689   3.303 -1.2789  0.2122 -0.3072
  174SAPS  H17S19819   1.539   3.707   3.184  0.5756 -0.9604  0.7911
  174SAPS  C21819820   1.505   3.509   3.251 -0.0501 -0.4983  0.4645
  174SAPS  H18R19821   1.543   3.454   3.162  1.5978 -2.2965  2.2095
  174SAPS  H18S19822   1.418   3.450   3.285 -1.0944  1.3024  0.9729
  174SAPS  C21919823   1.611   3.520   3.350  0.7297  1.5416 -0.6081
  174SAPS  H19R19824   1.703   3.570   3.313  2.3512  0.1991  1.4704
  174SAPS  H19S19825   1.654   3.418   3.362  0.3224  1.4221 -0.1354
  174SAPS  C22019826   1.567   3.592   3.483  0.3711  0.4010  0.0389
  174SAPS  H20R19827   1.648   3.571   3.556 -0.0926 -1.0429  0.1746
  174SAPS  H20S19828   1.467   3.557   3.519  0.0193  0.3916 -0.9421
  174SAPS  H20T19829   1.569   3.700   3.460 -1.0759 -0.0328 -2.2438
  174SAPS   C3319830   1.733   2.799   2.708  0.6013  1.0569 -0.8907
  174SAPS   H3X19831   1.626   2.774   2.717  1.3892 -1.9512  0.9635
  174SAPS   H3Y19832   1.749   2.860   2.800  0.7642  1.5889 -1.2663
  174SAPS   C3419833   1.804   2.665   2.716  0.3091  0.2120 -0.3560
  174SAPS   H4X19834   1.912   2.679   2.694  0.5181 -0.9743 -0.1173
  174SAPS   H4Y19835   1.759   2.601   2.637  2.5513 -2.1463  0.1918
  174SAPS   C3519836   1.794   2.615   2.859  0.6907  0.2061 -0.3001
  174SAPS   H5X19837   1.685   2.620   2.883  0.7309 -1.2574  0.2680
  174SAPS   H5Y19838   1.842   2.689   2.927 -0.2744  1.1119 -0.5905
  174SAPS   C3619839   1.863   2.478   2.880  0.0173  0.2970 -0.3253
  174SAPS   H6X19840   1.973   2.485   2.862  0.0172 -1.4413 -1.1802
  174SAPS   H6Y19841   1.823   2.392   2.821 -0.0410 -0.4264  0.7462
  174SAPS   C3719842   1.848   2.441   3.031 -0.0394 -0.6415  0.2231
  174SAPS   H7X19843   1.906   2.350   3.058 -0.1429 -0.8012 -0.0941
  174SAPS   H7Y19844   1.740   2.424   3.049  0.2011 -2.0530  0.3846
  174SAPS   C3819845   1.892   2.559   3.129  0.6695 -0.4038  0.1756
  174SAPS   H8X19846   1.810   2.635   3.124 -0.3091 -1.4089  0.7370
  174SAPS   H8Y19847   1.989   2.594   3.088 -1.9707  3.6263 -3.1622
  174SAPS   C3919848   1.919   2.512   3.273  0.2041 -0.5746 -0.2163
  174SAPS   H9X19849   2.007   2.446   3.259 -0.3586 -1.2371 -0.6841
  174SAPS   H9Y19850   1.830   2.456   3.309 -1.6259  2.4149  0.0977
  174SAPS  C31019851   1.952   2.635   3.366 -0.0176  0.8947 -0.9256
  174SAPS  H10X19852   1.879   2.714   3.339 -0.9137  0.5801  0.4693
  174SAPS  H10Y19853   2.053   2.674   3.342  1.4928 -2.5966 -0.5328
  174SAPS  C31119854   1.946   2.601   3.518 -0.3609  0.0418 -0.1156
  174SAPS  H11X19855   2.012   2.514   3.540  2.3370  2.2887  0.9486
  174SAPS  H11Y19856   1.845   2.566   3.552 -0.0756 -0.5482  0.1389
  174SAPS  C31219857   2.003   2.708   3.609  0.4939 -0.4940  0.4933
  174SAPS  H12X19858   1.927   2.788   3.601  0.8363 -0.1918  0.2541
  174SAPS  H12Y19859   2.093   2.757   3.566 -0.5331  0.3112 -0.7402
  174SAPS  C31319860   2.024   2.654   3.746  0.1582  0.2079  0.2152
  174SAPS  H13X19861   2.097   2.571   3.741 -0.3447 -0.3671  2.1773
  174SAPS  H13Y19862   1.927   2.611   3.779  0.9138 -1.1098  0.7538
  174SAPS  C31419863   2.083   2.756   3.845 -0.3428  0.3276  0.1217
  174SAPS  H14X19864   2.017   2.845   3.850  0.6086  1.0166  0.6552
  174SAPS  H14Y19865   2.183   2.791   3.810 -0.9569 -0.9862 -3.1227
  174SAPS  C31519866   2.095   2.697   3.995  0.4681  0.5062  0.0526
  174SAPS  H15X19867   2.176   2.622   3.999 -0.0104 -0.0474 -0.5026
  174SAPS  H15Y19868   2.002   2.641   4.018  2.4697 -2.0225  2.2964
  174SAPS  C31619869   2.116   2.818   4.084 -0.1292  0.3440 -0.2475
  174SAPS  H16X19870   2.022   2.871   4.109 -0.0338  0.1087  0.6394
  174SAPS  H16Y19871   2.191   2.875   4.026  0.6211 -0.3252  0.0527
  174SAPS  C31719872   2.189   2.774   4.217  0.1898  0.5285  0.5034
  174SAPS  H17X19873   2.213   2.865   4.277 -1.3765  1.0104  0.4324
  174SAPS  H17Y19874   2.281   2.724   4.181  1.0999  1.5757  1.3130
  174SAPS  C31819875   2.105   2.687   4.309  0.5273 -0.1740 -0.7667
  174SAPS  H18X19876   2.025   2.746   4.359  1.5885 -0.2498  1.0774
  174SAPS  H18Y19877   2.174   2.661   4.392 -0.5192 -1.6650 -0.3323
  174SAPS  H18Z19878   2.067   2.590   4.270 -2.3764  0.4203  0.4259
  175SAPS     N19879   5.330   1.801   2.428 -0.3217 -0.2851 -0.2204
  175SAPS   HN119880   5.235   1.781   2.463 -1.1425  0.3223 -2.0185
  175SAPS   HN219881   5.377   1.712   2.455 -0.7026 -0.1407  0.9332
  175SAPS   HN319882   5.366   1.880   2.485  0.9255 -1.5956  0.8561
  175SAPS   C1219883   5.338   1.826   2.280  0.7251 -0.1899 -0.3600
  175SAPS  H12A19884   5.437   1.807   2.240  0.7514 -1.1134  0.1375
  175SAPS   C1319885   5.255   1.739   2.182 -0.2530 -0.3384 -0.5487
  175SAPS  O13A19886   5.201   1.632   2.228 -0.1532  0.2634  0.6777
  175SAPS  O13B19887   5.246   1.766   2.063  0.3239 -0.0227  0.2129
  175SAPS   C1119888   5.297   1.972   2.248  0.1452 -0.0946 -0.0388
  175SAPS  H11A19889   5.195   1.994   2.286  0.7179  2.5798  0.0821
  175SAPS  H11B19890   5.306   1.982   2.138  1.6703 -0.0519  0.0693
  175SAPS     P19891   5.349   2.213   2.326  0.0534  0.2448  0.4273
  175SAPS   O1319892   5.445   2.276   2.419  1.1359  0.3758  0.2291
  175SAPS   O1419893   5.328   2.282   2.197 -0.5951  0.2152  0.0850
  175SAPS   O1219894   5.396   2.064   2.307  0.4704 -0.1438  0.1692
  175SAPS   O1119895   5.207   2.183   2.399 -0.1736 -0.1637  0.4899
  175SAPS    C119896   5.209   2.198   2.538 -1.0849  0.4833 -0.4526
  175SAPS    HA19897   5.286   2.131   2.581 -1.7151 -0.9859 -1.5457
  175SAPS    HB19898   5.225   2.302   2.574 -2.7394  0.1906  1.2221
  175SAPS    C219899   5.069   2.165   2.602  0.2769  0.6814 -0.2288
  175SAPS    HS19900   5.001   2.238   2.554 -0.6668  0.2078  0.3789
  175SAPS   O2119901   5.084   2.183   2.746 -1.0469 -0.5447  0.8026
  175SAPS   C2119902   4.968   2.178   2.797  0.2166 -0.8933  0.2108
  175SAPS   O2219903   4.863   2.192   2.738  0.2964 -0.3359  0.4184
  175SAPS   C2219904   4.977   2.137   2.946  0.4292  0.2237  0.0212
  175SAPS   H2R19905   5.033   2.041   2.954 -0.0964  0.0185  1.2686
  175SAPS   H2S19906   5.028   2.219   3.001  0.2975  0.3010  0.0282
  175SAPS    C319907   5.038   2.006   2.568  0.9364 -0.4627 -0.3020
  175SAPS    HX19908   5.067   2.002   2.461  0.3611  1.6267 -0.5507
  175SAPS    HY19909   4.931   1.976   2.573  0.5634  0.4671 -2.0814
  175SAPS   O3119910   5.129   1.910   2.634  0.0290 -0.1371  0.3399
  175SAPS   C3119911   5.075   1.842   2.737  0.0070  0.7509  0.5126
  175SAPS   O3219912   4.963   1.865   2.774  0.2754 -0.1584  0.0189
  175SAPS   C3219913   5.180   1.752   2.790  0.4423 -0.9031  0.4153
  175SAPS   H2X19914   5.245   1.715   2.708  0.3164 -0.3196  0.0488
  175SAPS   H2Y19915   5.132   1.662   2.834 -0.9328 -0.9213 -1.1038
  175SAPS   C2319916   4.839   2.125   3.018  0.0135 -0.4492 -0.7301
  175SAPS   H3R19917   4.771   2.054   2.966 -1.3035 -1.5746  2.3754
  175SAPS   H3S19918   4.797   2.228   3.023  2.9888  0.7207  1.1360
  175SAPS   C2419919   4.838   2.080   3.168 -0.1038  0.1334  0.8665
  175SAPS   H4R19920   4.740   2.077   3.220  0.9807 -3.1512  2.8705
  175SAPS   H4S19921   4.892   2.158   3.226  0.4819  0.0384  0.4585
  175SAPS   C2519922   4.895   1.939   3.172 -0.1233 -0.6682 -0.5965
  175SAPS   H5R19923   4.835   1.860   3.125 -1.1168 -0.1793 -0.1771
  175SAPS   C2619924   4.998   1.894   3.247 -1.4935 -0.1643  1.1421
  175SAPS   H6R19925   5.041   1.794   3.237  0.4395  0.9104 -1.8179
  175SAPS   C2719926   5.079   1.976   3.338 -0.6558  0.4654  0.7306
  175SAPS   H7R19927   5.137   1.911   3.406  0.3147  1.9600  1.3480
  175SAPS   H7S19928   5.014   2.027   3.412 -0.1936  1.7436  0.2597
  175SAPS   C2819929   5.151   2.094   3.283 -0.0007 -0.8387 -0.0657
  175SAPS   H8R19930   5.107   2.141   3.194 -0.1741  0.3621  0.6513
  175SAPS   C2919931   5.265   2.150   3.324  0.3442 -0.5310  0.4723
  175SAPS   H9R19932   5.312   2.228   3.262 -0.0141 -1.3709 -0.8744
  175SAPS  C21019933   5.341   2.089   3.438 -0.0113  0.0595  0.2722
  175SAPS  H10R19934   5.401   2.004   3.400 -0.7267 -0.1745 -0.3500
  175SAPS  H10S19935   5.277   2.044   3.516  1.6338 -0.9849  1.0371
  175SAPS  C21119936   5.437   2.190   3.502 -0.0973  0.5731  0.7524
  175SAPS  H11R19937   5.504   2.246   3.435 -1.4694  0.3150 -0.8869
  175SAPS  C21219938   5.453   2.216   3.633 -0.2763 -1.2733 -0.2401
  175SAPS  H12R19939   5.539   2.279   3.661 -2.1459  1.4210 -0.3546
  175SAPS  C21319940   5.383   2.156   3.750  0.1547  0.2695  0.2043
  175SAPS  H13R19941   5.438   2.069   3.790  0.2828 -0.5706 -1.7359
  175SAPS  H13S19942   5.291   2.114   3.704 -0.2983  1.0373  0.4009
  175SAPS  C21419943   5.350   2.244   3.870  0.0432 -1.3467  0.2674
  175SAPS  H14R19944   5.396   2.343   3.859  0.1033 -1.1633  2.1691
  175SAPS  C21519945   5.284   2.214   3.984  0.5480  0.2994  1.2282
  175SAPS  H15R19946   5.267   2.297   4.054 -1.0452  1.0940 -0.0562
  175SAPS  C21619947   5.221   2.079   4.014  0.1079  0.1089 -0.3339
  175SAPS  H16R19948   5.300   2.003   4.032 -1.4278 -0.9821  1.9541
  175SAPS  H16S19949   5.161   2.044   3.927 -0.1115  0.4097 -0.3032
  175SAPS  C21719950   5.118   2.090   4.134 -0.6836  1.1307 -0.3447
  175SAPS  H17R19951   5.164   2.145   4.219  2.4931 -0.8311 -0.6852
  175SAPS  H17S19952   5.086   1.991   4.173  0.8120  0.7272 -0.1181
  175SAPS  C21819953   4.992   2.160   4.098  0.3148  0.4588  0.5454
  175SAPS  H18R19954   4.953   2.119   4.003  0.7624 -2.7142  1.6577
  175SAPS  H18S19955   5.011   2.267   4.076 -1.2734  0.1895 -2.3811
  175SAPS  C21919956   4.875   2.149   4.204  0.0636  0.8462 -0.6073
  175SAPS  H19R19957   4.836   2.046   4.218 -0.1156  0.8120 -1.3109
  175SAPS  H19S19958   4.788   2.211   4.174  2.4194  3.7541 -1.6769
  175SAPS  C22019959   4.902   2.194   4.353 -0.4326 -0.2581  0.2242
  175SAPS  H20R19960   4.955   2.291   4.339 -1.1921 -0.0241 -1.1079
  175SAPS  H20S19961   4.972   2.120   4.398  0.9997 -0.0016 -1.5351
  175SAPS  H20T19962   4.809   2.204   4.413 -0.3116  1.4121  0.1579
  175SAPS   C3319963   5.264   1.806   2.902  0.5603  0.1934  0.3228
  175SAPS   H3X19964   5.203   1.820   2.994  2.1543  2.1895  1.0992
  175SAPS   H3Y19965   5.305   1.906   2.879  2.4492  0.1584  3.2176
  175SAPS   C3419966   5.392   1.720   2.937 -0.1218 -0.8107  0.4515
  175SAPS   H4X19967   5.370   1.612   2.927 -0.3982 -0.6630 -0.6754
  175SAPS   H4Y19968   5.416   1.759   3.038 -1.2513  1.0205  0.0451
  175SAPS   C3519969   5.511   1.759   2.843  0.8864 -0.0517  0.8402
  175SAPS   H5X19970   5.556   1.859   2.858  4.1441 -1.4250  0.6069
  175SAPS   H5Y19971   5.466   1.744   2.742 -1.1609  0.5541  1.6320
  175SAPS   C3619972   5.629   1.656   2.854 -0.1495  0.2936  0.2709
  175SAPS   H6X19973   5.671   1.638   2.752  3.0664 -2.5776  1.9758
  175SAPS   H6Y19974   5.593   1.555   2.884  2.1297 -1.7265 -3.3853
  175SAPS   C3719975   5.742   1.688   2.944  0.4053 -0.8460  0.4448
  175SAPS   H7X19976   5.713   1.684   3.051 -1.2225 -1.5869 -0.0101
  175SAPS   H7Y19977   5.766   1.793   2.918  3.8895 -1.9352 -1.0746
  175SAPS   C3819978   5.869   1.600   2.934 -0.2100 -0.5890 -0.4348
  175SAPS   H8X19979   5.925   1.652   2.853 -0.6852 -1.9879 -1.6969
  175SAPS   H8Y19980   5.837   1.500   2.900 -0.7195 -0.0127 -1.7029
  175SAPS   C3919981   5.954   1.582   3.059  0.1872 -0.8033 -0.2361
  175SAPS   H9X19982   5.965   1.682   3.105 -2.2008 -0.9367  0.6988
  175SAPS   H9Y19983   6.059   1.558   3.035  0.3747  1.0135 -1.3249
  175SAPS  C31019984   5.905   1.480   3.162 -0.3631  0.5857  0.5935
  175SAPS  H10X19985   5.918   1.379   3.116  0.6759  0.6550  0.7403
  175SAPS  H10Y19986   5.795   1.489   3.176 -0.5548  2.9873 -2.1146
  175SAPS  C31119987   5.974   1.485   3.303 -0.1453  0.2498  0.4713
  175SAPS  H11X19988   6.085   1.486   3.299 -0.1615  1.9640  0.1578
  175SAPS  H11Y19989   5.937   1.386   3.338  0.6316 -0.3610 -0.4105
  175SAPS  C31219990   5.922   1.603   3.389 -0.6403  0.1966  0.3694
  175SAPS  H12X19991   5.812   1.615   3.388 -0.6195  0.3734 -1.5105
  175SAPS  H12Y19992   5.956   1.700   3.346 -1.3322  1.3959  2.4714
  175SAPS  C31319993   5.978   1.588   3.531  0.3149 -0.0437  0.4679
  175SAPS  H13X19994   6.088   1.577   3.519  0.3071 -0.4415  0.7591
  175SAPS  H13Y19995   5.940   1.497   3.583 -3.3951  1.5454  0.6997
  175SAPS  C31419996   5.928   1.702   3.625 -0.4184 -0.1107  0.1000
  175SAPS  H14X19997   5.824   1.736   3.603 -0.5523 -0.0990  0.7459
  175SAPS  H14Y19998   5.989   1.794   3.611 -0.2517 -0.4773 -1.7188
  175SAPS  C31519999   5.944   1.661   3.778 -0.7044  0.3914 -0.7240
  175SAPS  H15X20000   5.965   1.751   3.840  3.6260 -0.5098 -0.7130
  175SAPS  H15Y20001   6.036   1.601   3.792 -0.6626  0.2673 -1.5016
  175SAPS  C31620002   5.821   1.593   3.844  0.4057 -0.3045  0.7464
  175SAPS  H16X20003   5.727   1.651   3.836 -0.6374 -2.0988 -0.0956
  175SAPS  H16Y20004   5.841   1.582   3.953 -0.5333 -2.6435  0.7081
  175SAPS  C31720005   5.800   1.447   3.795 -0.1483 -0.0259  0.2446
  175SAPS  H17X20006   5.889   1.382   3.807  0.4808  0.7810 -0.0785
  175SAPS  H17Y20007   5.772   1.453   3.688  0.2998 -0.7791  0.0846
  175SAPS  C31820008   5.680   1.377   3.867  0.6209  0.2339  0.5533
  175SAPS  H18X20009   5.584   1.424   3.838 -0.0597 -0.9726  0.8212
  175SAPS  H18Y20010   5.687   1.374   3.978  0.5066 -0.0820  0.5525
  175SAPS  H18Z20011   5.679   1.272   3.830 -1.4021  0.8120 -1.1520
  176SAPS     N20012   3.673   0.856   2.248 -0.3743 -0.2187  0.2103
  176SAPS   HN120013   3.697   0.934   2.185  2.1617 -0.3728  0.9588
  176SAPS   HN220014   3.746   0.847   2.322  0.8154  1.9986 -0.6764
  176SAPS   HN320015   3.664   0.770   2.190  0.4675 -0.1686  0.0046
  176SAPS   C1220016   3.540   0.885   2.303  0.5102 -0.1502  0.5401
  176SAPS  H12A20017   3.551   0.953   2.387  0.9621 -0.1601  0.4910
  176SAPS   C1320018   3.447   0.947   2.200 -0.2091  0.5806  0.7603
  176SAPS  O13A20019   3.464   0.927   2.077  0.3744 -0.6039  0.1771
  176SAPS  O13B20020   3.342   1.009   2.236  0.0524  0.1957  0.4704
  176SAPS   C1120021   3.480   0.751   2.359 -0.9160  0.3177 -0.4292
  176SAPS  H11A20022   3.369   0.755   2.359 -0.9216  0.4368  1.0012
  176SAPS  H11B20023   3.525   0.740   2.460  1.4903 -1.9372 -1.6825
  176SAPS     P20024   3.470   0.498   2.287 -0.0918 -0.1836  0.1119
  176SAPS   O1320025   3.327   0.521   2.249  0.3609  0.1544  1.0626
  176SAPS   O1420026   3.549   0.401   2.209 -0.9283  0.0047 -0.4221
  176SAPS   O1220027   3.528   0.637   2.277  0.1111 -0.0549 -0.2314
  176SAPS   O1120028   3.465   0.452   2.435 -0.1941  0.1772  0.4000
  176SAPS    C120029   3.365   0.489   2.527  0.2069  0.3981 -0.8391
  176SAPS    HA20030   3.410   0.496   2.628 -1.4609  5.3625 -0.3156
  176SAPS    HB20031   3.312   0.586   2.514 -0.9598 -0.0274  0.5603
  176SAPS    C220032   3.258   0.376   2.533 -0.2336  0.1066 -0.4636
  176SAPS    HS20033   3.212   0.369   2.432  1.3650  0.5778 -1.2458
  176SAPS   O2120034   3.161   0.398   2.633  0.1180 -0.1244  0.9216
  176SAPS   C2120035   3.054   0.458   2.597  0.2784 -0.0801 -1.2119
  176SAPS   O2220036   3.023   0.498   2.485  0.1255 -0.4026 -0.1153
  176SAPS   C2220037   2.965   0.457   2.725  0.7184  0.3516 -0.6683
  176SAPS   H2R20038   3.022   0.408   2.807 -1.1071 -0.4680  0.1418
  176SAPS   H2S20039   2.957   0.559   2.767 -1.9252 -1.0833  2.5384
  176SAPS    C320040   3.320   0.237   2.565 -0.3640 -0.0611 -0.6105
  176SAPS    HX20041   3.394   0.196   2.493  1.3681  0.1379  1.0149
  176SAPS    HY20042   3.239   0.162   2.564  1.7028 -2.3582  0.8963
  176SAPS   O3120043   3.383   0.251   2.689  0.1046 -0.1652  0.2424
  176SAPS   C3120044   3.431   0.131   2.732 -0.5697  0.3304  0.1960
  176SAPS   O3220045   3.414   0.023   2.674 -0.0233  0.4753 -0.3079
  176SAPS   C3220046   3.534   0.154   2.847 -0.8400 -0.5362  0.0919
  176SAPS   H2X20047   3.497   0.239   2.908  3.1868  2.5374 -1.4995
  176SAPS   H2Y20048   3.628   0.189   2.798 -0.3972 -0.9442  0.6351
  176SAPS   C2320049   2.823   0.395   2.698  0.6037 -0.1973 -0.2503
  176SAPS   H3R20050   2.850   0.288   2.698  2.3008  0.2115 -1.3988
  176SAPS   H3S20051   2.779   0.439   2.605  3.0213 -0.4846 -1.5817
  176SAPS   C2420052   2.725   0.415   2.811 -0.1023 -0.6672  0.3187
  176SAPS   H4R20053   2.623   0.393   2.773  0.8245 -2.3638 -1.2529
  176SAPS   H4S20054   2.725   0.521   2.844  3.2919  0.6226 -3.4633
  176SAPS   C2520055   2.738   0.321   2.932  0.5757 -0.3370  0.1957
  176SAPS   H5R20056   2.772   0.220   2.904  1.7983  0.1778 -0.2000
  176SAPS   C2620057   2.714   0.344   3.061  0.4943 -0.4566  0.0828
  176SAPS   H6R20058   2.724   0.261   3.133  2.4890  0.1177  0.5102
  176SAPS   C2720059   2.668   0.481   3.122  0.5754 -0.1473 -0.9142
  176SAPS   H7R20060   2.573   0.469   3.179  0.1364  1.0752 -1.3655
  176SAPS   H7S20061   2.654   0.557   3.042  0.3248 -0.4210 -1.1300
  176SAPS   C2820062   2.774   0.533   3.216 -0.1979  0.0182 -0.4160
  176SAPS   H8R20063   2.859   0.473   3.251 -0.1421  1.1855  1.4830
  176SAPS   C2920064   2.764   0.658   3.266  0.5514  0.0611  0.3549
  176SAPS   H9R20065   2.835   0.696   3.342  0.9284 -0.7794  0.4264
  176SAPS  C21020066   2.648   0.752   3.236  1.1306 -0.4901  0.4046
  176SAPS  H10R20067   2.548   0.705   3.235  0.2611  1.2807  2.7449
  176SAPS  H10S20068   2.680   0.784   3.134 -0.1881  0.5743  0.3236
  176SAPS  C21120069   2.657   0.876   3.315  0.1777  0.2383 -1.1126
  176SAPS  H11R20070   2.695   0.962   3.257  1.9658 -0.0382 -0.3892
  176SAPS  C21220071   2.619   0.894   3.441 -0.2554 -0.6732 -0.8784
  176SAPS  H12R20072   2.603   0.999   3.468 -0.3742  0.1294 -3.8882
  176SAPS  C21320073   2.558   0.802   3.540 -0.0999 -0.2951 -0.3450
  176SAPS  H13R20074   2.555   0.694   3.512  0.6915 -0.9400  1.9356
  176SAPS  H13S20075   2.456   0.841   3.560  1.0733  3.1036 -0.6763
  176SAPS  C21420076   2.615   0.818   3.678  0.5381  0.0656 -0.0521
  176SAPS  H14R20077   2.714   0.772   3.692  1.2139  1.4165 -0.3511
  176SAPS  C21520078   2.575   0.894   3.778 -0.2629  0.0320  0.1295
  176SAPS  H15R20079   2.635   0.910   3.869  0.7234  2.5515 -0.9139
  176SAPS  C21620080   2.455   0.981   3.791  0.4596 -0.3335 -0.1674
  176SAPS  H16R20081   2.390   0.968   3.701  1.3466 -1.2096 -0.6886
  176SAPS  H16S20082   2.481   1.089   3.797  1.9218 -0.7094  0.3437
  176SAPS  C21720083   2.374   0.959   3.914  0.5487 -0.4969  0.0222
  176SAPS  H17R20084   2.432   0.977   4.007  0.5505  0.6320 -0.1980
  176SAPS  H17S20085   2.336   0.854   3.918 -1.2845  0.2031  1.5672
  176SAPS  C21820086   2.251   1.055   3.920  0.4502  0.5262 -0.1948
  176SAPS  H18R20087   2.179   1.013   3.994 -0.5903  0.6742 -1.1026
  176SAPS  H18S20088   2.199   1.055   3.821 -1.6627 -0.1807  0.8738
  176SAPS  C21920089   2.279   1.195   3.977  0.5123  0.1388  0.0561
  176SAPS  H19R20090   2.358   1.247   3.918  0.4515  1.4983  1.1510
  176SAPS  H19S20091   2.330   1.197   4.076  0.3201 -0.4592  0.1654
  176SAPS  C22020092   2.162   1.280   3.974  1.0252  0.6143  0.5165
  176SAPS  H20R20093   2.089   1.259   4.055 -0.5773  0.0384 -1.0337
  176SAPS  H20S20094   2.107   1.250   3.882  2.8389  0.0642 -0.3998
  176SAPS  H20T20095   2.199   1.385   3.974  3.3758 -0.1790  2.1999
  176SAPS   C3320096   3.557   0.022   2.929  0.0474 -1.5586 -0.2846
  176SAPS   H3X20097   3.641  -0.030   2.878 -1.2402 -2.6698 -1.3222
  176SAPS   H3Y20098   3.477  -0.055   2.928 -0.6866 -0.8011 -2.8582
  176SAPS   C3420099   3.602   0.040   3.073  0.0512 -0.3649 -0.4137
  176SAPS   H4X20100   3.681   0.117   3.072 -0.4610  0.1585 -0.4890
  176SAPS   H4Y20101   3.656  -0.052   3.105  2.8499  1.1009 -0.7193
  176SAPS   C3520102   3.491   0.101   3.168  0.9121  0.0058  0.9765
  176SAPS   H5X20103   3.407   0.029   3.179  0.2795  1.1174  3.8647
  176SAPS   H5Y20104   3.446   0.194   3.127 -3.1462 -1.9746  0.7476
  176SAPS   C3620105   3.554   0.138   3.297 -0.0509  1.1627 -0.2204
  176SAPS   H6X20106   3.569   0.248   3.288  0.2905  1.2389  1.0794
  176SAPS   H6Y20107   3.643   0.075   3.319  0.3823  1.7665 -0.2007
  176SAPS   C3720108   3.450   0.127   3.413 -0.3139  0.4406  0.5176
  176SAPS   H7X20109   3.497   0.101   3.511 -0.3093 -0.0323  0.3920
  176SAPS   H7Y20110   3.380   0.047   3.383 -1.0094  0.2134  2.6267
  176SAPS   C3820111   3.366   0.253   3.424  0.5469  0.6484  0.1183
  176SAPS   H8X20112   3.319   0.274   3.326 -1.3800  1.5577  1.2048
  176SAPS   H8Y20113   3.429   0.344   3.432  0.6854  0.6266 -0.7134
  176SAPS   C3920114   3.261   0.247   3.537 -0.3411 -0.4354 -0.2829
  176SAPS   H9X20115   3.232   0.140   3.548 -0.8607 -0.0450  2.3417
  176SAPS   H9Y20116   3.172   0.310   3.515  0.4967  0.5485 -0.8727
  176SAPS  C31020117   3.316   0.286   3.670 -0.4570 -0.2305 -0.1443
  176SAPS  H10X20118   3.405   0.225   3.694 -0.2517 -0.0796 -0.5126
  176SAPS  H10Y20119   3.236   0.261   3.743 -0.5216  2.1736  0.6707
  176SAPS  C31120120   3.330   0.443   3.683 -0.3169  0.4355  0.7045
  176SAPS  H11X20121   3.230   0.485   3.662 -0.0512  0.6975 -0.0457
  176SAPS  H11Y20122   3.396   0.477   3.600 -1.4615 -0.4863 -0.6031
  176SAPS  C31220123   3.362   0.484   3.824 -0.1360  0.6864 -0.0108
  176SAPS  H12X20124   3.452   0.426   3.854  0.8360  2.5443  0.7682
  176SAPS  H12Y20125   3.276   0.451   3.886 -1.2466  0.5345 -1.5891
  176SAPS  C31320126   3.363   0.636   3.843  0.3701  0.1805  0.0852
  176SAPS  H13X20127   3.273   0.672   3.790  0.4599 -2.7096 -2.1167
  176SAPS  H13Y20128   3.450   0.681   3.790  0.2884 -1.3260 -1.3627
  176SAPS  C31420129   3.358   0.681   3.991 -0.1966 -0.2990 -0.0756
  176SAPS  H14X20130   3.450   0.638   4.036  0.0008 -4.0540 -3.8088
  176SAPS  H14Y20131   3.266   0.643   4.040  0.9867 -1.6006  1.1746
  176SAPS  C31520132   3.344   0.830   4.004  0.3182 -0.1711  0.1023
  176SAPS  H15X20133   3.255   0.870   3.950 -0.4902 -1.6463  0.3264
  176SAPS  H15Y20134   3.433   0.878   3.957 -0.3528  3.0673  1.9986
  176SAPS  C31620135   3.352   0.870   4.157  0.3558  0.6602  0.5605
  176SAPS  H16X20136   3.256   0.841   4.205 -0.3065  1.6656 -0.1481
  176SAPS  H16Y20137   3.356   0.981   4.153  1.4013  0.6524  1.3008
  176SAPS  C31720138   3.480   0.831   4.234 -0.5753  0.3805  0.5528
  176SAPS  H17X20139   3.572   0.835   4.171 -1.2118 -2.4434 -0.6699
  176SAPS  H17Y20140   3.460   0.728   4.271  0.3919 -0.4818 -1.2439
  176SAPS  C31820141   3.486   0.906   4.356  0.0793 -0.3939 -0.2446
  176SAPS  H18X20142   3.498   1.015   4.338  0.0425  0.0143  2.0157
  176SAPS  H18Y20143   3.568   0.869   4.421 -0.5979 -0.2083  0.7291
  176SAPS  H18Z20144   3.386   0.904   4.406  0.6530  0.1126  0.9458
  177SAPS     N20145   7.218   2.668   2.371 -0.5846 -0.0420  0.4327
  177SAPS   HN120146   7.280   2.614   2.435  2.2377  0.6407 -1.6405
  177SAPS   HN220147   7.226   2.763   2.414 -0.7438 -0.4238  1.3288
  177SAPS   HN320148   7.121   2.631   2.377 -0.9311  0.5328 -1.4589
  177SAPS   C1220149   7.267   2.654   2.234 -0.0895  0.5782  0.1947
  177SAPS  H12A20150   7.193   2.700   2.170 -1.2855 -0.1436  1.0377
  177SAPS   C1320151   7.396   2.726   2.201 -0.6721 -0.1783  0.2085
  177SAPS  O13A20152   7.442   2.805   2.290  0.0821 -0.0948  0.4037
  177SAPS  O13B20153   7.422   2.750   2.079  0.0445 -0.5303 -0.3023
  177SAPS   C1120154   7.283   2.500   2.208 -0.7896 -0.3776  1.1709
  177SAPS  H11A20155   7.354   2.453   2.279  0.0832 -1.0765 -0.1519
  177SAPS  H11B20156   7.333   2.478   2.111 -0.1203 -0.3685  1.5122
  177SAPS     P20157   7.143   2.294   2.264 -0.4446 -0.5106 -0.2165
  177SAPS   O1320158   6.999   2.258   2.254 -0.8480  0.6563 -0.1469
  177SAPS   O1420159   7.246   2.208   2.203 -0.2349  0.5568 -0.5768
  177SAPS   O1220160   7.150   2.438   2.197 -0.3772  0.4348 -0.3974
  177SAPS   O1120161   7.172   2.336   2.412 -0.6525  0.3971 -0.8255
  177SAPS    C120162   7.237   2.252   2.506 -0.5411 -0.1784 -0.3503
  177SAPS    HA20163   7.335   2.215   2.470  0.0141  0.7945  0.1363
  177SAPS    HB20164   7.259   2.313   2.596 -3.5871  1.7751 -0.8560
  177SAPS    C220165   7.155   2.122   2.552 -0.5671  0.5442  0.1973
  177SAPS    HS20166   7.051   2.144   2.521 -1.1826 -3.3065 -0.7568
  177SAPS   O2120167   7.170   2.110   2.694  0.5651  0.0831 -0.3923
  177SAPS   C2120168   7.086   2.022   2.748 -0.2061  0.2019  0.1076
  177SAPS   O2220169   6.987   1.974   2.692  0.0610  0.1326  0.3288
  177SAPS   C2220170   7.133   1.991   2.890 -0.2213 -1.0343  0.4542
  177SAPS   H2R20171   7.242   1.968   2.892  0.0682  0.3746  3.6170
  177SAPS   H2S20172   7.123   2.088   2.943 -1.5246  1.7953 -4.6389
  177SAPS    C320173   7.204   1.996   2.487 -1.3747 -0.3715  0.6932
  177SAPS    HX20174   7.180   2.005   2.379 -3.2012  0.7882  1.1838
  177SAPS    HY20175   7.138   1.913   2.521  1.5489 -1.5538  3.8475
  177SAPS   O3120176   7.343   1.974   2.508 -0.2920 -0.0119  0.6859
  177SAPS   C3120177   7.375   1.858   2.562 -0.0358  0.4207  0.7125
  177SAPS   O3220178   7.294   1.769   2.598  0.4111 -0.2401 -0.3690
  177SAPS   C3220179   7.525   1.848   2.593  0.1005 -0.0141 -0.1987
  177SAPS   H2X20180   7.587   1.920   2.535 -1.8792  0.7582 -1.3955
  177SAPS   H2Y20181   7.562   1.745   2.578  0.5954 -0.2540  2.3122
  177SAPS   C2320182   7.073   1.862   2.955 -0.1919 -0.1063 -0.7451
  177SAPS   H3R20183   7.053   1.779   2.883  1.4875 -0.6459 -0.5925
  177SAPS   H3S20184   6.974   1.901   2.987 -0.3053 -0.1811 -1.0012
  177SAPS   C2420185   7.156   1.822   3.076  0.1003  0.4205  0.4011
  177SAPS   H4R20186   7.259   1.807   3.037  0.2877  0.6030  0.8200
  177SAPS   H4S20187   7.124   1.723   3.115  0.0029 -0.1043 -0.9939
  177SAPS   C2520188   7.150   1.933   3.182  0.3095 -0.2896  0.7919
  177SAPS   H5R20189   7.223   2.010   3.154 -0.1841 -1.3011 -3.6957
  177SAPS   C2620190   7.107   1.939   3.306  0.0727 -0.1775  0.8688
  177SAPS   H6R20191   7.119   2.025   3.373  1.8094 -1.5895  2.4157
  177SAPS   C2720192   7.040   1.832   3.386  0.2268 -0.5188  0.3950
  177SAPS   H7R20193   7.018   1.740   3.328 -2.5005 -0.7710  1.7743
  177SAPS   H7S20194   6.940   1.873   3.411  0.4458 -0.9102  1.9780
  177SAPS   C2820195   7.107   1.778   3.504 -0.6515  0.1818  0.3287
  177SAPS   H8R20196   7.186   1.848   3.537  0.0497 -1.0907  1.3749
  177SAPS   C2920197   7.078   1.669   3.577  0.3952 -0.1868  0.3857
  177SAPS   H9R20198   7.127   1.651   3.674 -0.0602 -0.1071  0.6328
  177SAPS  C21020199   6.958   1.578   3.548 -0.2190  0.1839  0.4019
  177SAPS  H10R20200   6.965   1.476   3.593 -0.2746  0.1030  0.2291
  177SAPS  H10S20201   6.942   1.561   3.439  0.3738 -1.0471  0.4893
  177SAPS  C21120202   6.841   1.653   3.611  0.4165 -0.8361  0.2330
  177SAPS  H11R20203   6.860   1.754   3.651  1.1809 -1.4028  1.3563
  177SAPS  C21220204   6.714   1.608   3.613 -0.8588  0.4403  0.0821
  177SAPS  H12R20205   6.633   1.663   3.662  0.1501  1.9341  0.1073
  177SAPS  C21320206   6.662   1.479   3.557  0.2769  0.3620  0.1392
  177SAPS  H13R20207   6.654   1.405   3.640 -1.2867 -1.2430 -1.3926
  177SAPS  H13S20208   6.729   1.439   3.478 -1.5849 -1.5105 -0.5478
  177SAPS  C21420209   6.528   1.478   3.481  0.1847 -0.2168 -0.2354
  177SAPS  H14R20210   6.515   1.551   3.400 -0.4153  0.5383  0.5306
  177SAPS  C21520211   6.423   1.397   3.508 -0.2138  0.3160  0.0150
  177SAPS  H15R20212   6.332   1.399   3.447 -2.3268  0.8541  3.0900
  177SAPS  C21620213   6.429   1.295   3.616 -0.3477 -0.0159 -0.7076
  177SAPS  H16R20214   6.441   1.338   3.718 -0.3195  0.0250 -0.7280
  177SAPS  H16S20215   6.499   1.211   3.601 -1.6146 -1.5936  1.7650
  177SAPS  C21720216   6.301   1.204   3.618 -0.1106 -0.2730 -0.4550
  177SAPS  H17R20217   6.300   1.135   3.530  2.8325  0.5753 -1.2023
  177SAPS  H17S20218   6.220   1.279   3.604  2.1735  2.4226  0.3828
  177SAPS  C21820219   6.272   1.127   3.753  0.3270 -0.5738  0.9725
  177SAPS  H18R20220   6.176   1.071   3.743  1.4150 -2.5906  1.6988
  177SAPS  H18S20221   6.257   1.201   3.835  0.0405  1.8623 -1.2132
  177SAPS  C21920222   6.382   1.023   3.784 -0.4256 -0.4180 -0.5474
  177SAPS  H19R20223   6.477   1.079   3.797  0.4032 -1.1329 -3.3444
  177SAPS  H19S20224   6.389   0.956   3.696  0.9892  0.8651 -1.4334
  177SAPS  C22020225   6.369   0.933   3.907  0.3711  0.8607 -0.8402
  177SAPS  H20R20226   6.363   0.995   3.999  2.7681 -0.8605  0.5394
  177SAPS  H20S20227   6.443   0.850   3.915 -0.5725  0.2146  1.8572
  177SAPS  H20T20228   6.275   0.877   3.889 -0.3208  1.8924 -0.4735
  177SAPS   C3320229   7.549   1.887   2.747  0.0285 -0.1984  0.6267
  177SAPS   H3X20230   7.652   1.853   2.769  0.3184  0.2243 -0.0731
  177SAPS   H3Y20231   7.477   1.831   2.811 -0.8287 -1.5253 -1.4433
  177SAPS   C3420232   7.537   2.035   2.767  0.0704 -0.3265 -0.1819
  177SAPS   H4X20233   7.440   2.079   2.737  1.4401  3.9555  1.3664
  177SAPS   H4Y20234   7.621   2.088   2.717  0.3252  2.2655  2.8395
  177SAPS   C3520235   7.572   2.058   2.922  0.2783  0.7686  0.1501
  177SAPS   H5X20236   7.677   2.029   2.946  0.5210  2.0671  0.6920
  177SAPS   H5Y20237   7.498   2.013   2.991  0.4414  2.5079  1.4907
  177SAPS   C3620238   7.556   2.204   2.960 -0.1776 -1.1321  0.3968
  177SAPS   H6X20239   7.450   2.232   2.943  0.9747  2.7522 -1.1097
  177SAPS   H6Y20240   7.625   2.269   2.901 -2.6842  4.6961  3.4156
  177SAPS   C3720241   7.579   2.231   3.107  0.1233 -0.3538 -0.5550
  177SAPS   H7X20242   7.680   2.198   3.136 -0.7593 -2.5325  0.1006
  177SAPS   H7Y20243   7.503   2.170   3.160 -0.5370  0.2720 -0.7563
  177SAPS   C3820244   7.554   2.378   3.148  0.2275  0.1083 -0.0273
  177SAPS   H8X20245   7.628   2.443   3.096  0.5019  0.4486  0.7821
  177SAPS   H8Y20246   7.586   2.392   3.254 -0.4432  0.3836  0.1437
  177SAPS   C3920247   7.411   2.432   3.112  0.0619  0.1535  1.0868
  177SAPS   H9X20248   7.341   2.349   3.134 -0.1242  0.8044  3.1492
  177SAPS   H9Y20249   7.397   2.453   3.004  0.9479  1.0918  1.1451
  177SAPS  C31020250   7.370   2.556   3.191 -0.4557  0.1979 -0.5231
  177SAPS  H10X20251   7.270   2.589   3.155 -0.8863  0.1095  0.5647
  177SAPS  H10Y20252   7.452   2.624   3.161  1.8051 -2.1658  0.0766
  177SAPS  C31120253   7.369   2.537   3.346 -0.6987 -0.2522 -1.0803
  177SAPS  H11X20254   7.471   2.553   3.385 -2.0119  0.2154  2.3781
  177SAPS  H11Y20255   7.337   2.435   3.376  3.4417 -1.5920 -0.9434
  177SAPS  C31220256   7.288   2.651   3.424 -0.3586  0.0954 -0.1018
  177SAPS  H12X20257   7.185   2.644   3.384 -0.3852  1.3581 -0.2644
  177SAPS  H12Y20258   7.334   2.734   3.367  0.2098 -1.6105 -2.2000
  177SAPS  C31320259   7.292   2.633   3.576 -0.1160  0.6125 -0.2373
  177SAPS  H13X20260   7.396   2.633   3.615  0.0389  0.0681 -0.6470
  177SAPS  H13Y20261   7.250   2.532   3.596  1.6230 -0.3476 -1.3862
  177SAPS  C31420262   7.201   2.727   3.651  0.0154 -0.1919 -0.3634
  177SAPS  H14X20263   7.226   2.833   3.630  0.9317 -0.3040  0.1238
  177SAPS  H14Y20264   7.208   2.706   3.760  1.3312 -0.3574 -0.4702
  177SAPS  C31520265   7.056   2.712   3.601  1.0800 -1.2323 -0.2079
  177SAPS  H15X20266   7.016   2.608   3.596 -3.2590  0.3382 -0.6772
  177SAPS  H15Y20267   7.057   2.746   3.495  1.0866  2.2459  0.8678
  177SAPS  C31620268   6.966   2.808   3.685  0.5151  0.4817 -0.4597
  177SAPS  H16X20269   6.980   2.909   3.641 -0.3419  0.4734 -0.7785
  177SAPS  H16Y20270   6.992   2.814   3.793  0.6123  0.3343 -0.4747
  177SAPS  C31720271   6.819   2.771   3.666  0.3796  0.3792 -0.4508
  177SAPS  H17X20272   6.781   2.680   3.718  1.2887 -0.9053 -1.9968
  177SAPS  H17Y20273   6.809   2.760   3.556 -0.4942 -0.7989 -0.2593
  177SAPS  C31820274   6.727   2.890   3.709 -0.7237  0.2931  0.1375
  177SAPS  H18X20275   6.759   2.979   3.651  1.7440 -0.1017  0.8479
  177SAPS  H18Y20276   6.736   2.910   3.818  0.1871  0.2090  0.0820
  177SAPS  H18Z20277   6.621   2.864   3.688 -0.1159 -0.0220 -2.7369
  178SAPS     N20278   4.567   6.817   2.220 -0.7282  0.2031  0.1946
  178SAPS   HN120279   4.551   6.726   2.173  2.2319 -0.3616  0.1674
  178SAPS   HN220280   4.589   6.798   2.320  0.9535 -0.8266 -0.3389
  178SAPS   HN320281   4.485   6.879   2.208  0.8695  3.0779  3.1290
  178SAPS   C1220282   4.686   6.885   2.150 -0.0300  0.8836 -0.2374
  178SAPS  H12A20283   4.766   6.813   2.143  0.3411  1.2925 -0.2391
  178SAPS   C1320284   4.657   6.935   2.000 -0.1905  0.5176  0.6661
  178SAPS  O13A20285   4.541   6.945   1.953  0.0634 -0.3730 -0.4297
  178SAPS  O13B20286   4.761   6.970   1.940 -0.2375  0.0550 -0.3168
  178SAPS   C1120287   4.726   7.010   2.240 -0.0443 -0.1864 -0.4105
  178SAPS  H11A20288   4.629   7.063   2.232 -0.3408 -0.5498  0.6858
  178SAPS  H11B20289   4.811   7.061   2.190  2.3495 -1.1803  2.5189
  178SAPS     P20290   4.896   6.959   2.435 -0.0673 -0.2031  0.0530
  178SAPS   O1320291   4.924   6.816   2.401  0.6796  0.2032  0.8623
  178SAPS   O1420292   4.990   7.062   2.374 -0.1983 -0.3127  0.0822
  178SAPS   O1220293   4.754   6.989   2.380  0.0151 -0.2432  0.1605
  178SAPS   O1120294   4.882   6.984   2.590 -0.6014  0.3404 -0.3014
  178SAPS    C120295   4.809   7.110   2.631 -0.2213  0.5719  0.7475
  178SAPS    HA20296   4.721   7.123   2.564 -0.1835 -1.6549  0.2141
  178SAPS    HB20297   4.764   7.095   2.731 -0.6325 -0.9262  0.3538
  178SAPS    C220298   4.892   7.239   2.637  0.2451  0.5396 -0.4280
  178SAPS    HS20299   4.983   7.212   2.581 -0.7205  2.3084 -2.9490
  178SAPS   O2120300   4.922   7.270   2.779  0.2041  0.4913 -0.3125
  178SAPS   C2120301   5.043   7.336   2.788  0.3456  0.3046 -0.5918
  178SAPS   O2220302   5.124   7.336   2.701 -0.0811  0.2124 -0.1964
  178SAPS   C2220303   5.068   7.384   2.935  0.1275 -0.2640 -0.1929
  178SAPS   H2R20304   4.966   7.401   2.976 -0.3442 -1.3569 -0.8558
  178SAPS   H2S20305   5.111   7.300   2.994  2.7661  1.3510  0.2432
  178SAPS    C320306   4.834   7.366   2.572 -0.1165  0.5885 -0.5307
  178SAPS    HX20307   4.788   7.340   2.474  0.4312 -0.1319 -0.6042
  178SAPS    HY20308   4.924   7.430   2.558 -0.7865  1.3148 -1.5985
  178SAPS   O3120309   4.727   7.421   2.649  0.0848 -0.1350  0.2154
  178SAPS   C3120310   4.760   7.522   2.726  0.0864 -0.6967  0.3485
  178SAPS   O3220311   4.869   7.579   2.723 -0.4639 -0.2476  0.2676
  178SAPS   C3220312   4.638   7.561   2.811 -0.6173 -0.1585 -0.1976
  178SAPS   H2X20313   4.555   7.582   2.741  0.2170  2.2972 -0.4809
  178SAPS   H2Y20314   4.664   7.658   2.858 -0.8237 -0.1971 -0.0045
  178SAPS   C2320315   5.147   7.511   2.938  0.4029  0.0502 -0.6590
  178SAPS   H3R20316   5.107   7.586   2.867 -1.7749  0.8798  1.3954
  178SAPS   H3S20317   5.251   7.484   2.907  0.6527 -0.1638  0.3238
  178SAPS   C2420318   5.153   7.578   3.075  0.1982  0.8312  0.0958
  178SAPS   H4R20319   5.049   7.614   3.088 -1.0020 -1.9770 -1.2800
  178SAPS   H4S20320   5.211   7.673   3.078  0.3574  0.7011  2.4599
  178SAPS   C2520321   5.202   7.486   3.180 -0.4044 -0.1202  0.4355
  178SAPS   H5R20322   5.301   7.441   3.163  0.8895  2.0261  2.0793
  178SAPS   C2620323   5.153   7.464   3.302 -0.4557  0.3326  0.5672
  178SAPS   H6R20324   5.201   7.381   3.355  0.3689 -0.6406 -1.6078
  178SAPS   C2720325   5.037   7.537   3.369  0.3648  0.1586  0.1185
  178SAPS   H7R20326   4.946   7.514   3.310  0.0718 -0.5944  0.8644
  178SAPS   H7S20327   5.059   7.645   3.351  1.5715  0.9997  5.7979
  178SAPS   C2820328   5.037   7.509   3.518 -0.2099 -0.7758  0.2621
  178SAPS   H8R20329   5.103   7.429   3.555  0.2597 -1.5441 -2.1424
  178SAPS   C2920330   4.967   7.567   3.618 -0.0662 -0.1271  0.0499
  178SAPS   H9R20331   4.974   7.531   3.721  0.2191  1.2864  0.5378
  178SAPS  C21020332   4.871   7.688   3.603 -0.0735  0.1597  0.0974
  178SAPS  H10R20333   4.861   7.720   3.497 -0.4321 -0.1663  0.0294
  178SAPS  H10S20334   4.914   7.775   3.656  1.5477 -0.4552 -0.1768
  178SAPS  C21120335   4.734   7.659   3.667 -0.0497 -0.0774  0.0146
  178SAPS  H11R20336   4.703   7.554   3.661 -3.0693  0.7002  1.1398
  178SAPS  C21220337   4.646   7.753   3.716  0.3771 -0.0297  0.6326
  178SAPS  H12R20338   4.565   7.705   3.773 -0.3773 -2.1779 -2.1423
  178SAPS  C21320339   4.652   7.902   3.714  0.4164 -0.4967  0.2161
  178SAPS  H13R20340   4.755   7.944   3.722  0.6200 -0.1762 -3.2207
  178SAPS  H13S20341   4.590   7.950   3.792  0.8499  0.6144 -0.1156
  178SAPS  C21420342   4.593   7.946   3.581  0.3826  0.8620  0.0411
  178SAPS  H14R20343   4.583   7.873   3.500 -0.9358 -0.3469  1.2627
  178SAPS  C21520344   4.543   8.070   3.558  0.3297  0.2022 -0.0894
  178SAPS  H15R20345   4.498   8.091   3.460 -0.5063 -0.6330  0.0978
  178SAPS  C21620346   4.544   8.183   3.658  0.4582 -1.0022 -0.1914
  178SAPS  H16R20347   4.571   8.274   3.601 -0.5844 -0.0720  0.7725
  178SAPS  H16S20348   4.631   8.177   3.726  1.0796  0.3104 -0.8381
  178SAPS  C21720349   4.408   8.203   3.737 -0.5978  0.0595  0.0448
  178SAPS  H17R20350   4.327   8.147   3.685  0.7085 -0.0238 -1.9651
  178SAPS  H17S20351   4.374   8.309   3.731 -0.8517 -0.0365 -0.2603
  178SAPS  C21820352   4.417   8.166   3.885  0.0004 -0.9272  0.6048
  178SAPS  H18R20353   4.500   8.223   3.931 -0.5742 -0.0171  0.5404
  178SAPS  H18S20354   4.430   8.056   3.890 -0.9085 -1.0466  0.4045
  178SAPS  C21920355   4.299   8.215   3.976 -0.1738  0.4817  0.2552
  178SAPS  H19R20356   4.206   8.159   3.949 -0.5972  1.2443  0.1108
  178SAPS  H19S20357   4.293   8.323   3.949  3.5047  0.7638  0.3329
  178SAPS  C22020358   4.315   8.197   4.126 -0.1758 -0.1587 -0.1543
  178SAPS  H20R20359   4.312   8.091   4.158  3.3739  0.0667  1.1664
  178SAPS  H20S20360   4.244   8.262   4.183 -0.1580  1.0458 -1.4842
  178SAPS  H20T20361   4.414   8.236   4.158 -1.0895  1.9432  0.2128
  178SAPS   C3320362   4.593   7.458   2.917  0.7362 -0.1185 -0.0121
  178SAPS   H3X20363   4.569   7.359   2.872  1.5447 -0.4564  0.2875
  178SAPS   H3Y20364   4.494   7.486   2.959 -0.0565  0.3612 -2.1091
  178SAPS   C3420365   4.685   7.436   3.039  0.3743 -0.7983  0.4763
  178SAPS   H4X20366   4.633   7.503   3.110  1.2492  0.4240 -0.0245
  178SAPS   H4Y20367   4.786   7.478   3.022  0.3326 -0.2988  1.4906
  178SAPS   C3520368   4.701   7.286   3.092  0.0178 -1.2409  0.2354
  178SAPS   H5X20369   4.774   7.243   3.021  1.6686  0.1511  1.0705
  178SAPS   H5Y20370   4.603   7.234   3.083 -0.7533  0.0066  1.1665
  178SAPS   C3620371   4.763   7.285   3.225  0.5795 -0.3502  0.3493
  178SAPS   H6X20372   4.693   7.325   3.300 -2.0121 -0.2653 -2.0198
  178SAPS   H6Y20373   4.853   7.350   3.223  0.6168 -0.3709  1.1754
  178SAPS   C3720374   4.813   7.149   3.265  0.2207 -0.2680  0.4824
  178SAPS   H7X20375   4.879   7.113   3.184 -1.4766 -1.4570 -0.3973
  178SAPS   H7Y20376   4.726   7.079   3.274 -0.8690  1.0924  0.6254
  178SAPS   C3820377   4.904   7.164   3.390  0.5924 -0.8603 -0.0747
  178SAPS   H8X20378   4.987   7.234   3.366 -0.0109 -0.4066 -0.8594
  178SAPS   H8Y20379   4.941   7.062   3.412  2.2554 -0.4211 -0.7512
  178SAPS   C3920380   4.832   7.211   3.521  0.2125 -0.7142 -0.8676
  178SAPS   H9X20381   4.731   7.167   3.531 -0.8125  1.7402 -0.1213
  178SAPS   H9Y20382   4.802   7.318   3.521 -1.0060 -1.0555 -0.6904
  178SAPS  C31020383   4.916   7.188   3.649  0.0542  0.1514  0.4202
  178SAPS  H10X20384   5.013   7.241   3.659 -0.2975  0.4352  2.7454
  178SAPS  H10Y20385   4.939   7.079   3.651 -1.4360 -0.1646  1.3858
  178SAPS  C31120386   4.839   7.228   3.779 -0.3454  0.3002 -0.1061
  178SAPS  H11X20387   4.732   7.218   3.754  0.4627  2.0857 -4.7493
  178SAPS  H11Y20388   4.861   7.335   3.803 -0.3639 -0.1157  1.8894
  178SAPS  C31220389   4.866   7.144   3.905 -0.3999  0.2919 -0.4297
  178SAPS  H12X20390   4.864   7.038   3.874 -3.7907 -0.0950  0.9332
  178SAPS  H12Y20391   4.789   7.154   3.985 -0.8431 -1.2300 -0.6618
  178SAPS  C31320392   5.006   7.171   3.967 -0.5851 -0.0397 -0.4220
  178SAPS  H13X20393   5.016   7.268   4.020 -2.5749  1.0848 -2.0103
  178SAPS  H13Y20394   5.088   7.164   3.892  2.3109  1.3606  2.5081
  178SAPS  C31420395   5.037   7.066   4.065  0.0462 -0.6292  0.0526
  178SAPS  H14X20396   5.013   6.969   4.017 -3.2220  1.7698 -3.4087
  178SAPS  H14Y20397   4.958   7.070   4.143 -1.0710 -1.4913 -1.0183
  178SAPS  C31520398   5.180   7.087   4.128  0.3695  0.1217 -0.1028
  178SAPS  H15X20399   5.185   7.190   4.169 -1.6281  0.3297 -0.3357
  178SAPS  H15Y20400   5.245   7.077   4.039  2.1631  0.8129  1.1038
  178SAPS  C31620401   5.218   6.985   4.229  0.1198  0.1076  0.8648
  178SAPS  H16X20402   5.166   6.996   4.326 -3.9040  1.2834 -1.3068
  178SAPS  H16Y20403   5.326   6.999   4.249  1.3135 -2.5268 -3.1097
  178SAPS  C31720404   5.194   6.841   4.183 -0.3801 -0.3472 -0.0491
  178SAPS  H17X20405   5.253   6.802   4.097  1.8745  1.4629  0.6143
  178SAPS  H17Y20406   5.087   6.829   4.159 -0.6930  1.4987  0.3437
  178SAPS  C31820407   5.230   6.743   4.298  0.5587 -0.0232  0.0326
  178SAPS  H18X20408   5.191   6.643   4.266 -3.2812  1.7244 -1.1200
  178SAPS  H18Y20409   5.179   6.772   4.393 -2.4310 -2.4586 -0.7249
  178SAPS  H18Z20410   5.340   6.731   4.303  0.5464 -0.0786  0.1541
  179SAPS     N20411   0.590   1.202   2.141 -0.0228 -0.3609  0.0996
  179SAPS   HN120412   0.547   1.203   2.236  0.3938 -2.0993  0.3164
  179SAPS   HN220413   0.684   1.159   2.142 -0.7320 -1.9323  0.1788
  179SAPS   HN320414   0.598   1.293   2.091 -1.5304  0.0099  0.5110
  179SAPS   C1220415   0.504   1.117   2.049 -0.2432  0.6332  0.4543
  179SAPS  H12A20416   0.405   1.154   2.027 -0.8823 -0.5931  1.1828
  179SAPS   C1320417   0.570   1.101   1.914  0.1597 -0.1892  0.3470
  179SAPS  O13A20418   0.654   1.189   1.876  0.5586  0.1208  0.2859
  179SAPS  O13B20419   0.531   1.018   1.831  0.0338  0.1525  0.1554
  179SAPS   C1120420   0.487   0.975   2.114 -0.0879 -0.5186 -0.0755
  179SAPS  H11A20421   0.587   0.926   2.116  0.0795 -0.2011 -0.4600
  179SAPS  H11B20422   0.433   0.910   2.042  2.2828 -3.3777  0.6327
  179SAPS     P20423   0.411   0.843   2.331 -0.2509 -0.1854  0.1798
  179SAPS   O1320424   0.273   0.838   2.379  0.3510 -0.2079  0.0764
  179SAPS   O1420425   0.456   0.723   2.251 -0.2679  0.3969  0.5327
  179SAPS   O1220426   0.425   0.978   2.240  0.1929 -0.5086 -0.0863
  179SAPS   O1120427   0.502   0.882   2.449 -0.7603 -0.2530 -0.1565
  179SAPS    C120428   0.644   0.890   2.434 -0.0843  0.6500  1.1039
  179SAPS    HA20429   0.685   0.790   2.411  0.4806  1.1726 -0.1854
  179SAPS    HB20430   0.666   0.963   2.353 -0.9152  0.1736  0.4420
  179SAPS    C220431   0.704   0.946   2.567 -0.5464 -0.1140 -0.5957
  179SAPS    HS20432   0.814   0.926   2.573 -0.8447 -1.3313  1.4585
  179SAPS   O2120433   0.636   0.887   2.677 -0.0615  0.3359 -0.8819
  179SAPS   C2120434   0.635   0.757   2.687 -0.2188  0.7609 -0.1749
  179SAPS   O2220435   0.728   0.686   2.650  0.0982  0.1719  0.7082
  179SAPS   C2220436   0.511   0.706   2.761 -0.0151 -0.7229 -0.5881
  179SAPS   H2R20437   0.427   0.747   2.701  1.3731 -0.1159 -2.1819
  179SAPS   H2S20438   0.521   0.596   2.749  2.1258 -0.6260  0.0737
  179SAPS    C320439   0.681   1.092   2.566  0.4690  0.5509  0.3727
  179SAPS    HX20440   0.573   1.103   2.542  0.7794 -1.1324 -2.0027
  179SAPS    HY20441   0.738   1.133   2.479  0.7190 -0.7943 -0.1088
  179SAPS   O3120442   0.724   1.160   2.685 -0.1811 -0.2767  0.3793
  179SAPS   C3120443   0.778   1.278   2.687  0.1566  0.3868  0.0263
  179SAPS   O3220444   0.798   1.350   2.590  0.7570 -0.0896  0.1835
  179SAPS   C3220445   0.807   1.325   2.832 -0.1761 -0.1819  0.3832
  179SAPS   H2X20446   0.712   1.355   2.881 -0.5464  0.9160 -0.9557
  179SAPS   H2Y20447   0.867   1.418   2.823 -2.6014  1.3231 -0.9059
  179SAPS   C2320448   0.506   0.759   2.910 -0.0830  0.3321  0.2549
  179SAPS   H3R20449   0.415   0.710   2.950  0.6281 -1.8612 -0.7464
  179SAPS   H3S20450   0.493   0.869   2.912 -1.4114  0.1991  0.0025
  179SAPS   C2420451   0.633   0.704   3.000  0.0101 -0.4559  0.3555
  179SAPS   H4R20452   0.624   0.742   3.105  1.9403  0.0132  0.3651
  179SAPS   H4S20453   0.718   0.753   2.948  0.2530  0.9073  1.9751
  179SAPS   C2520454   0.633   0.546   3.001  0.2374 -0.6114 -0.1171
  179SAPS   H5R20455   0.670   0.503   2.907 -1.4326 -2.5406  0.0750
  179SAPS   C2620456   0.597   0.461   3.099  1.0473 -0.0199 -0.5737
  179SAPS   H6R20457   0.588   0.354   3.076  0.5766 -0.2380  0.5774
  179SAPS   C2720458   0.544   0.510   3.229 -0.7730  0.5262 -0.4582
  179SAPS   H7R20459   0.576   0.616   3.235  2.4933 -0.5262  1.7775
  179SAPS   H7S20460   0.600   0.461   3.312  1.1254  1.7569 -0.9827
  179SAPS   C2820461   0.394   0.500   3.242 -0.2783  0.7026 -0.9198
  179SAPS   H8R20462   0.357   0.399   3.219  3.0330 -0.5021 -1.2002
  179SAPS   C2920463   0.315   0.591   3.301  0.6068  0.9665 -0.2215
  179SAPS   H9R20464   0.205   0.583   3.304  0.6305  0.4419 -0.6365
  179SAPS  C21020465   0.349   0.718   3.365  0.4982 -0.3103  0.5978
  179SAPS  H10R20466   0.253   0.772   3.360  3.0060  4.3816  0.6848
  179SAPS  H10S20467   0.420   0.784   3.311 -0.4146 -0.5121 -0.8630
  179SAPS  C21120468   0.392   0.722   3.506 -0.6554 -0.0627  0.0561
  179SAPS  H11R20469   0.498   0.744   3.527 -0.3482  0.9400 -2.3391
  179SAPS  C21220470   0.321   0.697   3.613 -0.3099 -0.4032  0.0910
  179SAPS  H12R20471   0.372   0.714   3.709  0.8322 -2.7059 -0.0533
  179SAPS  C21320472   0.175   0.655   3.607  0.5313 -0.2210 -0.0982
  179SAPS  H13R20473   0.167   0.544   3.607 -1.3811 -0.1091 -0.5860
  179SAPS  H13S20474   0.130   0.674   3.507 -0.7769 -0.9049  0.3478
  179SAPS  C21420475   0.091   0.714   3.718  0.9284  0.1420  0.0313
  179SAPS  H14R20476   0.119   0.666   3.813 -1.3859  0.5833  0.9582
  179SAPS  C21520477  -0.006   0.808   3.722 -0.0284 -0.1508  0.2486
  179SAPS  H15R20478  -0.054   0.827   3.819  3.0735  1.0627  1.5977
  179SAPS  C21620479  -0.054   0.892   3.607  0.5794 -0.1575 -0.0403
  179SAPS  H16R20480   0.036   0.930   3.554 -0.7372  2.5638 -0.4385
  179SAPS  H16S20481  -0.107   0.982   3.647  0.7020 -0.3247  0.4931
  179SAPS  C21720482  -0.147   0.808   3.502  0.3453 -0.5820  0.1666
  179SAPS  H17R20483  -0.229   0.766   3.564  0.6410  0.4847  1.3036
  179SAPS  H17S20484  -0.079   0.730   3.462  0.4337 -0.4920  0.1406
  179SAPS  C21820485  -0.195   0.899   3.390  1.0669 -0.2397  0.2919
  179SAPS  H18R20486  -0.117   0.917   3.314  1.4895 -0.3667  0.6905
  179SAPS  H18S20487  -0.226   0.998   3.431  0.4523 -0.2280 -0.1946
  179SAPS  C21920488  -0.314   0.842   3.315 -0.5003  0.5561 -0.3808
  179SAPS  H19R20489  -0.389   0.855   3.396  0.6574 -0.0227  0.7998
  179SAPS  H19S20490  -0.295   0.738   3.282  0.6181  0.8809 -0.7987
  179SAPS  C22020491  -0.364   0.926   3.203 -0.5437  0.6303  0.8517
  179SAPS  H20R20492  -0.312   0.896   3.109  1.4532  0.8732  1.8525
  179SAPS  H20S20493  -0.330   1.031   3.219  1.2482  0.1749  0.1234
  179SAPS  H20T20494  -0.473   0.908   3.186 -0.1666  0.4751 -1.5419
  179SAPS   C3320495   0.863   1.216   2.929 -0.5511 -0.2031 -1.1488
  179SAPS   H3X20496   0.970   1.213   2.898 -0.6361  0.9405 -1.5617
  179SAPS   H3Y20497   0.810   1.120   2.911 -0.8815 -0.3014  0.3070
  179SAPS   C3420498   0.863   1.257   3.076  0.7412  0.6208 -0.6400
  179SAPS   H4X20499   0.768   1.307   3.106  0.8986  0.9477 -0.6762
  179SAPS   H4Y20500   0.948   1.326   3.098  0.4568  0.0609  2.4355
  179SAPS   C3520501   0.887   1.136   3.171  0.7558 -0.0500  0.2024
  179SAPS   H5X20502   0.988   1.093   3.153  0.2551 -0.8522 -0.7238
  179SAPS   H5Y20503   0.810   1.057   3.161 -1.5594  2.2883 -1.0319
  179SAPS   C3620504   0.867   1.160   3.319 -0.2617 -1.2093 -0.4122
  179SAPS   H6X20505   0.875   1.062   3.369  2.0010 -0.5715  0.5322
  179SAPS   H6Y20506   0.771   1.211   3.341  0.9671  0.1266  1.9401
  179SAPS   C3720507   0.972   1.249   3.396 -0.0923  0.2439 -0.7697
  179SAPS   H7X20508   0.966   1.355   3.362 -2.3829  0.3177 -0.2328
  179SAPS   H7Y20509   1.075   1.208   3.383  0.4177  1.8291 -1.8638
  179SAPS   C3820510   0.946   1.255   3.553 -0.2496 -0.0921  0.0775
  179SAPS   H8X20511   0.982   1.162   3.602  1.2714 -0.6796 -2.0665
  179SAPS   H8Y20512   0.839   1.278   3.571 -0.0212  1.7642 -0.7873
  179SAPS   C3920513   1.017   1.370   3.626  0.0018 -0.1409 -0.2211
  179SAPS   H9X20514   0.979   1.468   3.592 -5.0127 -1.5266  1.0706
  179SAPS   H9Y20515   1.123   1.365   3.593  0.2471 -1.1824  0.6772
  179SAPS  C31020516   1.012   1.361   3.778 -0.0372 -0.0433  0.4841
  179SAPS  H10X20517   1.092   1.423   3.823  0.9953  1.3588 -3.0864
  179SAPS  H10Y20518   1.015   1.256   3.816 -2.1058  0.5394  2.3738
  179SAPS  C31120519   0.871   1.407   3.826 -0.0939  0.0519 -0.1280
  179SAPS  H11X20520   0.798   1.339   3.778 -1.4610  1.3998 -0.0118
  179SAPS  H11Y20521   0.861   1.513   3.794  1.3962  0.5200  0.8863
  179SAPS  C31220522   0.862   1.407   3.981  0.2234  0.2921 -0.2746
  179SAPS  H12X20523   0.924   1.489   4.023  1.4652  0.6334 -2.7042
  179SAPS  H12Y20524   0.894   1.306   4.014 -0.8809  0.2513  0.7116
  179SAPS  C31320525   0.727   1.426   4.044  0.2418 -0.2192  0.4738
  179SAPS  H13X20526   0.658   1.372   3.976  1.3671 -0.9724 -0.0832
  179SAPS  H13Y20527   0.702   1.533   4.056  0.5477 -0.0048 -0.8009
  179SAPS  C31420528   0.721   1.376   4.193  0.4688 -0.0672  0.0572
  179SAPS  H14X20529   0.787   1.432   4.263  0.2836 -0.7384  0.7748
  179SAPS  H14Y20530   0.756   1.270   4.193 -0.4659 -0.3793 -1.0211
  179SAPS  C31520531   0.577   1.381   4.253 -0.1387 -1.0520  0.5214
  179SAPS  H15X20532   0.540   1.486   4.242  1.7232 -0.4105  0.2358
  179SAPS  H15Y20533   0.582   1.359   4.361  0.3215 -0.3925  0.6412
  179SAPS  C31620534   0.486   1.284   4.183  1.1575  0.2373 -0.0353
  179SAPS  H16X20535   0.519   1.182   4.214  0.8890  0.0788 -0.2615
  179SAPS  H16Y20536   0.494   1.299   4.073  0.2329 -2.7527 -0.5644
  179SAPS  C31720537   0.340   1.315   4.203 -0.2198 -0.6078  0.2849
  179SAPS  H17X20538   0.284   1.243   4.140 -1.3028  0.5295 -0.0794
  179SAPS  H17Y20539   0.323   1.418   4.165 -1.3094  0.0810  2.5345
  179SAPS  C31820540   0.311   1.300   4.353 -0.2565  0.1247 -0.3813
  179SAPS  H18X20541   0.359   1.367   4.428  0.7867  2.3279 -2.9435
  179SAPS  H18Y20542   0.327   1.195   4.383  1.1737  0.2429 -0.7326
  179SAPS  H18Z20543   0.201   1.314   4.361 -0.1704  1.3413 -1.1681
  180SAPS     N20544   7.136   6.795   1.951 -0.1519  0.3775 -0.2256
  180SAPS   HN120545   7.053   6.733   1.956 -0.7701  1.3703  2.1389
  180SAPS   HN220546   7.188   6.765   1.865  0.1772  0.6490 -0.1231
  180SAPS   HN320547   7.191   6.785   2.038  0.7408 -1.2276 -0.9436
  180SAPS   C1220548   7.110   6.936   1.929  0.6855 -0.4848 -0.5599
  180SAPS  H12A20549   7.196   6.977   1.878 -0.2941 -0.2215 -2.0153
  180SAPS   C1320550   6.991   6.957   1.822  0.6029 -0.1023  0.3298
  180SAPS  O13A20551   6.944   6.861   1.753  0.1912  0.1782  0.6751
  180SAPS  O13B20552   6.966   7.074   1.789  0.1115  0.5680  0.3099
  180SAPS   C1120553   7.079   7.006   2.062 -0.1398  0.0144 -0.6377
  180SAPS  H11A20554   6.981   6.963   2.093  0.7192 -2.0489 -0.7104
  180SAPS  H11B20555   7.068   7.116   2.061 -0.7593 -0.0491 -0.8915
  180SAPS     P20556   7.152   6.903   2.299  0.0105  0.4080 -0.2604
  180SAPS   O1320557   7.011   6.862   2.302  0.1046 -0.4050  0.1928
  180SAPS   O1420558   7.251   6.797   2.315 -0.5564  0.5057  0.4165
  180SAPS   O1220559   7.186   6.970   2.157  0.2051  0.5313 -0.3230
  180SAPS   O1120560   7.177   7.016   2.400 -0.1973 -0.2439 -0.7082
  180SAPS    C120561   7.106   7.135   2.416 -0.0258  0.9996  0.7627
  180SAPS    HA20562   7.189   7.207   2.404  1.8721 -1.2493  0.0164
  180SAPS    HB20563   7.036   7.156   2.333 -1.0560  0.1642  1.3970
  180SAPS    C220564   7.039   7.145   2.555  0.3738  0.0298 -0.1124
  180SAPS    HS20565   7.031   7.254   2.576 -2.2049  0.0393 -1.0012
  180SAPS   O2120566   7.115   7.091   2.662  0.0418  0.1985 -0.1273
  180SAPS   C2120567   7.232   7.155   2.675 -0.4642 -0.8676  0.3976
  180SAPS   O2220568   7.254   7.266   2.632 -0.5134  0.4410 -0.3717
  180SAPS   C2220569   7.323   7.071   2.769  0.1926 -0.0420 -0.1597
  180SAPS   H2R20570   7.340   6.971   2.725  0.9947 -0.2275  0.5592
  180SAPS   H2S20571   7.419   7.127   2.770  1.0282 -1.4021  3.0732
  180SAPS    C320572   6.906   7.076   2.559 -0.5009  0.2111 -0.4514
  180SAPS    HX20573   6.924   6.976   2.514 -1.1723  0.8113 -2.0907
  180SAPS    HY20574   6.837   7.126   2.487 -1.1803 -1.7079 -1.1529
  180SAPS   O3120575   6.843   7.070   2.687 -0.6567  0.1479  0.0770
  180SAPS   C3120576   6.803   7.184   2.727 -0.0300 -0.2111  0.2141
  180SAPS   O3220577   6.830   7.297   2.676 -0.4332  0.2474  0.6795
  180SAPS   C3220578   6.707   7.164   2.848 -0.0902 -0.7241  0.8325
  180SAPS   H2X20579   6.657   7.065   2.847 -1.3385 -0.0901 -0.5316
  180SAPS   H2Y20580   6.624   7.237   2.836  0.0333 -0.7760 -0.4231
  180SAPS   C2320581   7.259   7.042   2.911  0.7053 -0.3877  0.2567
  180SAPS   H3R20582   7.331   6.985   2.974  1.6981 -0.6254 -1.0853
  180SAPS   H3S20583   7.172   6.974   2.895  0.5865 -0.5673  1.6121
  180SAPS   C2420584   7.211   7.163   2.984  1.2184  0.3883  0.5015
  180SAPS   H4R20585   7.140   7.216   2.916 -0.9920 -1.6047  1.1855
  180SAPS   H4S20586   7.289   7.237   3.012  0.3843  1.7380 -0.6492
  180SAPS   C2520587   7.126   7.124   3.105  0.1320  0.8420  0.0923
  180SAPS   H5R20588   7.025   7.085   3.083  0.0598  1.3797 -0.5582
  180SAPS   C2620589   7.168   7.146   3.236 -0.2801 -0.1802  0.4396
  180SAPS   H6R20590   7.103   7.099   3.310  0.6921  0.1120  1.5019
  180SAPS   C2720591   7.291   7.206   3.296 -0.7113  0.5056 -0.0527
  180SAPS   H7R20592   7.256   7.290   3.360  0.7609  2.8964 -2.2308
  180SAPS   H7S20593   7.355   7.256   3.220 -1.7145  0.0034 -1.2412
  180SAPS   C2820594   7.366   7.096   3.361  0.0592 -0.1186  0.7006
  180SAPS   H8R20595   7.433   7.042   3.292  0.6082 -0.0308  1.1526
  180SAPS   C2920596   7.366   7.060   3.492 -0.0225  0.6060  0.0626
  180SAPS   H9R20597   7.413   6.964   3.518 -0.8529  0.0978 -0.2860
  180SAPS  C21020598   7.294   7.120   3.601  0.8009 -0.8375 -0.2343
  180SAPS  H10R20599   7.303   7.230   3.588  3.5723 -1.2512 -2.1189
  180SAPS  H10S20600   7.344   7.102   3.699 -1.9863 -1.7886  1.0649
  180SAPS  C21120601   7.153   7.063   3.610 -0.5905  0.3231  0.1555
  180SAPS  H11R20602   7.074   7.116   3.555  0.5706 -0.2940 -2.1501
  180SAPS  C21220603   7.120   6.942   3.669 -0.2213  0.2928  0.0241
  180SAPS  H12R20604   7.012   6.921   3.672  0.1537 -1.7571  0.2338
  180SAPS  C21320605   7.211   6.844   3.732 -0.0242  0.0031  0.3248
  180SAPS  H13R20606   7.234   6.877   3.836  0.9372 -0.6222  0.3257
  180SAPS  H13S20607   7.312   6.850   3.686 -0.3791 -0.0927 -0.4652
  180SAPS  C21420608   7.156   6.702   3.729  0.2677  0.1031 -0.6649
  180SAPS  H14R20609   7.158   6.650   3.632  0.1110  0.0553 -0.6426
  180SAPS  C21520610   7.122   6.630   3.838 -0.2617  0.5544  0.4038
  180SAPS  H15R20611   7.104   6.523   3.821 -1.3574  0.8538 -0.2915
  180SAPS  C21620612   7.128   6.658   3.983  0.0027 -0.7459 -0.1558
  180SAPS  H16R20613   7.101   6.765   4.001  1.4713 -0.5495  0.9233
  180SAPS  H16S20614   7.232   6.665   4.021  0.0943  1.5492 -0.7677
  180SAPS  C21720615   7.025   6.591   4.085 -0.2977  0.0621  0.1864
  180SAPS  H17R20616   7.050   6.625   4.188 -1.1994  0.6291  0.2236
  180SAPS  H17S20617   7.035   6.480   4.085 -2.9225 -0.2054  0.3193
  180SAPS  C21820618   6.877   6.623   4.054  0.0510  0.7275 -0.6110
  180SAPS  H18R20619   6.837   6.603   3.952 -0.9060  1.2658 -0.3567
  180SAPS  H18S20620   6.869   6.732   4.076  0.0124  1.0846 -2.3355
  180SAPS  C21920621   6.778   6.552   4.152  0.1413 -0.4431 -0.1247
  180SAPS  H19R20622   6.696   6.626   4.159 -0.3421 -0.7998 -1.7546
  180SAPS  H19S20623   6.820   6.552   4.255 -0.5291 -1.4031  0.1635
  180SAPS  C22020624   6.715   6.414   4.104 -0.7095 -0.3561 -0.3975
  180SAPS  H20R20625   6.635   6.382   4.174  0.4058  0.0138  1.0695
  180SAPS  H20S20626   6.678   6.424   4.000 -0.4024 -1.4210 -0.6120
  180SAPS  H20T20627   6.797   6.340   4.092 -0.1642  0.5151 -2.0896
  180SAPS   C3320628   6.779   7.196   2.978 -0.2173 -0.1313  0.1662
  180SAPS   H3X20629   6.833   7.292   2.972 -1.0350  0.3431  0.4041
  180SAPS   H3Y20630   6.844   7.109   3.002  1.0584  0.6825 -0.2802
  180SAPS   C3420631   6.673   7.203   3.090  0.2361  0.6811  0.5154
  180SAPS   H4X20632   6.613   7.110   3.081 -0.4631  0.8309  2.9996
  180SAPS   H4Y20633   6.600   7.285   3.071  0.6751  1.0699  0.4997
  180SAPS   C3520634   6.732   7.204   3.230 -0.8024 -0.1530  0.2720
  180SAPS   H5X20635   6.796   7.295   3.232 -0.8411 -0.1532  2.0872
  180SAPS   H5Y20636   6.803   7.120   3.246 -1.0161 -0.4510 -0.3340
  180SAPS   C3620637   6.631   7.222   3.343  0.0627  0.2221  0.3099
  180SAPS   H6X20638   6.587   7.120   3.349 -0.6724  0.4827 -0.4077
  180SAPS   H6Y20639   6.542   7.282   3.314 -1.0714 -1.4474  0.1970
  180SAPS   C3720640   6.705   7.264   3.469 -0.5769  0.2413  0.1051
  180SAPS   H7X20641   6.637   7.304   3.548 -0.5008  0.0539  0.2676
  180SAPS   H7Y20642   6.772   7.348   3.442  1.7622 -1.8945 -0.8321
  180SAPS   C3820643   6.775   7.143   3.543 -0.1972  0.2798  0.3488
  180SAPS   H8X20644   6.866   7.117   3.486  0.5489  1.9144  0.7500
  180SAPS   H8Y20645   6.708   7.054   3.542 -2.3573  1.8415 -1.9471
  180SAPS   C3920646   6.810   7.172   3.681  0.0956 -0.1270  0.1697
  180SAPS   H9X20647   6.869   7.090   3.728  0.9054  0.2546 -0.1568
  180SAPS   H9Y20648   6.718   7.178   3.742  0.1272  0.3012  0.1772
  180SAPS  C31020649   6.874   7.312   3.706 -0.2561  0.1763 -0.0544
  180SAPS  H10X20650   6.791   7.386   3.706  0.3272  0.8517 -0.9630
  180SAPS  H10Y20651   6.942   7.345   3.624  1.5841 -1.8243  0.6522
  180SAPS  C31120652   6.935   7.321   3.846  0.4075  0.7952  0.5601
  180SAPS  H11X20653   7.029   7.262   3.850  1.1739  2.1256  3.4565
  180SAPS  H11Y20654   6.861   7.272   3.913  1.4784 -0.1333  1.0716
  180SAPS  C31220655   6.947   7.472   3.885 -0.1786  0.0583  0.3451
  180SAPS  H12X20656   6.846   7.518   3.881  0.3730  1.2795  0.2728
  180SAPS  H12Y20657   7.009   7.532   3.814  0.0131 -2.7881 -2.0003
  180SAPS  C31320658   7.010   7.485   4.026 -0.1048  0.4938  0.3871
  180SAPS  H13X20659   7.119   7.467   4.035 -0.2239 -0.7261 -0.5064
  180SAPS  H13Y20660   6.976   7.405   4.095 -0.4819 -0.5393 -0.9748
  180SAPS  C31420661   6.984   7.616   4.105 -0.3919 -0.4135 -0.3070
  180SAPS  H14X20662   6.874   7.624   4.108 -0.3004  0.9705 -0.6392
  180SAPS  H14Y20663   7.017   7.706   4.049  0.8401 -1.3477 -1.1092
  180SAPS  C31520664   7.031   7.626   4.254 -0.0784  0.2459  0.5837
  180SAPS  H15X20665   7.119   7.693   4.264 -1.3044  1.9084  0.3145
  180SAPS  H15Y20666   7.058   7.522   4.285  0.1077 -0.2166 -1.0322
  180SAPS  C31620667   6.920   7.666   4.352 -0.0603  0.2375  0.0816
  180SAPS  H16X20668   6.956   7.648   4.455 -1.9234 -0.6544  0.6041
  180SAPS  H16Y20669   6.832   7.598   4.354 -1.0708  1.4808 -1.3469
  180SAPS  C31720670   6.878   7.811   4.343  0.1713  0.0877 -0.5789
  180SAPS  H17X20671   6.831   7.833   4.245 -0.5094 -0.4861 -0.3882
  180SAPS  H17Y20672   6.968   7.876   4.353  0.1708 -0.3220  2.5748
  180SAPS  C31820673   6.771   7.839   4.447 -0.1941 -0.1709  0.0326
  180SAPS  H18X20674   6.722   7.937   4.432  0.9611  0.4368  0.1570
  180SAPS  H18Y20675   6.813   7.841   4.550  0.8086 -1.8183 -0.3164
  180SAPS  H18Z20676   6.692   7.761   4.447  1.2808 -1.7192 -0.5495
  181POPC     N20677   5.866   3.056   5.863 -0.3609  0.0428 -0.1181
  181POPC   C1220678   5.905   2.930   5.945 -0.7302 -0.1952  0.0118
  181POPC  H12A20679   5.981   2.955   6.017  0.2696  0.3054 -1.2056
  181POPC  H12B20680   5.962   2.866   5.880  0.3373  0.9726 -0.2090
  181POPC   C1320681   5.805   3.010   5.738 -0.2642 -0.2966 -0.4807
  181POPC  H13A20682   5.880   2.960   5.679  0.0013  1.5991 -1.8223
  181POPC  H13B20683   5.728   2.935   5.744  1.8237 -2.5836 -1.4712
  181POPC  H13C20684   5.768   3.094   5.681 -1.8122 -0.5420  0.1364
  181POPC   C1420685   5.760   3.141   5.941  0.3029  0.3358  0.9239
  181POPC  H14A20686   5.682   3.076   5.977 -0.8316  0.3044 -1.5450
  181POPC  H14B20687   5.806   3.177   6.032 -0.3709  2.6558  0.3757
  181POPC  H14C20688   5.722   3.225   5.886  1.5055  0.0768 -0.3446
  181POPC   C1520689   5.992   3.138   5.838 -0.8294 -0.0837 -0.0130
  181POPC  H15A20690   5.972   3.226   5.778 -0.1908  0.9025  1.2093
  181POPC  H15B20691   6.057   3.079   5.776  0.5018  2.0519 -0.6885
  181POPC  H15C20692   6.025   3.174   5.934 -1.8653  0.2878  0.2158
  181POPC   C1120693   5.788   2.852   6.016  0.8308 -0.2150 -0.8754
  181POPC  H11A20694   5.741   2.929   6.082  0.8654  0.1237 -1.2404
  181POPC  H11B20695   5.835   2.770   6.074  0.2429  0.0990  0.0626
  181POPC     P20696   5.551   2.784   5.947  0.4537 -0.3815  0.1162
  181POPC   O1320697   5.481   2.733   5.828 -0.5014  0.9844  0.4425
  181POPC   O1420698   5.507   2.910   6.001 -0.5623 -0.7225  0.5199
  181POPC   O1220699   5.704   2.786   5.916 -0.7698 -0.1018 -0.1100
  181POPC   O1120700   5.534   2.675   6.064 -0.3356 -0.2207  0.1517
  181POPC    C120701   5.594   2.545   6.065  0.0954  0.6182  0.1524
  181POPC    HA20702   5.640   2.521   6.164  1.3369  1.5829 -0.1910
  181POPC    HB20703   5.682   2.544   5.998  1.1976 -1.0844  1.5768
  181POPC    C220704   5.495   2.433   6.018  0.7778 -0.4119  0.3773
  181POPC    HS20705   5.551   2.338   6.010  2.5180  0.3966  2.6348
  181POPC   O2120706   5.430   2.456   5.889 -0.4531 -0.3224 -0.0704
  181POPC   C2120707   5.500   2.449   5.784  0.1387  0.3515  0.0137
  181POPC   O2220708   5.619   2.421   5.774  0.0123 -0.7990 -0.5774
  181POPC   C2220709   5.399   2.470   5.665 -0.4683 -0.5707  0.5108
  181POPC   H2R20710   5.421   2.574   5.633  1.1583 -1.1786 -0.3901
  181POPC   H2S20711   5.295   2.465   5.704  0.0780  1.1274  2.2868
  181POPC    C320712   5.393   2.428   6.136  0.1445 -0.0347  0.0804
  181POPC    HX20713   5.368   2.536   6.142  2.2520  0.5657 -1.7048
  181POPC    HY20714   5.442   2.385   6.227  1.1066  1.7536  0.4116
  181POPC   O3120715   5.279   2.354   6.100 -0.1956  0.4118 -0.5514
  181POPC   C3120716   5.171   2.419   6.055 -0.0271 -0.1753 -0.4016
  181POPC   O3220717   5.154   2.541   6.050  0.1127  0.0086 -0.5706
  181POPC   C3220718   5.073   2.311   5.999 -0.1098 -0.3304 -0.6057
  181POPC   H2X20719   5.015   2.271   6.085  0.7569 -1.4804 -0.5294
  181POPC   H2Y20720   5.126   2.225   5.952 -0.6493 -1.2948  0.5271
  181POPC   C2320721   5.436   2.372   5.554  0.4756 -0.2758 -0.8523
  181POPC   H3R20722   5.418   2.265   5.578 -0.0063  0.3970  2.0594
  181POPC   H3S20723   5.543   2.373   5.523 -0.0184  0.2501 -2.5722
  181POPC   C2420724   5.342   2.401   5.432  0.3288 -0.1792  0.5439
  181POPC   H4R20725   5.380   2.491   5.378 -0.1321 -1.5259 -2.1460
  181POPC   H4S20726   5.239   2.407   5.472 -0.0619 -0.0527 -0.4532
  181POPC   C2520727   5.347   2.283   5.330 -0.4160  0.2697  0.2277
  181POPC   H5R20728   5.300   2.196   5.380 -1.2721  0.8230  0.3929
  181POPC   H5S20729   5.455   2.259   5.319 -0.8589 -1.4607 -0.4300
  181POPC   C2620730   5.290   2.339   5.195  0.5343 -0.0336 -0.5495
  181POPC   H6R20731   5.314   2.261   5.119 -0.1117 -1.0912  0.3161
  181POPC   H6S20732   5.349   2.430   5.171  0.9937  0.6641  3.0543
  181POPC   C2720733   5.140   2.370   5.184 -0.8926  0.0854 -0.0996
  181POPC   H7R20734   5.133   2.466   5.239 -0.3730 -0.3289  0.6960
  181POPC   H7S20735   5.085   2.294   5.244 -0.0734 -1.2647 -1.0302
  181POPC   C2820736   5.067   2.381   5.044  0.5696  0.2791  0.5591
  181POPC   H8R20737   5.129   2.462   5.001  0.8005  0.9491  2.1015
  181POPC   H8S20738   4.970   2.436   5.048  2.2528  3.3685  0.3875
  181POPC   C2920739   5.062   2.243   4.984  0.3649 -0.3558  0.2307
  181POPC   H9120740   5.015   2.162   5.043  1.2460 -0.2915  1.0408
  181POPC  C21020741   5.131   2.211   4.869  0.0512 -0.1456 -0.8596
  181POPC  H10120742   5.135   2.108   4.830  0.6110 -0.2173 -0.6150
  181POPC  C21120743   5.217   2.299   4.783  0.5020 -0.4145  0.4627
  181POPC  H11R20744   5.321   2.261   4.789  0.9653  1.1509  2.9775
  181POPC  H11S20745   5.228   2.402   4.823  2.4671  0.1126 -1.3330
  181POPC  C21220746   5.164   2.315   4.634  0.2396 -0.4720 -0.5414
  181POPC  H12R20747   5.060   2.353   4.630  0.6122  0.4294 -1.7396
  181POPC  H12S20748   5.184   2.224   4.573 -2.1789 -0.6893 -1.0607
  181POPC  C21320749   5.252   2.423   4.557  0.5464  0.0013 -0.1153
  181POPC  H13R20750   5.362   2.409   4.557  0.7182  1.0755  3.2074
  181POPC  H13S20751   5.250   2.526   4.598 -0.1955  0.6405 -1.6943
  181POPC  C21420752   5.214   2.436   4.406  0.1788  0.1272  0.1287
  181POPC  H14R20753   5.107   2.465   4.412 -0.2222 -1.7041  3.2426
  181POPC  H14S20754   5.229   2.337   4.358 -0.8898  0.7429 -1.5550
  181POPC  C21520755   5.268   2.556   4.335  0.6919 -0.2446  0.3308
  181POPC  H15R20756   5.269   2.544   4.225  0.8965  1.8046  0.0850
  181POPC  H15S20757   5.373   2.563   4.372  0.8262 -1.7200  0.2459
  181POPC  C21620758   5.199   2.681   4.376  0.9073 -0.2374 -0.0626
  181POPC  H16R20759   5.162   2.664   4.479 -1.2292  0.8773 -0.6163
  181POPC  H16S20760   5.109   2.693   4.312  0.1899  2.1395  1.3225
  181POPC  C21720761   5.285   2.808   4.368  0.3274 -0.2076  0.5772
  181POPC  H17R20762   5.290   2.850   4.266 -0.8562  1.0175  1.0111
  181POPC  H17S20763   5.387   2.789   4.408 -0.1548 -0.9817  1.4547
  181POPC  C21820764   5.215   2.902   4.459 -0.0246 -0.0761 -0.8121
  181POPC  H18R20765   5.106   2.887   4.448 -0.1064 -0.6921  0.7199
  181POPC  H18S20766   5.252   3.006   4.450  0.1658  0.0315  0.9788
  181POPC  H18T20767   5.229   2.885   4.568  0.4547  0.1869 -0.8304
  181POPC   C3320768   4.972   2.369   5.898 -0.0681  0.9187  0.5210
  181POPC   H3X20769   5.027   2.440   5.833  1.1401  0.5416  1.1161
  181POPC   H3Y20770   4.891   2.428   5.945 -0.5531  0.1884  0.6161
  181POPC   C3420771   4.913   2.259   5.806 -0.8405  0.8983 -0.3132
  181POPC   H4X20772   4.803   2.274   5.802 -1.4924 -3.1735  0.1756
  181POPC   H4Y20773   4.938   2.156   5.840 -1.3380  0.6643 -0.6424
  181POPC   C3520774   4.956   2.272   5.663  0.3418  0.3790  0.7663
  181POPC   H5X20775   5.066   2.265   5.653  0.2856  0.2754  0.1846
  181POPC   H5Y20776   4.919   2.373   5.634 -2.0120 -0.7905 -0.5151
  181POPC   C3620777   4.886   2.172   5.567  0.0641  0.4033 -0.3462
  181POPC   H6X20778   4.890   2.081   5.631 -0.3086  0.0236 -0.8573
  181POPC   H6Y20779   4.954   2.163   5.479  0.8867 -0.3756  0.3626
  181POPC   C3720780   4.750   2.218   5.523  0.8505  0.1919 -0.2620
  181POPC   H7X20781   4.737   2.328   5.523  0.2541  0.1254  0.4506
  181POPC   H7Y20782   4.668   2.187   5.592  0.3255  1.2800 -0.3829
  181POPC   C3820783   4.703   2.157   5.384  0.0101  0.4558  0.0931
  181POPC   H8X20784   4.798   2.151   5.327 -0.1961  1.6476 -0.3895
  181POPC   H8Y20785   4.638   2.228   5.328  0.6004 -0.5789 -1.9654
  181POPC   C3920786   4.642   2.015   5.389 -0.2427 -0.3856  0.1588
  181POPC   H9X20787   4.536   2.024   5.421 -0.3808  1.5397 -0.8040
  181POPC   H9Y20788   4.693   1.959   5.470  0.2656 -0.4876 -0.2251
  181POPC  C31020789   4.665   1.936   5.262  0.2655  0.3505 -0.2037
  181POPC  H10X20790   4.640   1.830   5.283 -0.3331  0.4802 -0.2548
  181POPC  H10Y20791   4.771   1.951   5.231  0.3129  0.5991  0.0743
  181POPC  C31120792   4.573   1.990   5.149 -0.1284 -0.8524  0.1605
  181POPC  H11X20793   4.592   2.097   5.128  1.8529 -0.9280  1.3773
  181POPC  H11Y20794   4.483   1.981   5.214  0.2990  1.8720  1.2120
  181POPC  C31220795   4.575   1.905   5.019  0.4762 -0.5040 -0.5337
  181POPC  H12X20796   4.478   1.916   4.966 -0.4931  0.2621  1.3405
  181POPC  H12Y20797   4.576   1.805   5.066  0.9130 -0.6847 -0.9153
  181POPC  C31320798   4.697   1.924   4.925 -0.2012 -0.0212 -0.7666
  181POPC  H13X20799   4.700   1.844   4.847  1.9843 -0.6663 -0.0528
  181POPC  H13Y20800   4.789   1.914   4.986 -0.3927 -0.4042 -0.5385
  181POPC  C31420801   4.698   2.059   4.851 -0.6839 -0.1147 -0.0411
  181POPC  H14X20802   4.794   2.055   4.794 -0.7978 -2.5725 -0.0882
  181POPC  H14Y20803   4.689   2.142   4.925 -2.6979 -1.0738  0.8120
  181POPC  C31520804   4.584   2.078   4.748 -1.0350  0.5555 -0.4563
  181POPC  H15X20805   4.495   2.108   4.807 -0.1147 -0.5802  1.5564
  181POPC  H15Y20806   4.555   1.976   4.715  0.3692 -0.3438  1.0107
  181POPC  C31620807   4.620   2.170   4.641 -0.4659 -0.2250  0.3025
  181POPC  H16X20808   4.663   2.263   4.684  0.4600 -1.2779  1.6787
  181POPC  H16Y20809   4.537   2.195   4.571 -0.5884 -1.7813 -0.1099
  181POPC  H16Z20810   4.699   2.130   4.574  0.7843  2.5367  0.0547
  182POPC     N20811   3.071   1.618   6.448 -0.6399 -0.6068  0.1616
  182POPC   C1220812   3.022   1.675   6.314  0.3022  0.2567 -0.2725
  182POPC  H12A20813   3.048   1.780   6.315  0.7686  0.1411  0.6269
  182POPC  H12B20814   2.914   1.673   6.324  0.4413  0.5730  1.3872
  182POPC   C1320815   2.984   1.498   6.479 -0.1099  0.1148  0.0368
  182POPC  H13A20816   2.886   1.531   6.511  1.1071  1.7456  2.2394
  182POPC  H13B20817   2.968   1.432   6.395 -1.5736  1.0836 -0.4714
  182POPC  H13C20818   3.017   1.440   6.564  0.3374 -1.3053 -1.0862
  182POPC   C1420819   3.212   1.562   6.432 -0.5454 -1.2493 -0.4215
  182POPC  H14A20820   3.232   1.489   6.355 -0.1795 -2.1562  0.5281
  182POPC  H14B20821   3.280   1.646   6.421 -1.6703 -0.0166  1.7269
  182POPC  H14C20822   3.239   1.509   6.521  0.6444  0.5610  0.3244
  182POPC   C1520823   3.065   1.717   6.560  0.1501 -0.1308  0.2872
  182POPC  H15A20824   3.128   1.803   6.542 -1.3852  0.6969 -1.3117
  182POPC  H15B20825   3.099   1.676   6.654 -2.0922  1.3485  1.7686
  182POPC  H15C20826   2.970   1.767   6.572  0.4276  0.4290  0.1747
  182POPC   C1120827   3.055   1.606   6.174  0.4235  0.0990  0.8110
  182POPC  H11A20828   3.165   1.600   6.160  0.0316 -1.0044 -2.3353
  182POPC  H11B20829   3.018   1.675   6.094 -0.3529  0.1436  1.2087
  182POPC     P20830   3.054   1.343   6.169  0.0705  0.2019  0.1045
  182POPC   O1320831   2.964   1.259   6.260  0.0195 -0.4356 -0.6149
  182POPC   O1420832   3.193   1.347   6.217 -0.0273  0.0039 -0.0508
  182POPC   O1220833   2.984   1.483   6.162  0.1118  0.2323  0.0892
  182POPC   O1120834   3.044   1.295   6.017 -0.4261 -1.0044  0.1352
  182POPC    C120835   3.138   1.364   5.930  0.2720 -0.7403 -0.3484
  182POPC    HA20836   3.242   1.328   5.943  0.7352  0.9098  0.6501
  182POPC    HB20837   3.143   1.474   5.944  0.2047 -0.6449 -1.0500
  182POPC    C220838   3.099   1.346   5.781 -0.4256 -0.2404 -0.7429
  182POPC    HS20839   3.174   1.405   5.723  1.7644 -1.8815  0.3468
  182POPC   O2120840   2.959   1.374   5.750 -0.4728 -0.1014 -0.1392
  182POPC   C2120841   2.926   1.498   5.756 -0.1900 -0.0874  0.1147
  182POPC   O2220842   3.000   1.590   5.788  0.0172  0.2433 -0.0060
  182POPC   C2220843   2.783   1.513   5.713  0.1752 -0.6574  0.2430
  182POPC   H2R20844   2.743   1.610   5.748  0.1238 -0.7301  0.3871
  182POPC   H2S20845   2.722   1.435   5.764 -0.2883  0.0330  0.7468
  182POPC    C320846   3.120   1.195   5.745 -0.0670 -0.5554  0.3223
  182POPC    HX20847   3.046   1.149   5.814 -2.6007 -0.5736 -2.2891
  182POPC    HY20848   3.221   1.157   5.770 -0.3208 -1.7629 -0.4649
  182POPC   O3120849   3.091   1.171   5.606  0.4819 -0.6087  0.0390
  182POPC   C3120850   2.982   1.087   5.585 -0.1906  0.6627 -0.8968
  182POPC   O3220851   2.915   1.039   5.675 -0.0459  0.3051 -0.9544
  182POPC   C3220852   2.962   1.062   5.444  0.5286 -0.0280 -0.0446
  182POPC   H2X20853   2.859   1.022   5.428  1.2048 -0.9557 -2.2493
  182POPC   H2Y20854   3.035   0.986   5.411  3.1645  1.8322  1.3157
  182POPC   C2320855   2.765   1.501   5.556 -0.1624 -0.2034  0.3757
  182POPC   H3R20856   2.655   1.491   5.542 -0.3061  1.0194  0.6022
  182POPC   H3S20857   2.811   1.410   5.513 -1.0303 -0.4444 -0.0607
  182POPC   C2420858   2.803   1.632   5.491 -1.1426  0.4282  0.0480
  182POPC   H4R20859   2.908   1.657   5.518 -0.7547  1.7997 -2.4793
  182POPC   H4S20860   2.751   1.722   5.531 -2.6694  0.5948 -2.1849
  182POPC   C2520861   2.785   1.620   5.341  0.6242  0.4654  0.1491
  182POPC   H5R20862   2.686   1.573   5.322  0.4448  1.6381 -1.9787
  182POPC   H5S20863   2.845   1.541   5.290  1.5893  0.8210  0.7184
  182POPC   C2620864   2.807   1.741   5.246 -0.5717  0.0806  0.4959
  182POPC   H6R20865   2.912   1.777   5.252 -0.2785 -0.9321  1.5020
  182POPC   H6S20866   2.741   1.824   5.280 -1.7836 -0.1713 -1.1497
  182POPC   C2720867   2.784   1.708   5.097  0.3194 -0.0414  0.1043
  182POPC   H7R20868   2.677   1.678   5.107 -0.1146  0.8915 -1.5856
  182POPC   H7S20869   2.854   1.628   5.064  0.6321 -0.7505  2.3622
  182POPC   C2820870   2.824   1.827   5.001  0.6984 -0.2328 -0.2975
  182POPC   H8R20871   2.825   1.784   4.898  2.3740  1.7043 -1.1103
  182POPC   H8S20872   2.929   1.858   5.020  0.6451  0.1631 -0.6443
  182POPC   C2920873   2.725   1.946   5.020  0.7572  0.9679 -0.2956
  182POPC   H9120874   2.692   1.958   5.125  0.4646  0.4494 -0.3235
  182POPC  C21020875   2.695   2.033   4.926 -0.6857 -0.3773  1.0830
  182POPC  H10120876   2.620   2.111   4.948 -0.4853  0.3656 -0.7894
  182POPC  C21120877   2.753   2.033   4.788  0.1121  0.3590  0.8139
  182POPC  H11R20878   2.695   1.961   4.726  1.3164 -0.0566  0.1297
  182POPC  H11S20879   2.860   2.003   4.790 -0.6981 -2.8524 -0.6958
  182POPC  C21220880   2.741   2.165   4.714 -0.5094  0.2714  0.3209
  182POPC  H12R20881   2.783   2.256   4.764  2.2310 -1.8141  1.9648
  182POPC  H12S20882   2.634   2.191   4.701 -0.1957  2.2102  1.3738
  182POPC  C21320883   2.801   2.152   4.572 -0.2798  0.3775 -1.1899
  182POPC  H13R20884   2.769   2.056   4.525  0.1665 -0.7876  0.8165
  182POPC  H13S20885   2.911   2.139   4.573 -0.2981  0.2513 -0.7969
  182POPC  C21420886   2.762   2.269   4.477 -0.2380 -0.1712 -0.5337
  182POPC  H14R20887   2.804   2.359   4.527 -2.0117 -0.6765  1.9366
  182POPC  H14S20888   2.652   2.288   4.478 -0.4150 -1.2147 -0.4060
  182POPC  C21520889   2.811   2.253   4.333 -0.1014 -0.3975  0.0747
  182POPC  H15R20890   2.795   2.349   4.279  0.3409 -1.2382 -1.5980
  182POPC  H15S20891   2.747   2.183   4.275  1.4733 -2.0709  0.3134
  182POPC  C21620892   2.965   2.224   4.320 -0.2219  0.6080  0.8075
  182POPC  H16R20893   2.999   2.127   4.362  0.5491  1.3026  1.8008
  182POPC  H16S20894   3.008   2.310   4.376  3.8522 -0.3285 -0.7047
  182POPC  C21720895   3.008   2.236   4.171 -0.3099 -0.3761  0.1396
  182POPC  H17R20896   2.980   2.333   4.125 -0.0053 -0.0580  0.6092
  182POPC  H17S20897   2.953   2.162   4.110 -1.4740  0.1264  0.5696
  182POPC  C21820898   3.154   2.201   4.156 -0.0244  0.1956  0.0482
  182POPC  H18R20899   3.181   2.111   4.216 -0.8089 -0.8346 -1.1131
  182POPC  H18S20900   3.214   2.285   4.197  1.3158 -0.4950 -0.4553
  182POPC  H18T20901   3.185   2.188   4.050  0.1637 -2.0402  0.3528
  182POPC   C3320902   2.987   1.186   5.347  0.0974  0.6757 -0.1504
  182POPC   H3X20903   3.097   1.205   5.347  0.3187 -0.5934  0.0141
  182POPC   H3Y20904   2.937   1.280   5.381 -2.5505 -0.6366 -0.3506
  182POPC   C3420905   2.961   1.157   5.196  0.1337 -0.1687 -0.2575
  182POPC   H4X20906   2.854   1.126   5.197 -0.3665  1.5061 -0.2061
  182POPC   H4Y20907   3.028   1.076   5.161 -0.2554 -0.2813 -0.7466
  182POPC   C3520908   2.995   1.275   5.108  0.8309 -0.1160 -0.8349
  182POPC   H5X20909   3.100   1.307   5.124 -0.3718  2.0994  3.0623
  182POPC   H5Y20910   2.931   1.361   5.135  0.5069 -0.1828 -1.3691
  182POPC   C3620911   2.982   1.252   4.961 -0.0057  0.0778  0.8704
  182POPC   H6X20912   2.876   1.225   4.943  0.0574  1.6735 -2.1914
  182POPC   H6Y20913   3.047   1.173   4.916 -0.5175  0.8559 -1.2528
  182POPC   C3720914   2.989   1.383   4.882  0.3671 -0.7803 -0.1875
  182POPC   H7X20915   3.088   1.428   4.905  0.9249 -2.0039 -0.1310
  182POPC   H7Y20916   2.906   1.449   4.916  1.3752  0.0433  0.7149
  182POPC   C3820917   2.980   1.353   4.729  0.1112  0.2324 -0.3390
  182POPC   H8X20918   2.924   1.434   4.677  1.3056  2.0379  1.1316
  182POPC   H8Y20919   2.936   1.252   4.717 -0.3088 -0.0938  3.4785
  182POPC   C3920920   3.124   1.348   4.667 -0.9214 -0.2940 -0.4656
  182POPC   H9X20921   3.184   1.261   4.702  0.2430 -0.0126 -1.7139
  182POPC   H9Y20922   3.184   1.437   4.697 -0.4158 -0.4779 -0.9222
  182POPC  C31020923   3.107   1.348   4.516  0.2421  0.0818  0.1126
  182POPC  H10X20924   3.039   1.431   4.488 -0.2941 -0.0296  1.0487
  182POPC  H10Y20925   3.053   1.253   4.496  1.3351 -1.1070  2.5660
  182POPC  C31120926   3.237   1.342   4.442  0.7334  0.0340  1.1095
  182POPC  H11X20927   3.287   1.245   4.465 -1.4942 -0.5155  3.7624
  182POPC  H11Y20928   3.306   1.418   4.486 -0.3545  2.2467 -0.8913
  182POPC  C31220929   3.239   1.354   4.295 -0.0780 -0.4828 -0.1353
  182POPC  H12X20930   3.338   1.401   4.276 -0.8896  1.6055  0.7230
  182POPC  H12Y20931   3.161   1.431   4.276 -0.2693 -0.4293  0.8488
  182POPC  C31320932   3.228   1.230   4.197  0.3107  0.0942 -0.4256
  182POPC  H13X20933   3.271   1.153   4.264 -1.3856  0.9219  1.6676
  182POPC  H13Y20934   3.285   1.244   4.102 -0.6721  0.4882 -0.9608
  182POPC  C31420935   3.080   1.196   4.169  0.1735  1.0004 -0.1677
  182POPC  H14X20936   3.051   1.241   4.072  0.6426  0.2364 -0.6698
  182POPC  H14Y20937   3.018   1.234   4.253 -0.8304 -2.2442  0.6216
  182POPC  C31520938   3.041   1.048   4.185 -0.5367 -0.6275  0.6160
  182POPC  H15X20939   3.089   0.984   4.109  2.1923  2.1637 -0.1276
  182POPC  H15Y20940   2.935   1.043   4.150 -0.6015 -2.2185  1.0181
  182POPC  C31620941   3.059   0.981   4.321  0.1078 -0.2941  0.7113
  182POPC  H16X20942   3.166   0.975   4.349  0.2140  0.4393  0.4687
  182POPC  H16Y20943   3.012   0.880   4.332 -0.0920 -0.1881  0.8343
  182POPC  H16Z20944   3.015   1.034   4.408 -0.4849 -0.4523  0.5144
  183POPC     N20945   3.496   7.160   6.469  0.1017  0.0812 -0.5117
  183POPC   C1220946   3.546   7.182   6.330 -0.7748  0.2393  0.4652
  183POPC  H12A20947   3.550   7.084   6.284  0.9427  0.8810 -0.8329
  183POPC  H12B20948   3.647   7.214   6.352 -0.5060 -0.1172 -0.2318
  183POPC   C1320949   3.356   7.104   6.476 -0.0106 -0.5617 -0.0365
  183POPC  H13A20950   3.277   7.163   6.432 -1.4747 -1.0180  1.9214
  183POPC  H13B20951   3.367   7.007   6.430  1.0912 -0.2014 -0.5525
  183POPC  H13C20952   3.341   7.081   6.581 -0.2339 -0.4721 -0.0488
  183POPC   C1420953   3.594   7.069   6.548 -0.3878 -0.5372  0.3215
  183POPC  H14A20954   3.698   7.085   6.524 -0.1455 -1.1172  0.9703
  183POPC  H14B20955   3.576   7.078   6.654  1.3891 -1.8955  0.7583
  183POPC  H14C20956   3.577   6.967   6.518 -2.8902  0.1932 -0.9399
  183POPC   C1520957   3.483   7.296   6.539  0.1509  0.3220 -0.2458
  183POPC  H15A20958   3.456   7.285   6.643  2.1908  1.2744  0.4126
  183POPC  H15B20959   3.407   7.344   6.479 -1.5926 -1.3149  0.5903
  183POPC  H15C20960   3.576   7.351   6.535  0.9167 -0.9836 -0.7195
  183POPC   C1120961   3.465   7.279   6.239  0.4831  0.2651 -0.1819
  183POPC  H11A20962   3.523   7.296   6.145  2.3981 -0.5798  0.8020
  183POPC  H11B20963   3.466   7.385   6.271  1.3831  0.1890  0.0800
  183POPC     P20964   3.300   7.139   6.098  0.0087 -0.3619  0.2560
  183POPC   O1320965   3.255   7.225   5.990 -0.0054 -0.3718 -0.4245
  183POPC   O1420966   3.220   7.026   6.142 -0.2587  0.1571 -0.7148
  183POPC   O1220967   3.333   7.226   6.220  1.0326  0.0044 -0.3099
  183POPC   O1120968   3.443   7.080   6.059 -0.0037  0.6685 -0.1795
  183POPC    C120969   3.449   6.972   5.961 -0.4297  0.1256 -0.8943
  183POPC    HA20970   3.348   6.940   5.929 -1.2672  1.5992  0.1911
  183POPC    HB20971   3.494   6.883   6.009 -3.3045  0.6142  2.8850
  183POPC    C220972   3.529   7.003   5.833 -0.2049 -0.1984 -0.4449
  183POPC    HS20973   3.638   7.011   5.852 -0.2463  0.2619 -0.3972
  183POPC   O2120974   3.461   7.117   5.770 -0.7366  0.4075 -0.0941
  183POPC   C2120975   3.517   7.231   5.805  0.1310 -0.0893  0.2423
  183POPC   O2220976   3.619   7.241   5.877  0.4552 -0.3399 -0.4080
  183POPC   C2220977   3.444   7.347   5.735  0.5625  0.4867 -0.6295
  183POPC   H2R20978   3.421   7.435   5.798 -1.8221 -1.4620  1.3520
  183POPC   H2S20979   3.353   7.307   5.684  1.7297 -0.6110 -1.9188
  183POPC    C320980   3.523   6.890   5.731  0.4476  0.0998 -0.0075
  183POPC    HX20981   3.417   6.870   5.708  0.8894 -0.7100 -1.3982
  183POPC    HY20982   3.566   6.799   5.778  1.8178 -0.0932 -1.5767
  183POPC   O3120983   3.598   6.923   5.611  0.5417  0.0485 -0.1837
  183POPC   C3120984   3.619   6.821   5.530  0.1656 -0.7173  0.0305
  183POPC   O3220985   3.575   6.707   5.544  0.2087 -0.5320  0.1260
  183POPC   C3220986   3.717   6.865   5.419 -0.0112  0.0088 -0.4863
  183POPC   H2X20987   3.748   6.970   5.433 -0.3906 -0.1042  1.2580
  183POPC   H2Y20988   3.658   6.860   5.325  0.5201 -0.0053 -0.8275
  183POPC   C2320989   3.539   7.406   5.629 -0.1743 -0.5714 -0.9169
  183POPC   H3R20990   3.645   7.421   5.661 -1.2202  2.1645  1.3993
  183POPC   H3S20991   3.505   7.503   5.588 -0.6831 -0.9095 -1.2997
  183POPC   C2420992   3.562   7.319   5.503 -0.1065  0.1753  0.3247
  183POPC   H4R20993   3.470   7.265   5.470  0.6768 -0.6900 -0.4835
  183POPC   H4S20994   3.635   7.244   5.540 -0.7591 -0.3540  0.5491
  183POPC   C2520995   3.615   7.392   5.376  0.0953 -0.2420  0.5438
  183POPC   H5R20996   3.705   7.451   5.405  0.0141  0.3272 -0.3519
  183POPC   H5S20997   3.531   7.461   5.354 -0.2960  0.0632  2.8089
  183POPC   C2620998   3.639   7.293   5.259 -0.3399 -0.4103 -0.1549
  183POPC   H6R20999   3.543   7.242   5.238 -0.2616 -0.4495 -0.4265
  183POPC   H6S21000   3.716   7.218   5.290  1.7781 -0.1303 -4.3266
  183POPC   C2721001   3.683   7.357   5.128 -0.1903 -0.3963  0.3759
  183POPC   H7R21002   3.783   7.407   5.129 -0.9810  1.3625 -2.1701
  183POPC   H7S21003   3.609   7.439   5.116 -0.5927 -0.7421  0.4937
  183POPC   C2821004   3.665   7.259   5.014 -0.6886  0.4103  0.6378
  183POPC   H8R21005   3.672   7.318   4.920 -1.3335  1.4434  1.2348
  183POPC   H8S21006   3.565   7.215   5.000 -0.2598 -0.1205 -0.8400
  183POPC   C2921007   3.784   7.166   5.024  0.2972 -0.5460  0.3410
  183POPC   H9121008   3.834   7.163   5.122  1.0302  0.8723  0.0251
  183POPC  C21021009   3.845   7.098   4.927 -0.0655  0.0592 -0.0179
  183POPC  H10121010   3.939   7.049   4.955  1.2605  1.6530 -1.5515
  183POPC  C21121011   3.821   7.087   4.785 -0.5132  0.2659 -0.4185
  183POPC  H11R21012   3.736   7.153   4.757 -0.9961 -0.8440 -1.6143
  183POPC  H11S21013   3.790   6.984   4.759 -0.3644 -0.5658  2.5721
  183POPC  C21221014   3.932   7.132   4.691  1.2783  0.7157 -0.7445
  183POPC  H12R21015   3.965   7.235   4.717  0.8035  0.7127 -0.1352
  183POPC  H12S21016   3.877   7.130   4.594 -0.3717 -0.4283  0.1903
  183POPC  C21321017   4.063   7.050   4.687  0.3375 -0.1771  0.5122
  183POPC  H13R21018   4.114   7.050   4.786 -0.3774 -0.0647  0.8835
  183POPC  H13S21019   4.131   7.088   4.608 -1.0362  1.1132 -0.0620
  183POPC  C21421020   4.046   6.904   4.666 -0.1482  0.0839 -0.0415
  183POPC  H14R21021   4.094   6.869   4.572 -0.9371  0.2107 -0.4977
  183POPC  H14S21022   3.937   6.898   4.645  0.4680 -2.0635 -2.9008
  183POPC  C21521023   4.087   6.816   4.788  0.1251  0.2891  0.5910
  183POPC  H15R21024   4.055   6.866   4.882  0.7614  0.9898  0.4447
  183POPC  H15S21025   4.195   6.792   4.790 -0.5965 -3.2036  0.3936
  183POPC  C21621026   4.016   6.682   4.778 -0.2835  0.5033 -0.1988
  183POPC  H16R21027   4.063   6.613   4.851 -2.2854 -0.5866  0.1026
  183POPC  H16S21028   4.039   6.645   4.676  0.7309  2.5429 -0.7342
  183POPC  C21721029   3.870   6.674   4.808  0.2743  0.0255  0.3478
  183POPC  H17R21030   3.822   6.740   4.733  0.7875 -2.2109 -2.0444
  183POPC  H17S21031   3.855   6.711   4.912  1.4963  0.1384  0.4907
  183POPC  C21821032   3.804   6.538   4.781  0.3930 -0.5897 -0.5810
  183POPC  H18R21033   3.696   6.531   4.805  1.1298 -2.1864  2.4014
  183POPC  H18S21034   3.858   6.454   4.829  0.0508  0.4912  1.7386
  183POPC  H18T21035   3.814   6.527   4.670 -0.5069  0.3793 -0.7630
  183POPC   C3321036   3.839   6.781   5.405  0.1026 -0.4891 -0.5789
  183POPC   H3X21037   3.812   6.676   5.380  0.7713 -0.1951 -2.6277
  183POPC   H3Y21038   3.881   6.780   5.508 -1.0374  1.4279 -0.0735
  183POPC   C3421039   3.948   6.841   5.309  0.8183 -1.0451 -0.0653
  183POPC   H4X21040   3.973   6.936   5.361  1.4992 -1.3696  0.2127
  183POPC   H4Y21041   3.899   6.881   5.217 -0.1804  2.4009  1.8607
  183POPC   C3521042   4.080   6.761   5.287  0.3106 -0.2526 -0.2752
  183POPC   H5X21043   4.059   6.665   5.234 -0.0065 -0.2212 -0.2076
  183POPC   H5Y21044   4.126   6.728   5.382 -0.5502  0.4467  0.3873
  183POPC   C3621045   4.171   6.846   5.201  0.2292  0.5495  0.9326
  183POPC   H6X21046   4.117   6.941   5.180  0.9037  0.3904 -1.6377
  183POPC   H6Y21047   4.183   6.799   5.101  2.1676  3.1579 -0.1207
  183POPC   C3721048   4.317   6.874   5.249  0.3942  0.0393  0.3105
  183POPC   H7X21049   4.365   6.774   5.262 -2.0838 -1.0802  1.1719
  183POPC   H7Y21050   4.313   6.925   5.347  1.1909  2.0224 -0.6543
  183POPC   C3821051   4.386   6.971   5.156  0.1590 -0.0345  0.7435
  183POPC   H8X21052   4.495   6.963   5.175 -0.2042 -3.2883  1.7639
  183POPC   H8Y21053   4.366   7.073   5.194  1.6165 -0.0389  1.5357
  183POPC   C3921054   4.359   6.959   5.004 -0.0170 -0.5117  0.0340
  183POPC   H9X21055   4.260   6.999   4.972  0.2346  0.7240  0.7514
  183POPC   H9Y21056   4.386   6.859   4.964  0.1562 -1.4791  2.4882
  183POPC  C31021057   4.462   7.038   4.918  0.0217  0.7479 -0.1524
  183POPC  H10X21058   4.554   6.980   4.896 -0.1527 -0.1811  1.4555
  183POPC  H10Y21059   4.497   7.130   4.970  2.3248 -2.3646  4.1873
  183POPC  C31121060   4.401   7.073   4.776  0.0762 -0.0441 -0.3438
  183POPC  H11X21061   4.340   7.165   4.778 -1.4220 -1.0506  1.7842
  183POPC  H11Y21062   4.341   6.985   4.742 -0.6155  1.2031 -2.4492
  183POPC  C31221063   4.514   7.087   4.673  0.7148  0.1753 -0.0659
  183POPC  H12X21064   4.580   6.998   4.679 -1.2089 -1.1797  1.2888
  183POPC  H12Y21065   4.578   7.171   4.708  1.9681 -0.5842 -0.5030
  183POPC  C31321066   4.462   7.103   4.524  0.3372 -0.0933 -0.2521
  183POPC  H13X21067   4.383   7.180   4.513 -1.1282 -1.5786 -0.3611
  183POPC  H13Y21068   4.423   7.001   4.505  1.6014 -0.3448 -1.4906
  183POPC  C31421069   4.577   7.142   4.425 -0.7073  0.6051 -0.1795
  183POPC  H14X21070   4.645   7.054   4.425 -1.7405 -0.1978 -0.3846
  183POPC  H14Y21071   4.631   7.234   4.456  0.9041 -0.4937  0.3709
  183POPC  C31521072   4.515   7.154   4.285  0.6062  0.1902  0.3571
  183POPC  H15X21073   4.571   7.234   4.233 -0.2142  1.1407  0.9343
  183POPC  H15Y21074   4.410   7.187   4.296  1.1378  1.9645  0.1900
  183POPC  C31621075   4.513   7.027   4.204 -0.2437 -0.0463  0.3364
  183POPC  H16X21076   4.475   7.060   4.105  0.8947  1.2277  0.3151
  183POPC  H16Y21077   4.442   6.955   4.250 -0.1913 -1.4780 -1.7341
  183POPC  H16Z21078   4.615   6.985   4.196 -0.0382  0.5267 -0.1017
  184POPC     N21079   4.379   0.165   6.115  0.4519  0.2288  0.3297
  184POPC   C1221080   4.492   0.083   6.178  0.0360 -0.0223  0.1779
  184POPC  H12A21081   4.476  -0.023   6.165  1.5803 -0.1669 -0.7368
  184POPC  H12B21082   4.505   0.104   6.283  0.8615  0.3305  0.0095
  184POPC   C1321083   4.409   0.309   6.102 -0.3068 -0.0600  0.1267
  184POPC  H13A21084   4.466   0.336   6.014 -2.8359 -0.1022 -1.5507
  184POPC  H13B21085   4.323   0.374   6.111  0.3207  1.0017 -1.3043
  184POPC  H13C21086   4.484   0.335   6.175 -1.1987 -2.2581  1.8706
  184POPC   C1421087   4.342   0.111   5.982 -0.0750 -0.1053 -0.1559
  184POPC  H14A21088   4.350   0.004   5.972  0.5163 -0.1172  0.3996
  184POPC  H14B21089   4.242   0.142   5.958  0.7145  2.9454  0.2842
  184POPC  H14C21090   4.414   0.145   5.909  0.2754 -2.3724 -0.9171
  184POPC   C1521091   4.264   0.154   6.206 -0.3627  0.5240  0.0087
  184POPC  H15A21092   4.280   0.213   6.295  0.7020  0.1906  0.0467
  184POPC  H15B21093   4.256   0.049   6.229  1.6059  0.3458 -0.0167
  184POPC  H15C21094   4.177   0.185   6.151 -0.0549  0.8858 -0.2805
  184POPC   C1121095   4.624   0.093   6.108  0.4065 -0.0175 -0.0269
  184POPC  H11A21096   4.652   0.201   6.106 -0.2094  0.1404 -0.8722
  184POPC  H11B21097   4.621   0.068   6.000  0.1874 -1.9472  0.4236
  184POPC     P21098   4.739  -0.131   6.121 -0.1427  0.2969 -0.5262
  184POPC   O1321099   4.616  -0.187   6.059 -0.2989  0.0153  0.4783
  184POPC   O1421100   4.792  -0.207   6.238  0.1098  0.2717 -0.4128
  184POPC   O1221101   4.718   0.013   6.178  0.2700 -0.2223  0.9071
  184POPC   O1121102   4.847  -0.119   6.011 -0.0249 -0.0660  0.6693
  184POPC    C121103   4.965  -0.201   6.006 -0.8674  0.3948 -0.2151
  184POPC    HA21104   4.990  -0.235   5.903 -0.6946 -2.2142  0.6323
  184POPC    HB21105   4.964  -0.284   6.081  1.1611 -0.6551 -1.3227
  184POPC    C221106   5.087  -0.106   6.047 -0.4198 -0.2740  0.4238
  184POPC    HS21107   5.061  -0.047   6.137  0.9826  1.2597 -0.1401
  184POPC   O2121108   5.121  -0.028   5.930 -0.0301  0.0477  0.4114
  184POPC   C2121109   5.086   0.101   5.935 -0.4074  0.5069  0.5807
  184POPC   O2221110   5.035   0.158   6.027 -0.0965  0.0908 -0.6378
  184POPC   C2221111   5.120   0.161   5.797  0.0899 -0.0649  0.3269
  184POPC   H2R21112   5.176   0.079   5.748  1.5521  0.4582  1.0956
  184POPC   H2S21113   5.183   0.252   5.809  1.1501 -0.7790  0.1764
  184POPC    C321114   5.205  -0.201   6.086  0.0582  0.2620  0.2120
  184POPC    HX21115   5.173  -0.259   6.175 -0.2009  1.3995  0.8812
  184POPC    HY21116   5.298  -0.148   6.117  2.4197 -3.9488  0.5721
  184POPC   O3121117   5.229  -0.291   5.977  1.0657 -0.8705  0.1467
  184POPC   C3121118   5.332  -0.262   5.896  0.4240  0.5327 -0.3541
  184POPC   O3221119   5.416  -0.174   5.913 -0.0544 -0.0708 -0.0272
  184POPC   C3221120   5.343  -0.383   5.807 -0.0266  0.5191  0.3217
  184POPC   H2X21121   5.315  -0.475   5.863 -1.4363  0.6593 -0.1297
  184POPC   H2Y21122   5.451  -0.399   5.788  0.0812 -0.3472  1.5969
  184POPC   C2321123   4.986   0.197   5.727  0.3853  0.7747 -0.1108
  184POPC   H3R21124   5.000   0.239   5.626 -2.5477  0.1036 -0.8415
  184POPC   H3S21125   4.927   0.271   5.786  0.5322  0.9041 -0.1247
  184POPC   C2421126   4.901   0.078   5.715  0.3462  0.1371 -0.0559
  184POPC   H4R21127   4.872   0.032   5.811  2.7531 -1.6848 -0.1369
  184POPC   H4S21128   4.961  -0.001   5.663 -2.8335 -0.0060 -3.6929
  184POPC   C2521129   4.783   0.106   5.628  0.5138  0.0330 -0.4144
  184POPC   H5R21130   4.729   0.010   5.612 -0.4685  0.2733  1.3524
  184POPC   H5S21131   4.807   0.136   5.524 -0.2976  1.8484 -0.0909
  184POPC   C2621132   4.677   0.198   5.698  0.2310 -0.2430 -0.4563
  184POPC   H6R21133   4.710   0.304   5.699  0.7188 -0.3923 -0.9685
  184POPC   H6S21134   4.650   0.151   5.796  0.3988  2.4813  0.9472
  184POPC   C2721135   4.545   0.185   5.628  0.2110  0.2248  0.0045
  184POPC   H7R21136   4.491   0.095   5.664 -0.3930  1.5151  2.4293
  184POPC   H7S21137   4.548   0.175   5.517 -2.6604 -0.0663 -0.0813
  184POPC   C2821138   4.446   0.294   5.673 -1.2716  0.4776  0.0119
  184POPC   H8R21139   4.440   0.295   5.784 -0.1367 -0.7463  0.0980
  184POPC   H8S21140   4.352   0.268   5.619  0.1407  0.6312 -2.5998
  184POPC   C2921141   4.500   0.421   5.620  0.2067 -0.5805 -0.5192
  184POPC   H9121142   4.575   0.458   5.691 -1.1213  0.7878  0.2101
  184POPC  C21021143   4.495   0.464   5.494 -0.6258  0.8316  0.2343
  184POPC  H10121144   4.547   0.555   5.460 -0.9385  1.1956  0.7259
  184POPC  C21121145   4.435   0.394   5.372 -0.7978  0.3792 -0.1487
  184POPC  H11R21146   4.358   0.467   5.339  0.6100  0.8930 -2.4351
  184POPC  H11S21147   4.380   0.301   5.397 -0.3148 -0.1679 -1.1007
  184POPC  C21221148   4.532   0.371   5.264 -0.0338  0.3325  0.4367
  184POPC  H12R21149   4.491   0.294   5.195  1.4887 -0.0169 -0.0946
  184POPC  H12S21150   4.617   0.321   5.317 -0.8000  0.8550  2.1961
  184POPC  C21321151   4.582   0.491   5.187  0.6240  0.2034  0.2066
  184POPC  H13R21152   4.637   0.563   5.252 -1.3043  1.2533  0.7088
  184POPC  H13S21153   4.493   0.548   5.153  0.5013 -0.5613 -0.7538
  184POPC  C21421154   4.664   0.465   5.064  0.4276 -0.6762  0.5898
  184POPC  H14R21155   4.677   0.565   5.017  1.2442 -0.2890  1.6232
  184POPC  H14S21156   4.607   0.406   4.989 -1.2197  1.9793 -0.3100
  184POPC  C21521157   4.809   0.405   5.079 -0.0483 -0.2383  0.1905
  184POPC  H15R21158   4.795   0.303   5.120  2.1858 -0.1132  1.3551
  184POPC  H15S21159   4.872   0.458   5.154 -0.3357 -1.1506  1.0741
  184POPC  C21621160   4.874   0.385   4.940 -0.1900  0.4043 -0.2666
  184POPC  H16R21161   4.803   0.324   4.879 -1.2366  0.3916  0.9255
  184POPC  H16S21162   4.964   0.323   4.956  0.0581  0.8856  0.2433
  184POPC  C21721163   4.898   0.522   4.876 -0.1872  0.4522  0.0335
  184POPC  H17R21164   4.978   0.577   4.931  1.1369 -0.1603 -1.2464
  184POPC  H17S21165   4.806   0.583   4.886 -0.7825 -0.6557  1.6338
  184POPC  C21821166   4.932   0.523   4.727 -0.1823 -0.0772  0.4619
  184POPC  H18R21167   4.974   0.621   4.694 -0.0728  0.2459  1.5337
  184POPC  H18S21168   4.845   0.503   4.662 -2.6329  3.4007  2.4851
  184POPC  H18T21169   5.016   0.451   4.727  0.8672  1.1228 -0.5851
  184POPC   C3321170   5.241  -0.404   5.689  0.2991 -0.5793  0.7093
  184POPC   H3X21171   5.142  -0.416   5.737 -0.0173  1.6284  0.6692
  184POPC   H3Y21172   5.275  -0.494   5.632 -0.0598  1.1140 -2.2910
  184POPC   C3421173   5.223  -0.269   5.620 -0.1414  0.4066  0.1439
  184POPC   H4X21174   5.309  -0.234   5.559 -2.0814 -0.4204 -3.2158
  184POPC   H4Y21175   5.201  -0.187   5.692  3.5985  2.1870 -0.6127
  184POPC   C3521176   5.106  -0.257   5.524 -0.0792  0.4174 -0.6087
  184POPC   H5X21177   5.101  -0.157   5.477 -0.7763  1.5364  1.7701
  184POPC   H5Y21178   5.010  -0.289   5.570 -0.4116  0.1500 -1.4735
  184POPC   C3621179   5.119  -0.354   5.404  0.3104  0.6461  0.0147
  184POPC   H6X21180   5.148  -0.451   5.449 -2.6612 -0.9154 -1.2549
  184POPC   H6Y21181   5.194  -0.314   5.333 -0.0404  1.0795 -0.1113
  184POPC   C3721182   4.991  -0.367   5.320  0.3744  0.4294 -0.2757
  184POPC   H7X21183   4.948  -0.266   5.305 -0.6138 -0.1272 -1.3297
  184POPC   H7Y21184   4.924  -0.421   5.390 -0.0900  3.0593  1.3905
  184POPC   C3821185   5.013  -0.433   5.186  0.3257 -0.2323 -0.6691
  184POPC   H8X21186   5.088  -0.514   5.197 -1.2936 -2.0078 -2.1838
  184POPC   H8Y21187   5.052  -0.364   5.108  1.4817 -0.9521 -0.7414
  184POPC   C3921188   4.887  -0.495   5.121 -0.4266  0.0923 -0.0289
  184POPC   H9X21189   4.796  -0.430   5.121 -0.7711 -0.3310 -1.9437
  184POPC   H9Y21190   4.850  -0.583   5.177  0.8616 -0.7407 -0.4719
  184POPC  C31021191   4.921  -0.545   4.972  0.1693 -0.3150 -0.4260
  184POPC  H10X21192   4.980  -0.639   4.971  1.0872  0.1677  2.4952
  184POPC  H10Y21193   4.983  -0.470   4.919 -0.9055  1.9604  1.4195
  184POPC  C31121194   4.786  -0.563   4.895  0.5533 -0.1388 -0.0679
  184POPC  H11X21195   4.730  -0.468   4.899 -0.1558 -0.5784  0.5724
  184POPC  H11Y21196   4.730  -0.636   4.956  1.8461 -1.3974 -0.3413
  184POPC  C31221197   4.788  -0.610   4.748 -0.1746  0.7042  0.2779
  184POPC  H12X21198   4.683  -0.627   4.714  0.8410 -2.8502 -1.3074
  184POPC  H12Y21199   4.841  -0.706   4.733  3.1102  2.0627  2.7694
  184POPC  C31321200   4.846  -0.510   4.647  0.0316  0.2290 -0.5692
  184POPC  H13X21201   4.957  -0.517   4.655  0.2037 -0.4079 -3.3263
  184POPC  H13Y21202   4.815  -0.407   4.677 -0.4594 -0.3828  1.0728
  184POPC  C31421203   4.798  -0.540   4.502  0.0804 -0.5128  0.5354
  184POPC  H14X21204   4.827  -0.452   4.442  0.8203  0.0373  1.6822
  184POPC  H14Y21205   4.687  -0.534   4.508  0.0120 -1.4938  0.3234
  184POPC  C31521206   4.855  -0.675   4.452 -0.9702  0.3426  0.2750
  184POPC  H15X21207   4.830  -0.762   4.516  0.6459  2.1006  3.3998
  184POPC  H15Y21208   4.965  -0.664   4.454 -0.9175  0.7529 -2.4412
  184POPC  C31621209   4.812  -0.711   4.312  0.3785  0.7742 -0.0845
  184POPC  H16X21210   4.703  -0.724   4.299  0.7660  0.4339 -3.2333
  184POPC  H16Y21211   4.884  -0.788   4.276  0.5705  1.1133 -0.4207
  184POPC  H16Z21212   4.842  -0.626   4.248  0.1570 -0.2298 -1.5490
  185POPC     N21213   4.128   3.606   2.153  0.3277  0.4963 -0.0433
  185POPC   C1221214   4.121   3.694   2.272 -0.9096  0.2634  0.4577
  185POPC  H12A21215   4.024   3.676   2.317 -0.3529  1.1703  2.0829
  185POPC  H12B21216   4.124   3.798   2.244  2.0249 -0.3068 -1.5451
  185POPC   C1321217   4.247   3.632   2.073  0.1322 -1.2755 -0.2119
  185POPC  H13A21218   4.256   3.733   2.034  2.1505 -1.1733  0.4482
  185POPC  H13B21219   4.340   3.635   2.127 -0.4577  1.1054  0.7709
  185POPC  H13C21220   4.253   3.559   1.994 -0.2781 -2.6794  1.0507
  185POPC   C1421221   4.126   3.457   2.194  0.2430 -0.5813  0.1841
  185POPC  H14A21222   4.118   3.384   2.114 -1.1461 -0.5558  0.2884
  185POPC  H14B21223   4.209   3.429   2.257 -0.6243 -1.4942  0.9406
  185POPC  H14C21224   4.029   3.449   2.242 -0.3172  0.7105 -0.6881
  185POPC   C1521225   4.014   3.626   2.062 -0.0771 -0.4394 -0.1500
  185POPC  H15A21226   3.916   3.600   2.099 -0.7297  0.4467 -1.2202
  185POPC  H15B21227   4.026   3.562   1.977  0.9921  1.1313 -1.2100
  185POPC  H15C21228   3.993   3.725   2.024  2.6730 -0.3857 -1.6337
  185POPC   C1121229   4.218   3.671   2.394  0.6286 -0.4742  0.0297
  185POPC  H11A21230   4.210   3.767   2.450  2.2898 -1.3316  1.8109
  185POPC  H11B21231   4.320   3.656   2.353 -0.1582 -2.0696 -1.4009
  185POPC     P21232   4.037   3.536   2.531  0.0426 -0.0442 -0.0843
  185POPC   O1321233   3.928   3.561   2.429 -0.3743 -0.8157  0.3754
  185POPC   O1421234   4.032   3.618   2.655  0.2910 -0.3015 -0.3790
  185POPC   O1221235   4.180   3.553   2.471  0.4871  0.2700 -0.0368
  185POPC   O1121236   4.029   3.381   2.562 -0.1197  0.6305  0.0379
  185POPC    C121237   4.132   3.278   2.575 -0.3661 -1.0266 -0.1190
  185POPC    HA21238   4.169   3.280   2.680  1.1135 -0.1148 -0.6463
  185POPC    HB21239   4.216   3.297   2.505  1.6626 -2.0743  1.9586
  185POPC    C221240   4.086   3.138   2.543  0.3666 -0.0934  0.0175
  185POPC    HS21241   3.988   3.148   2.492 -0.1719 -3.5338  0.2921
  185POPC   O2121242   4.065   3.069   2.666 -0.1831  0.1138  0.3218
  185POPC   C2121243   3.983   2.965   2.675  0.8713  0.9232 -0.2164
  185POPC   O2221244   3.904   2.919   2.592  0.1108  0.0895  0.2870
  185POPC   C2221245   3.991   2.915   2.825 -0.3553 -0.1583  0.2130
  185POPC   H2R21246   3.914   2.958   2.893  0.4762 -0.8595  1.6053
  185POPC   H2S21247   4.098   2.929   2.847  1.2415 -3.6841 -4.4155
  185POPC    C321248   4.177   3.072   2.444 -0.0877 -0.0902  0.8673
  185POPC    HX21249   4.187   3.141   2.357  1.5998  0.1214  1.2131
  185POPC    HY21250   4.128   2.979   2.409 -1.4846  1.3542 -1.1229
  185POPC   O3121251   4.312   3.050   2.499 -0.5160 -0.0700 -0.3936
  185POPC   C3121252   4.326   2.946   2.577 -0.4956 -0.0923  0.0383
  185POPC   O3221253   4.243   2.857   2.597  0.2596  0.0275 -0.4227
  185POPC   C3221254   4.456   2.939   2.666 -0.5148 -0.5694 -0.3567
  185POPC   H2X21255   4.552   2.941   2.610 -1.1629  2.1090 -1.4694
  185POPC   H2Y21256   4.450   2.851   2.734 -0.0007 -0.3640 -0.0443
  185POPC   C2321257   3.976   2.763   2.825  0.3564 -0.3179 -0.3265
  185POPC   H3R21258   4.049   2.705   2.765  1.9675 -0.0802  1.3323
  185POPC   H3S21259   3.870   2.740   2.801 -0.6917  1.4537  2.3427
  185POPC   C2421260   3.997   2.711   2.972  1.1485 -0.5839 -0.1344
  185POPC   H4R21261   3.985   2.601   2.972 -2.9885 -0.2960  3.0729
  185POPC   H4S21262   3.937   2.764   3.049  0.2449 -0.1499 -1.1150
  185POPC   C2521263   4.143   2.736   3.023  0.8240 -0.1849 -0.0738
  185POPC   H5R21264   4.170   2.844   3.034 -2.3756  0.4182  2.9085
  185POPC   H5S21265   4.210   2.696   2.944  0.3376 -0.2996 -0.4273
  185POPC   C2621266   4.194   2.664   3.155  0.7171 -0.3325  0.5249
  185POPC   H6R21267   4.305   2.668   3.155  0.8348 -2.7770  0.6742
  185POPC   H6S21268   4.153   2.561   3.141 -2.6710  1.2157 -1.4980
  185POPC   C2721269   4.138   2.743   3.275 -0.9681  0.7011  0.0464
  185POPC   H7R21270   4.036   2.774   3.245 -0.6719  0.9612 -0.6873
  185POPC   H7S21271   4.202   2.832   3.288  1.6246 -0.8917 -1.4492
  185POPC   C2821272   4.109   2.658   3.399 -0.1578  0.0814 -0.1828
  185POPC   H8R21273   4.057   2.563   3.373  1.3034 -1.5366  2.5389
  185POPC   H8S21274   4.042   2.725   3.456 -1.1891 -0.2343 -1.0000
  185POPC   C2921275   4.224   2.628   3.486 -0.5077  0.6086  0.0898
  185POPC   H9121276   4.318   2.684   3.470 -0.6841 -0.3259 -5.4005
  185POPC  C21021277   4.228   2.542   3.587  0.1560  0.2533 -0.2695
  185POPC  H10121278   4.322   2.533   3.644  1.1430  0.7256 -1.7842
  185POPC  C21121279   4.120   2.451   3.641  0.2744 -0.0743 -0.1095
  185POPC  H11R21280   4.035   2.441   3.569  0.5381  0.7768 -0.5500
  185POPC  H11S21281   4.083   2.498   3.735  0.5747  0.8972 -0.4677
  185POPC  C21221282   4.180   2.313   3.668  0.3060  0.2148 -0.3510
  185POPC  H12R21283   4.228   2.301   3.768  0.0040 -1.9773 -0.4290
  185POPC  H12S21284   4.271   2.309   3.605 -0.2714  2.1479 -1.3444
  185POPC  C21321285   4.084   2.192   3.643  0.0900 -0.1770 -0.2481
  185POPC  H13R21286   4.026   2.203   3.548 -1.9539 -1.0938  0.8690
  185POPC  H13S21287   4.018   2.208   3.730 -1.2742 -0.5156 -1.1954
  185POPC  C21421288   4.149   2.055   3.664 -0.4091 -0.6746  0.7358
  185POPC  H14R21289   4.063   1.986   3.657 -0.5699 -0.2624 -2.0657
  185POPC  H14S21290   4.189   2.035   3.765  1.2387  0.0682  0.2477
  185POPC  C21521291   4.270   2.022   3.574  0.0732  0.1396  0.6472
  185POPC  H15R21292   4.313   1.921   3.584  2.9734  1.1533 -1.0559
  185POPC  H15S21293   4.350   2.097   3.589 -1.9710  2.4375  0.4736
  185POPC  C21621294   4.246   2.042   3.421  0.4476  0.9057  0.5438
  185POPC  H16R21295   4.333   2.038   3.352  0.5829 -1.0898  0.7889
  185POPC  H16S21296   4.216   2.148   3.411 -0.3718  0.3864 -3.1877
  185POPC  C21721297   4.132   1.957   3.363  0.5049  0.1738  0.4049
  185POPC  H17R21298   4.125   1.987   3.257  0.1714 -2.8785 -0.5040
  185POPC  H17S21299   4.036   1.982   3.411 -0.0090 -2.8526  1.0719
  185POPC  C21821300   4.149   1.806   3.370  0.0230 -0.8989  0.2690
  185POPC  H18R21301   4.126   1.774   3.474 -0.2343 -0.2466  0.4207
  185POPC  H18S21302   4.252   1.771   3.350  0.3933  0.6186 -0.5654
  185POPC  H18T21303   4.077   1.764   3.297  0.8590  1.2874 -1.8677
  185POPC   C3321304   4.468   3.064   2.754  0.2614  0.2560 -0.8305
  185POPC   H3X21305   4.439   3.158   2.703 -1.6454  1.4374  2.3175
  185POPC   H3Y21306   4.570   3.077   2.795 -0.1757 -0.3670  0.4825
  185POPC   C3421307   4.369   3.059   2.884 -0.0279  0.0829  0.1847
  185POPC   H4X21308   4.407   2.972   2.942 -1.2918 -1.3991 -1.1595
  185POPC   H4Y21309   4.271   3.041   2.835  0.2165  0.6360 -0.5032
  185POPC   C3521310   4.371   3.188   2.972  0.2371 -0.2568 -0.9454
  185POPC   H5X21311   4.475   3.228   2.981  0.1612 -0.6610  2.3080
  185POPC   H5Y21312   4.342   3.164   3.077  2.3920  0.6213 -0.1176
  185POPC   C3621313   4.270   3.302   2.933  0.2820  0.5241 -0.2237
  185POPC   H6X21314   4.168   3.260   2.932  0.1559  0.7384  1.9682
  185POPC   H6Y21315   4.288   3.338   2.829 -3.6225 -0.8652 -1.4839
  185POPC   C3721316   4.268   3.438   3.016  0.5052 -0.5315 -0.5581
  185POPC   H7X21317   4.194   3.505   2.966 -1.8610 -0.7351  2.5690
  185POPC   H7Y21318   4.361   3.498   3.010 -1.2942  2.1531 -2.9892
  185POPC   C3821319   4.216   3.429   3.167  0.6005  0.0018 -0.1353
  185POPC   H8X21320   4.136   3.352   3.162 -0.6483  1.2366  0.5376
  185POPC   H8Y21321   4.179   3.528   3.202 -0.1421 -1.0573  2.1830
  185POPC   C3921322   4.325   3.383   3.265  0.2372 -0.4718  0.1843
  185POPC   H9X21323   4.390   3.473   3.271  0.4364 -0.5959 -0.1110
  185POPC   H9Y21324   4.393   3.303   3.230  1.4339  0.3410  0.6071
  185POPC  C31021325   4.281   3.349   3.408  0.3902 -0.1469  0.0910
  185POPC  H10X21326   4.224   3.435   3.448 -1.3689 -0.2117 -2.1534
  185POPC  H10Y21327   4.375   3.334   3.465  0.2245 -1.8883 -0.0595
  185POPC  C31121328   4.195   3.223   3.409  0.1540  0.4098 -0.0662
  185POPC  H11X21329   4.252   3.140   3.362  0.3220  0.5290 -0.0742
  185POPC  H11Y21330   4.098   3.248   3.361 -0.7988  1.3950  2.3307
  185POPC  C31221331   4.166   3.173   3.552  0.7925 -0.1586 -0.5997
  185POPC  H12X21332   4.130   3.255   3.618  2.0301 -0.4352  0.4350
  185POPC  H12Y21333   4.264   3.144   3.595 -0.9137 -1.8511  2.3544
  185POPC  C31321334   4.074   3.051   3.579 -0.3030 -0.1738  0.0181
  185POPC  H13X21335   4.127   2.965   3.534  0.6861  0.2458  0.3724
  185POPC  H13Y21336   3.973   3.068   3.535  0.7629  0.3017 -2.2752
  185POPC  C31421337   4.054   3.019   3.730 -0.5251  0.9481 -0.6006
  185POPC  H14X21338   3.992   3.099   3.776 -0.8300  0.8345 -0.8090
  185POPC  H14Y21339   4.153   3.020   3.780 -0.1601  0.2191 -1.2930
  185POPC  C31521340   3.993   2.887   3.768 -0.1515  1.0552  0.1325
  185POPC  H15X21341   3.979   2.902   3.877 -3.5488 -0.0017 -0.1020
  185POPC  H15Y21342   4.063   2.805   3.744  0.6029  0.5286  3.8851
  185POPC  C31621343   3.855   2.866   3.703 -0.3206 -0.9196 -0.2253
  185POPC  H16X21344   3.795   2.960   3.700 -2.2818 -2.1635 -1.6070
  185POPC  H16Y21345   3.802   2.794   3.769  0.1014 -1.3459 -0.3504
  185POPC  H16Z21346   3.873   2.815   3.606 -2.0217 -0.2550 -0.9174
  186POPC     N21347   4.442   4.877   2.029  0.2070  0.2525 -0.5719
  186POPC   C1221348   4.478   4.786   2.154  0.4488 -0.2751  0.5300
  186POPC  H12A21349   4.578   4.749   2.132  1.5505  3.1256 -0.4485
  186POPC  H12B21350   4.402   4.710   2.159 -0.0218  0.2202  0.9860
  186POPC   C1321351   4.445   4.810   1.900 -0.0709  0.2272  0.0457
  186POPC  H13A21352   4.532   4.745   1.892  0.2283  0.1478  3.1171
  186POPC  H13B21353   4.356   4.750   1.890 -0.6983  1.0030  0.8870
  186POPC  H13C21354   4.439   4.881   1.820 -2.5608  1.4606  1.2687
  186POPC   C1421355   4.307   4.938   2.042 -0.3579  0.5782  0.5198
  186POPC  H14A21356   4.300   4.997   2.132 -0.3744 -0.1402  0.9898
  186POPC  H14B21357   4.287   4.994   1.951  1.4761  1.2729  0.5174
  186POPC  H14C21358   4.229   4.864   2.040 -0.3602  0.5839 -2.7293
  186POPC   C1521359   4.552   4.982   2.021  0.1066  1.0614 -0.3848
  186POPC  H15A21360   4.519   5.051   1.944 -0.1719 -0.2391 -1.4441
  186POPC  H15B21361   4.648   4.945   1.989  0.2284  0.7277  0.3787
  186POPC  H15C21362   4.555   5.027   2.119 -2.2656  0.3282  0.0482
  186POPC   C1121363   4.483   4.851   2.297 -0.2892  0.3590  0.1394
  186POPC  H11A21364   4.479   4.763   2.364  2.3632  0.1795  0.1231
  186POPC  H11B21365   4.394   4.913   2.320 -0.5726  0.3416 -0.9317
  186POPC     P21366   4.741   4.849   2.336 -0.2465 -0.4706 -0.2161
  186POPC   O1321367   4.850   4.953   2.327 -0.3507  0.2259 -0.3043
  186POPC   O1421368   4.747   4.737   2.238 -0.3639 -0.1138 -0.1399
  186POPC   O1221369   4.603   4.927   2.324 -0.1347  0.1233  0.2857
  186POPC   O1121370   4.738   4.793   2.483 -0.3256 -0.3093 -0.2900
  186POPC    C121371   4.853   4.781   2.566  0.2441  0.6554  0.2686
  186POPC    HA21372   4.860   4.866   2.638 -2.6158  2.2935 -1.3092
  186POPC    HB21373   4.943   4.794   2.502 -0.5992  1.2857 -0.8049
  186POPC    C221374   4.861   4.649   2.639 -0.0293 -0.2520  0.0883
  186POPC    HS21375   4.825   4.575   2.564  1.1879 -0.0627 -0.7115
  186POPC   O2121376   4.788   4.665   2.762 -0.0444  0.2193 -0.1720
  186POPC   C2121377   4.754   4.551   2.812 -0.1225  0.4651  0.5081
  186POPC   O2221378   4.780   4.441   2.762 -0.3106  0.0695 -0.1164
  186POPC   C2221379   4.660   4.556   2.930  0.1778 -0.2061 -0.1302
  186POPC   H2R21380   4.577   4.487   2.904  0.0662  0.1708 -0.7956
  186POPC   H2S21381   4.606   4.653   2.936  0.2978 -0.1509  0.0757
  186POPC    C321382   5.013   4.614   2.667 -0.2255  0.6942  0.3669
  186POPC    HX21383   5.087   4.604   2.585  2.0122 -1.2901  2.5309
  186POPC    HY21384   5.013   4.515   2.718  2.4715  0.0033 -0.8417
  186POPC   O3121385   5.055   4.712   2.762 -0.2541  0.1240  0.3716
  186POPC   C3121386   5.177   4.685   2.809  0.1608 -0.1640  0.1193
  186POPC   O3221387   5.248   4.595   2.771 -0.1696 -0.7191 -0.2539
  186POPC   C3221388   5.217   4.793   2.909  0.7695 -0.2850 -0.3348
  186POPC   H2X21389   5.228   4.888   2.852 -1.7660  1.7605  2.4260
  186POPC   H2Y21390   5.319   4.766   2.943  0.5403  1.4517  1.8587
  186POPC   C2321391   4.742   4.536   3.057 -0.1802  0.3867 -0.7279
  186POPC   H3R21392   4.828   4.606   3.057  0.3614 -0.2625  0.5688
  186POPC   H3S21393   4.771   4.429   3.066  0.6712  0.7623  1.3465
  186POPC   C2421394   4.652   4.576   3.180 -0.2144  0.1153 -0.3717
  186POPC   H4R21395   4.554   4.525   3.177  0.5473 -1.3176 -1.8022
  186POPC   H4S21396   4.636   4.686   3.182  1.6943  0.4084  0.1333
  186POPC   C2521397   4.716   4.542   3.315 -0.2761 -0.8788 -0.0511
  186POPC   H5R21398   4.650   4.592   3.390  1.0668  0.4646  0.2545
  186POPC   H5S21399   4.821   4.577   3.325 -0.0412 -1.2490 -1.1294
  186POPC   C2621400   4.714   4.396   3.365  0.2167  0.7293  0.1071
  186POPC   H6R21401   4.786   4.342   3.300 -1.1771 -1.6051  0.4183
  186POPC   H6S21402   4.620   4.336   3.370  0.8131 -0.0378  2.2646
  186POPC   C2721403   4.770   4.385   3.511 -0.4253  0.0712  0.3194
  186POPC   H7R21404   4.856   4.455   3.518 -0.2234 -0.3124  1.8324
  186POPC   H7S21405   4.807   4.282   3.529 -0.9626 -0.2050 -0.1410
  186POPC   C2821406   4.661   4.418   3.614 -0.6925 -0.6618 -0.5792
  186POPC   H8R21407   4.559   4.376   3.598 -2.1810  1.3043  3.1277
  186POPC   H8S21408   4.648   4.528   3.611 -1.3282 -0.7552 -1.5220
  186POPC   C2921409   4.705   4.376   3.753  0.1223  0.2627  0.1454
  186POPC   H9121410   4.764   4.454   3.803  1.0373  1.5944 -2.8896
  186POPC  C21021411   4.668   4.267   3.819  0.3765  0.8485  0.1977
  186POPC  H10121412   4.698   4.255   3.924 -0.5186  0.0846  0.3747
  186POPC  C21121413   4.576   4.159   3.770  0.5427 -0.1881 -0.6332
  186POPC  H11R21414   4.581   4.141   3.661 -0.5730  2.6003 -1.1765
  186POPC  H11S21415   4.477   4.193   3.807  1.0223  2.5589 -1.7798
  186POPC  C21221416   4.602   4.024   3.835  0.0482  0.3907 -0.1423
  186POPC  H12R21417   4.593   4.034   3.945 -1.3249 -1.8326 -0.0169
  186POPC  H12S21418   4.704   3.991   3.808 -0.6987 -0.2698 -2.2759
  186POPC  C21321419   4.518   3.911   3.785  0.2302 -0.4073  0.2607
  186POPC  H13R21420   4.579   3.819   3.796 -2.0379 -1.6356  3.2700
  186POPC  H13S21421   4.495   3.922   3.677  1.2066  1.3117  0.2249
  186POPC  C21421422   4.381   3.885   3.855 -0.0029  0.4889  0.0932
  186POPC  H14R21423   4.357   3.994   3.853 -0.3202  0.4179 -0.1614
  186POPC  H14S21424   4.399   3.840   3.955  1.4427 -0.2403 -0.4911
  186POPC  C21521425   4.282   3.798   3.773  0.1640 -0.4213 -0.6523
  186POPC  H15R21426   4.223   3.849   3.693 -1.5495 -1.3197  0.0039
  186POPC  H15S21427   4.212   3.754   3.847  0.2642 -2.6565 -1.8474
  186POPC  C21621428   4.348   3.677   3.699 -0.1684 -0.6241  0.3088
  186POPC  H16R21429   4.423   3.710   3.624  2.4714 -2.2190  2.1527
  186POPC  H16S21430   4.268   3.626   3.642 -1.1573  0.5117  0.6693
  186POPC  C21721431   4.413   3.578   3.799  0.7577 -0.4676  0.0835
  186POPC  H17R21432   4.369   3.610   3.896 -0.1245  2.4585 -1.2103
  186POPC  H17S21433   4.524   3.583   3.808  0.8211 -0.7350 -0.5321
  186POPC  C21821434   4.366   3.438   3.770  0.0582 -0.9091 -0.3751
  186POPC  H18R21435   4.411   3.399   3.677  1.4927 -0.7947  0.2524
  186POPC  H18S21436   4.402   3.377   3.855  0.6168  1.3023  1.0282
  186POPC  H18T21437   4.257   3.428   3.752  0.4130 -2.5115 -1.8268
  186POPC   C3321438   5.128   4.798   3.035  0.4720  1.2328 -0.3274
  186POPC   H3X21439   5.029   4.848   3.020 -1.0645 -1.5777  0.1809
  186POPC   H3Y21440   5.192   4.858   3.103  2.5797 -2.2641  0.8868
  186POPC   C3421441   5.119   4.657   3.111 -0.4414 -0.8966 -0.0440
  186POPC   H4X21442   5.066   4.577   3.055 -1.1681 -0.3534 -0.1461
  186POPC   H4Y21443   5.059   4.675   3.203  2.0546  0.1377  1.4343
  186POPC   C3521444   5.263   4.611   3.154  1.1077 -0.2633 -0.6969
  186POPC   H5X21445   5.316   4.696   3.201 -0.8736  0.8099 -0.3242
  186POPC   H5Y21446   5.313   4.563   3.067  2.8986 -0.7002  0.5545
  186POPC   C3621447   5.261   4.502   3.262  0.5077 -0.3936 -0.2428
  186POPC   H6X21448   5.199   4.528   3.350 -0.1944  1.9967 -1.4011
  186POPC   H6Y21449   5.365   4.488   3.300  1.2529 -1.6203 -2.6703
  186POPC   C3721450   5.218   4.365   3.219  0.0174  0.5853  0.3206
  186POPC   H7X21451   5.270   4.348   3.123  1.1909 -1.6942  1.3239
  186POPC   H7Y21452   5.108   4.369   3.208 -0.2873 -2.1237  1.9385
  186POPC   C3821453   5.249   4.254   3.318  0.2926  0.4509  1.1279
  186POPC   H8X21454   5.358   4.239   3.334  0.0850  0.0894  2.1970
  186POPC   H8Y21455   5.207   4.166   3.264  0.6538  1.2368 -0.4633
  186POPC   C3921456   5.180   4.257   3.456 -0.1795  0.8130  0.9245
  186POPC   H9X21457   5.086   4.315   3.461 -1.6956 -1.6114  1.0796
  186POPC   H9Y21458   5.233   4.328   3.524  0.0029  0.4003  1.2099
  186POPC  C31021459   5.193   4.122   3.530  0.3049 -0.2553 -0.1247
  186POPC  H10X21460   5.286   4.064   3.511 -0.1957 -0.1077 -3.3080
  186POPC  H10Y21461   5.110   4.056   3.498 -1.3468  0.1519  3.0998
  186POPC  C31121462   5.178   4.135   3.685  0.2147 -0.4953 -0.2537
  186POPC  H11X21463   5.080   4.184   3.701  0.0741 -0.6203 -0.7087
  186POPC  H11Y21464   5.258   4.201   3.723 -1.6087  1.9938 -0.6378
  186POPC  C31221465   5.200   4.002   3.762 -0.9104  0.0656  0.5820
  186POPC  H12X21466   5.298   3.960   3.729 -1.2064 -1.7893  1.9736
  186POPC  H12Y21467   5.116   3.936   3.732 -1.2227  0.1935  1.1668
  186POPC  C31321468   5.203   4.016   3.918  0.3316  0.1122 -0.0051
  186POPC  H13X21469   5.263   4.105   3.947 -0.6664  0.1384  2.1066
  186POPC  H13Y21470   5.245   3.925   3.966 -2.8663 -0.9449  0.9241
  186POPC  C31421471   5.058   4.052   3.984 -0.1010  0.0583  0.0407
  186POPC  H14X21472   4.986   3.968   3.971  0.4308 -0.1953 -1.4095
  186POPC  H14Y21473   5.017   4.139   3.928 -0.0384 -1.1685 -1.9646
  186POPC  C31521474   5.064   4.095   4.129 -0.6108 -0.7245  0.2667
  186POPC  H15X21475   5.095   4.202   4.134 -2.0215 -0.3856  3.8021
  186POPC  H15Y21476   5.133   4.031   4.188 -0.9478 -1.9612 -0.6757
  186POPC  C31621477   4.929   4.101   4.208  0.1336 -0.1579  0.0134
  186POPC  H16X21478   4.894   3.996   4.216 -1.2400  0.2403 -0.5394
  186POPC  H16Y21479   4.862   4.166   4.146 -0.1373  1.3725  1.8636
  186POPC  H16Z21480   4.936   4.130   4.315 -0.5899 -1.2269  0.3588
  187POPC     N21481   4.121   0.916   2.028 -0.0301  0.0097  0.4811
  187POPC   C1221482   4.244   0.942   2.115  0.8588 -0.1088  0.3580
  187POPC  H12A21483   4.329   0.967   2.053  1.9434 -0.9242  1.4894
  187POPC  H12B21484   4.257   0.856   2.178  0.3143  0.5194  1.3361
  187POPC   C1321485   4.169   0.834   1.910  0.0094  0.0797 -0.7811
  187POPC  H13A21486   4.212   0.904   1.839  1.3254  0.2797  0.1974
  187POPC  H13B21487   4.243   0.759   1.934  0.2042  0.3199 -0.6249
  187POPC  H13C21488   4.082   0.785   1.869 -0.0584  0.0554 -0.6065
  187POPC   C1421489   4.011   0.847   2.104 -0.1465  0.2827  0.4682
  187POPC  H14A21490   3.948   0.911   2.162 -0.5743 -0.5699  0.9607
  187POPC  H14B21491   3.948   0.797   2.031  1.7347  0.2312 -1.1549
  187POPC  H14C21492   4.058   0.768   2.160  1.8681 -2.3571 -4.5822
  187POPC   C1521493   4.067   1.049   1.982  0.6352  0.4253  0.2204
  187POPC  H15A21494   3.970   1.044   1.935  0.5402  1.3631  0.3046
  187POPC  H15B21495   4.140   1.086   1.912 -1.0414  2.5045 -0.5051
  187POPC  H15C21496   4.058   1.115   2.067 -0.8647  0.6657 -0.0932
  187POPC   C1121497   4.244   1.059   2.218 -0.3402  0.3254  0.6173
  187POPC  H11A21498   4.317   1.043   2.300 -1.7609 -1.0022  1.6535
  187POPC  H11B21499   4.145   1.058   2.267  0.2449  0.5087  1.8242
  187POPC     P21500   4.394   1.242   2.123  0.2764  0.0591  0.1210
  187POPC   O1321501   4.374   1.366   2.039  0.0004 -0.0189  0.6023
  187POPC   O1421502   4.481   1.128   2.068  0.2142  0.0300  0.2467
  187POPC   O1221503   4.253   1.191   2.163  0.4532 -0.2855  0.1409
  187POPC   O1121504   4.443   1.291   2.266  0.6243 -0.5812  0.8095
  187POPC    C121505   4.393   1.417   2.315  0.6173  0.3112 -0.3242
  187POPC    HA21506   4.348   1.402   2.416  0.3102  0.1809 -0.4802
  187POPC    HB21507   4.315   1.459   2.249 -1.2218  0.0911  1.6522
  187POPC    C221508   4.509   1.517   2.330 -0.6302 -0.0814  0.2517
  187POPC    HS21509   4.572   1.491   2.242 -1.2196  0.9417 -0.4762
  187POPC   O2121510   4.574   1.493   2.461  0.1346 -0.9695 -0.2576
  187POPC   C2121511   4.693   1.543   2.459 -0.7318  0.0205 -0.1607
  187POPC   O2221512   4.735   1.611   2.369 -0.1538  0.7911  0.0482
  187POPC   C2221513   4.773   1.496   2.579 -0.0876 -0.5045 -0.3954
  187POPC   H2R21514   4.881   1.523   2.571 -0.4965  1.4836  0.5314
  187POPC   H2S21515   4.761   1.386   2.581 -0.5472 -0.5216 -3.0420
  187POPC    C321516   4.456   1.658   2.306 -0.6046 -0.5758 -0.6375
  187POPC    HX21517   4.418   1.653   2.202 -0.1402  0.1153 -0.8401
  187POPC    HY21518   4.536   1.735   2.313 -0.4093 -0.8646  0.5056
  187POPC   O3121519   4.359   1.697   2.407 -0.2455 -0.1422 -0.5106
  187POPC   C3121520   4.230   1.730   2.358  0.1140  0.1003  0.2128
  187POPC   O3221521   4.201   1.739   2.242  0.3611 -0.4674  0.2474
  187POPC   C3221522   4.133   1.746   2.472  0.2274 -0.0571 -1.0854
  187POPC   H2X21523   4.183   1.807   2.550 -1.2314 -2.1350  1.5823
  187POPC   H2Y21524   4.120   1.651   2.528 -1.1317  0.3210 -0.7219
  187POPC   C2321525   4.713   1.539   2.716 -0.0171 -0.3093  0.0934
  187POPC   H3R21526   4.603   1.524   2.711 -0.3910  1.6281  1.8281
  187POPC   H3S21527   4.730   1.646   2.739  2.5434 -0.6263 -0.1870
  187POPC   C2421528   4.771   1.463   2.836  0.5490  0.5007 -0.2760
  187POPC   H4R21529   4.799   1.360   2.807 -2.8514 -0.1299 -1.5443
  187POPC   H4S21530   4.693   1.457   2.914  0.3847 -0.8955 -0.5326
  187POPC   C2521531   4.902   1.535   2.875  0.6359  0.1289 -0.0040
  187POPC   H5R21532   4.871   1.639   2.896 -1.4086 -0.8118  1.7188
  187POPC   H5S21533   4.974   1.526   2.790 -0.0444  0.3560 -0.6085
  187POPC   C2621534   4.964   1.482   3.006 -0.4591  0.5718 -0.0823
  187POPC   H6R21535   5.070   1.515   3.012 -0.2834 -0.1426  0.7253
  187POPC   H6S21536   4.962   1.371   3.003 -1.2455  0.5779  0.1789
  187POPC   C2721537   4.890   1.527   3.132 -0.2712  0.3899  0.0598
  187POPC   H7R21538   4.794   1.474   3.154 -1.2015  1.3370 -1.6356
  187POPC   H7S21539   4.845   1.624   3.103  0.2339  0.4406 -0.5627
  187POPC   C2821540   4.984   1.530   3.252  0.3725 -0.0189 -0.1016
  187POPC   H8R21541   4.936   1.593   3.330 -0.7667  1.1670 -1.7285
  187POPC   H8S21542   5.078   1.578   3.217  1.4109 -0.8803  1.4323
  187POPC   C2921543   5.009   1.388   3.304  0.0020 -0.8445  0.0759
  187POPC   H9121544   5.026   1.316   3.222  3.3493  0.6822 -0.6621
  187POPC  C21021545   5.017   1.359   3.437  0.1471  0.4153  0.5099
  187POPC  H10121546   5.037   1.260   3.480 -0.4036  0.0413 -0.0664
  187POPC  C21121547   4.994   1.451   3.554  0.0340  0.3882  0.0970
  187POPC  H11R21548   4.886   1.470   3.572  0.1034  1.1048 -0.2281
  187POPC  H11S21549   5.042   1.549   3.537 -1.8926  0.9483 -2.4904
  187POPC  C21221550   5.058   1.388   3.684  0.0522  0.2997 -0.2622
  187POPC  H12R21551   5.169   1.384   3.674  0.3030  0.8657  1.9637
  187POPC  H12S21552   5.023   1.284   3.701  1.8672 -0.2405  0.2551
  187POPC  C21321553   5.035   1.472   3.809  0.3322  0.0188 -0.3320
  187POPC  H13R21554   4.928   1.472   3.840  0.4598  0.9195  0.1306
  187POPC  H13S21555   5.075   1.575   3.795  0.6750  0.0308  0.6848
  187POPC  C21421556   5.112   1.417   3.928  0.0465  0.0355  0.6580
  187POPC  H14R21557   5.218   1.401   3.895 -0.0790 -2.8112  1.4927
  187POPC  H14S21558   5.068   1.317   3.950  1.0745 -1.4816 -3.6680
  187POPC  C21521559   5.101   1.497   4.058 -0.8011 -0.1549 -0.1049
  187POPC  H15R21560   4.992   1.507   4.079 -0.8748  1.1130 -1.0676
  187POPC  H15S21561   5.142   1.596   4.030 -4.0877  1.3307  0.1846
  187POPC  C21621562   5.187   1.456   4.178  0.5083 -0.2339  0.4338
  187POPC  H16R21563   5.141   1.365   4.222 -1.4768  0.9078  0.8187
  187POPC  H16S21564   5.167   1.536   4.252 -0.0876  0.8545 -0.8877
  187POPC  C21721565   5.338   1.438   4.162 -0.0697 -0.1639 -0.8065
  187POPC  H17R21566   5.379   1.523   4.104  2.3332 -1.0362 -0.4216
  187POPC  H17S21567   5.346   1.357   4.086 -2.6510 -2.1020  0.8798
  187POPC  C21821568   5.407   1.416   4.294 -0.1558 -0.3503 -0.3200
  187POPC  H18R21569   5.347   1.346   4.356 -0.2974  0.0540 -0.0012
  187POPC  H18S21570   5.416   1.512   4.348  0.9606 -0.1124 -0.9203
  187POPC  H18T21571   5.504   1.362   4.290  0.0206 -0.0008 -0.7301
  187POPC   C3321572   3.994   1.807   2.447  0.2864  0.6235 -0.1046
  187POPC   H3X21573   3.968   1.774   2.344 -2.2970  1.2756  0.3069
  187POPC   H3Y21574   4.000   1.918   2.448  2.0865  0.5458 -0.1018
  187POPC   C3421575   3.892   1.776   2.565 -0.1435 -0.3936 -0.2147
  187POPC   H4X21576   3.918   1.850   2.645  1.1336  0.1466 -1.1028
  187POPC   H4Y21577   3.888   1.668   2.589 -0.5845 -0.2518  0.3512
  187POPC   C3521578   3.751   1.789   2.518  0.7775 -0.2239 -0.9619
  187POPC   H5X21579   3.720   1.715   2.441 -1.4646 -0.4863  0.1559
  187POPC   H5Y21580   3.737   1.888   2.469 -2.8534  1.9843  4.1301
  187POPC   C3621581   3.637   1.786   2.628  0.3991 -0.0753  0.2591
  187POPC   H6X21582   3.539   1.767   2.579  1.6789 -1.4477 -1.8474
  187POPC   H6Y21583   3.640   1.890   2.667 -0.2020  0.1248 -0.2232
  187POPC   C3721584   3.649   1.683   2.745  0.4503 -0.1261 -0.1797
  187POPC   H7X21585   3.743   1.695   2.803  0.0758  1.9757  0.0383
  187POPC   H7Y21586   3.671   1.586   2.697 -0.3464  0.7395 -2.3293
  187POPC   C3821587   3.537   1.677   2.846 -0.1539 -0.1885  0.7889
  187POPC   H8X21588   3.456   1.622   2.792  2.0655 -2.0254 -0.7676
  187POPC   H8Y21589   3.495   1.777   2.872 -1.3430 -0.8459  1.4816
  187POPC   C3921590   3.581   1.603   2.977  0.3378  0.1079 -0.1417
  187POPC   H9X21591   3.645   1.515   2.954 -1.3089 -0.4705 -2.6864
  187POPC   H9Y21592   3.495   1.582   3.045  0.7991  1.3153  0.8369
  187POPC  C31021593   3.671   1.691   3.074  0.3600  0.0700  0.1283
  187POPC  H10X21594   3.631   1.795   3.074  3.0176  1.1167  0.9118
  187POPC  H10Y21595   3.776   1.679   3.039  0.8482  1.1113  1.2149
  187POPC  C31121596   3.671   1.661   3.225 -0.4351  0.0364 -0.7647
  187POPC  H11X21597   3.691   1.552   3.240  0.8220  0.0120 -2.4881
  187POPC  H11Y21598   3.571   1.680   3.269  0.0941 -0.5957  0.7314
  187POPC  C31221599   3.760   1.742   3.319 -0.2053 -0.3147 -0.8132
  187POPC  H12X21600   3.744   1.849   3.292 -0.9846 -0.1355  0.2691
  187POPC  H12Y21601   3.866   1.729   3.289 -0.3944 -0.8573 -1.2499
  187POPC  C31321602   3.741   1.703   3.468 -0.8585 -0.3014 -0.5483
  187POPC  H13X21603   3.784   1.604   3.494 -0.6321 -0.2119 -0.5824
  187POPC  H13Y21604   3.632   1.688   3.485 -0.6397  0.1255  1.3538
  187POPC  C31421605   3.810   1.807   3.560  0.0146  0.1203  0.2203
  187POPC  H14X21606   3.734   1.886   3.578  0.8215  0.7496  0.9247
  187POPC  H14Y21607   3.897   1.844   3.503 -0.5576  0.6956 -0.2837
  187POPC  C31521608   3.845   1.757   3.697 -0.2080  0.3081 -0.5067
  187POPC  H15X21609   3.766   1.686   3.729  2.2621 -2.0428  0.6764
  187POPC  H15Y21610   3.869   1.839   3.767  2.7049 -0.2948 -0.7250
  187POPC  C31621611   3.967   1.663   3.676  0.3964  0.5586  0.2668
  187POPC  H16X21612   3.949   1.575   3.611  1.6763 -1.1136  2.1069
  187POPC  H16Y21613   3.999   1.608   3.767 -2.1625 -1.4997 -0.0282
  187POPC  H16Z21614   4.049   1.728   3.640 -0.3008  1.1339 -0.3001
  188POPC     N21615   6.292   3.143   2.044  0.4188 -0.5375  0.2701
  188POPC   C1221616   6.272   3.165   2.194  0.0772  0.0781 -0.4455
  188POPC  H12A21617   6.166   3.167   2.215  0.0842 -2.6545  0.1321
  188POPC  H12B21618   6.305   3.259   2.234 -1.5416  1.2464 -1.7978
  188POPC   C1321619   6.207   3.019   1.996  0.1009 -0.1638 -0.0359
  188POPC  H13A21620   6.100   3.032   2.003 -0.3683 -3.3734 -0.3905
  188POPC  H13B21621   6.230   2.983   1.897 -1.6924 -0.4889 -0.3464
  188POPC  H13C21622   6.244   2.941   2.061 -2.4622 -1.2186  0.2120
  188POPC   C1421623   6.254   3.260   1.966  0.7357  0.8395 -0.8755
  188POPC  H14A21624   6.327   3.338   1.985  0.3073  1.3044 -1.1476
  188POPC  H14B21625   6.261   3.234   1.861  0.2133 -1.4028 -0.3926
  188POPC  H14C21626   6.157   3.297   1.995 -0.8508 -3.7244  0.1065
  188POPC   C1521627   6.433   3.102   2.013  0.2586 -0.1456  0.2360
  188POPC  H15A21628   6.457   3.001   2.041 -1.5583 -0.9692 -1.0829
  188POPC  H15B21629   6.502   3.164   2.068  0.7455  0.4304 -1.0015
  188POPC  H15C21630   6.450   3.121   1.908  0.5928  1.7701  0.6162
  188POPC   C1121631   6.317   3.057   2.300 -0.1951 -0.2240  0.5059
  188POPC  H11A21632   6.300   2.954   2.262  0.0744 -0.2497  0.4574
  188POPC  H11B21633   6.258   3.065   2.394  0.7345  0.7872  1.0185
  188POPC     P21634   6.484   3.187   2.434  0.2670  0.4043 -0.3200
  188POPC   O1321635   6.422   3.316   2.387 -0.0213  0.2114 -0.0661
  188POPC   O1421636   6.628   3.191   2.458  0.0185  0.0784  0.1847
  188POPC   O1221637   6.457   3.072   2.333 -0.2232 -0.2809  0.0107
  188POPC   O1121638   6.403   3.141   2.561  0.1076  0.0197 -0.4081
  188POPC    C121639   6.471   3.063   2.666  0.0729  0.1443 -0.3202
  188POPC    HA21640   6.505   3.129   2.748 -0.8058 -0.2161  0.3423
  188POPC    HB21641   6.562   3.014   2.626 -0.3417 -2.0953  1.3682
  188POPC    C221642   6.380   2.950   2.723  0.5555  0.1836  0.1287
  188POPC    HS21643   6.340   2.903   2.630  0.0982 -1.4044  1.1108
  188POPC   O2121644   6.273   3.009   2.803  0.6771  0.1913  0.2206
  188POPC   C2121645   6.159   3.036   2.754 -0.4819  0.0045  0.4264
  188POPC   O2221646   6.122   3.028   2.636  0.0710 -0.0654 -0.6662
  188POPC   C2221647   6.067   3.071   2.872 -0.4523  0.1878  0.1397
  188POPC   H2R21648   5.962   3.053   2.839 -0.2675 -0.0121 -0.3453
  188POPC   H2S21649   6.084   3.178   2.895  1.0980  0.3747 -1.7543
  188POPC    C321650   6.458   2.847   2.804 -0.1475  0.5434 -0.2632
  188POPC    HX21651   6.535   2.796   2.742 -1.2078 -0.3847 -0.8477
  188POPC    HY21652   6.376   2.775   2.827  1.1688 -0.7890  0.3154
  188POPC   O3121653   6.520   2.906   2.919  0.0981 -0.1131  0.5129
  188POPC   C3121654   6.445   2.902   3.033  0.1705 -0.3071 -0.2294
  188POPC   O3221655   6.356   2.822   3.047  0.1909  0.4781 -0.2381
  188POPC   C3221656   6.491   3.010   3.125 -0.0918 -0.5369  0.0323
  188POPC   H2X21657   6.453   3.114   3.110 -1.9617 -0.9109  1.8727
  188POPC   H2Y21658   6.601   3.019   3.125 -0.2213  1.1915  0.3658
  188POPC   C2321659   6.091   2.995   3.006  0.6266 -0.6087  0.2604
  188POPC   H3R21660   6.196   3.009   3.040 -0.2723  1.7023  2.2273
  188POPC   H3S21661   6.074   2.885   3.001 -0.1369 -0.5042  0.5133
  188POPC   C2421662   6.004   3.051   3.123 -0.2298  0.2770  0.2210
  188POPC   H4R21663   5.897   3.027   3.108  0.0726  0.2081 -2.0180
  188POPC   H4S21664   6.002   3.162   3.116  0.7284  0.2839  0.0364
  188POPC   C2521665   6.047   3.015   3.266  0.3581  0.8156 -0.4491
  188POPC   H5R21666   6.151   3.052   3.279  0.5107 -0.3164  1.8233
  188POPC   H5S21667   6.054   2.905   3.266 -1.3895  0.6876 -0.8695
  188POPC   C2621668   5.961   3.065   3.382 -0.5637 -0.0416  0.0179
  188POPC   H6R21669   5.853   3.043   3.376 -0.4859 -0.3677 -0.2373
  188POPC   H6S21670   5.980   3.174   3.383 -1.6796  0.1813 -1.3787
  188POPC   C2721671   6.009   2.992   3.506 -0.1286  0.1041  0.2970
  188POPC   H7R21672   6.119   2.999   3.519 -0.0405 -2.0780  0.9338
  188POPC   H7S21673   5.992   2.883   3.493  0.2996 -0.2060  2.1868
  188POPC   C2821674   5.948   3.040   3.641  0.0016  0.7079  0.1277
  188POPC   H8R21675   5.984   2.973   3.722 -0.3192  0.7124  0.2751
  188POPC   H8S21676   5.838   3.026   3.640  0.1132 -0.2100 -0.9146
  188POPC   C2921677   5.993   3.178   3.675 -0.5904  0.1060  0.6446
  188POPC   H9121678   6.101   3.196   3.665 -0.8869  2.3206  1.1416
  188POPC  C21021679   5.914   3.285   3.694  0.3764  0.1058 -0.5064
  188POPC  H10121680   5.972   3.378   3.705 -2.1001  1.4472  2.0107
  188POPC  C21121681   5.761   3.297   3.686 -0.6694 -0.1127  0.5180
  188POPC  H11R21682   5.717   3.215   3.626 -0.4099 -1.1338  1.7049
  188POPC  H11S21683   5.735   3.386   3.624  0.6268 -0.2348 -0.2253
  188POPC  C21221684   5.700   3.321   3.821  0.4755  0.1359  0.2221
  188POPC  H12R21685   5.592   3.345   3.818  0.6752  1.0979  0.6597
  188POPC  H12S21686   5.748   3.413   3.860 -2.3247  1.9418 -0.4632
  188POPC  C21321687   5.714   3.191   3.907  1.0704 -0.3275  0.0353
  188POPC  H13R21688   5.809   3.134   3.901  0.1614 -1.7210 -1.7955
  188POPC  H13S21689   5.631   3.123   3.876 -1.5770  1.8678  2.0151
  188POPC  C21421690   5.695   3.225   4.059 -0.1216 -0.3800 -0.4062
  188POPC  H14R21691   5.737   3.325   4.081  0.6637 -0.5130 -1.2727
  188POPC  H14S21692   5.754   3.145   4.110 -1.2330 -1.1828 -0.3457
  188POPC  C21521693   5.561   3.205   4.121  0.3280 -0.2172  0.7565
  188POPC  H15R21694   5.517   3.107   4.094 -0.7784 -0.1857  2.3579
  188POPC  H15S21695   5.500   3.294   4.093  0.5570  0.1735  1.4747
  188POPC  C21621696   5.550   3.188   4.273  0.5444  0.5457  0.3762
  188POPC  H16R21697   5.445   3.211   4.300 -0.2759 -1.9232 -0.6057
  188POPC  H16S21698   5.624   3.255   4.322  0.6593 -0.0968  1.0986
  188POPC  C21721699   5.590   3.047   4.315 -0.1414 -1.1291  0.0076
  188POPC  H17R21700   5.694   3.029   4.281  0.2073 -0.2468  0.6082
  188POPC  H17S21701   5.530   2.970   4.262 -0.8460  0.9765 -2.3651
  188POPC  C21821702   5.589   3.024   4.465 -0.3007  0.1976 -0.0445
  188POPC  H18R21703   5.487   3.034   4.507 -0.8675  1.0045 -1.5732
  188POPC  H18S21704   5.655   3.102   4.510  2.0050 -1.4708 -0.4169
  188POPC  H18T21705   5.625   2.922   4.493 -0.7129  0.0198 -0.1648
  188POPC   C3321706   6.451   2.981   3.270 -0.2283  0.0439 -0.4780
  188POPC   H3X21707   6.345   2.950   3.276 -0.3224  0.8797  2.5506
  188POPC   H3Y21708   6.478   3.068   3.333  2.5630  0.2613 -1.8828
  188POPC   C3421709   6.513   2.865   3.348 -0.2747  0.3929  0.9796
  188POPC   H4X21710   6.621   2.877   3.371  0.6029 -2.1863 -1.4178
  188POPC   H4Y21711   6.497   2.778   3.281  0.2864 -1.4439  3.1773
  188POPC   C3521712   6.432   2.845   3.472 -0.2422 -0.0522 -0.0737
  188POPC   H5X21713   6.323   2.851   3.449 -0.1941 -2.1107 -1.0174
  188POPC   H5Y21714   6.453   2.924   3.548 -3.0738  0.7598 -0.0908
  188POPC   C3621715   6.429   2.700   3.520 -0.1377  0.0367 -0.5303
  188POPC   H6X21716   6.527   2.658   3.551  0.6228  1.1862 -1.3171
  188POPC   H6Y21717   6.386   2.633   3.443 -0.3545 -1.1672  0.6290
  188POPC   C3721718   6.337   2.689   3.641 -0.2640 -0.9099  0.0410
  188POPC   H7X21719   6.238   2.735   3.622  0.6660  0.7767 -0.9040
  188POPC   H7Y21720   6.371   2.742   3.733 -1.4982 -0.1632  0.0743
  188POPC   C3821721   6.310   2.548   3.699 -0.9658  0.3632  0.6122
  188POPC   H8X21722   6.406   2.512   3.742  1.0497  4.5254 -0.0573
  188POPC   H8Y21723   6.277   2.485   3.614 -2.6350  1.0444  0.7271
  188POPC   C3921724   6.204   2.537   3.811  0.0863  0.2235  0.1936
  188POPC   H9X21725   6.101   2.549   3.771 -0.2052 -2.4847  0.0505
  188POPC   H9Y21726   6.208   2.615   3.891  0.3977  0.1740  0.2235
  188POPC  C31021727   6.231   2.406   3.892  0.3401  0.2955 -0.1852
  188POPC  H10X21728   6.339   2.400   3.920  1.2038  1.4415 -3.1500
  188POPC  H10Y21729   6.207   2.318   3.828 -0.0797 -0.3541  0.8338
  188POPC  C31121730   6.143   2.389   4.017 -0.3386  0.8625  0.1585
  188POPC  H11X21731   6.035   2.400   3.990 -0.4878 -1.3389 -0.2285
  188POPC  H11Y21732   6.167   2.474   4.084 -2.5743  2.6679 -1.2386
  188POPC  C31221733   6.168   2.253   4.094  0.2597  0.2389  0.2216
  188POPC  H12X21734   6.276   2.230   4.102  0.4403 -0.7936 -4.1317
  188POPC  H12Y21735   6.121   2.167   4.042 -1.4423  1.9693 -1.1818
  188POPC  C31321736   6.107   2.240   4.230 -0.2644  0.1275 -0.1500
  188POPC  H13X21737   5.998   2.260   4.227 -0.9044 -3.0776  0.6938
  188POPC  H13Y21738   6.158   2.322   4.285  3.3087 -1.3164 -1.1813
  188POPC  C31421739   6.124   2.095   4.285  0.2043 -0.6246  0.7519
  188POPC  H14X21740   6.189   2.033   4.220  0.5288  0.5169 -0.0157
  188POPC  H14Y21741   6.028   2.041   4.300 -1.1916  1.3085 -1.0087
  188POPC  C31521742   6.202   2.104   4.413  0.6049 -0.4585  0.1615
  188POPC  H15X21743   6.167   2.172   4.493  1.8326 -0.9804  1.1578
  188POPC  H15Y21744   6.299   2.150   4.383  1.7880 -1.9295  1.5821
  188POPC  C31621745   6.212   1.972   4.500  0.5076 -0.1331 -0.6501
  188POPC  H16X21746   6.267   1.895   4.441  0.8194  1.0195 -1.8707
  188POPC  H16Y21747   6.108   1.941   4.525  1.7503 -1.4466  3.3953
  188POPC  H16Z21748   6.266   1.989   4.596 -0.7899  0.2986  0.0131
  189SAPI   C1221749   4.075   0.423   6.597 -0.0424  0.6183 -0.0069
  189SAPI    H221750   4.164   0.370   6.556  0.2208  1.1402 -0.1304
  189SAPI    O221751   3.955   0.347   6.560 -0.8140  0.4260 -0.5160
  189SAPI   HO221752   3.975   0.292   6.485  2.4026  0.6709  0.0671
  189SAPI   C1321753   4.094   0.437   6.742  0.1301 -0.6173  0.6459
  189SAPI    H321754   4.186   0.498   6.758 -1.1975  1.7152 -0.2882
  189SAPI    O321755   4.117   0.313   6.804  0.9211  0.3193 -0.0566
  189SAPI   HO321756   4.064   0.245   6.763  1.0558 -0.0523  0.3796
  189SAPI   C1421757   3.982   0.517   6.812  0.4135  0.4097  0.5940
  189SAPI    H421758   3.885   0.462   6.809  0.8392 -0.3150  0.0299
  189SAPI    O421759   4.004   0.532   6.955  0.4342  0.2250 -0.6363
  189SAPI   HO421760   4.095   0.512   6.975  0.1137  0.8383  1.5236
  189SAPI   C1521761   3.962   0.647   6.743  0.1967  0.2342  0.2317
  189SAPI    H521762   4.059   0.699   6.761 -0.0729  0.6753  0.3990
  189SAPI    O521763   3.860   0.721   6.804  0.7292  0.1220  0.2933
  189SAPI   HO521764   3.901   0.782   6.866  0.1189 -0.0635  0.8842
  189SAPI   C1621765   3.940   0.634   6.593 -0.6603 -0.0215 -0.1798
  189SAPI    H621766   3.850   0.572   6.575 -0.2800 -0.6679  0.1107
  189SAPI    O621767   3.921   0.761   6.527 -0.9323 -1.1157 -0.2123
  189SAPI   HO621768   3.938   0.760   6.432  1.2290  2.0146  0.0489
  189SAPI   C1121769   4.064   0.562   6.536  0.0988 -0.6439  0.0886
  189SAPI    H121770   4.154   0.622   6.562 -0.3720  0.6539 -1.2362
  189SAPI     P21771   4.197   0.568   6.305 -0.3303 -0.1158  0.1862
  189SAPI   O1321772   4.184   0.499   6.178  0.4922  0.2133  0.2648
  189SAPI   O1421773   4.317   0.537   6.388 -0.3047  0.5235 -0.8454
  189SAPI   O1221774   4.058   0.544   6.392  0.3908  0.1694  0.1944
  189SAPI   O1121775   4.170   0.723   6.273 -0.1334 -0.2574  0.2129
  189SAPI    C121776   4.283   0.810   6.265 -0.1567  0.2843  0.3474
  189SAPI    HA21777   4.375   0.775   6.317  1.1834  1.1834 -1.3493
  189SAPI    HB21778   4.311   0.832   6.159 -1.9622 -2.8270 -0.8640
  189SAPI    C221779   4.258   0.949   6.328 -0.6055  0.2301 -0.1589
  189SAPI    HS21780   4.198   0.939   6.421 -1.1177  0.1268 -0.4940
  189SAPI   O2121781   4.189   1.036   6.231 -0.2592 -0.0122  0.2714
  189SAPI   C2121782   4.144   1.150   6.284  0.4843  0.1544 -0.5622
  189SAPI   O2221783   4.139   1.175   6.406 -0.0907 -0.0594  0.1726
  189SAPI   C2221784   4.113   1.254   6.171  0.0181 -0.5109  0.5736
  189SAPI   H2R21785   4.194   1.330   6.166 -0.6005  0.0457 -1.0320
  189SAPI   H2S21786   4.089   1.198   6.078 -1.8522 -0.0848  0.7865
  189SAPI    C321787   4.388   1.021   6.373 -0.7267  0.0995 -0.1638
  189SAPI    HX21788   4.450   0.947   6.429  1.9553  1.7916 -0.8009
  189SAPI    HY21789   4.359   1.113   6.428  0.2081 -0.0972  0.6792
  189SAPI   O3121790   4.475   1.059   6.261 -0.3735  0.1692 -0.0439
  189SAPI   C3121791   4.476   1.181   6.213 -0.1862  0.7582 -0.0222
  189SAPI   O3221792   4.417   1.273   6.259 -0.3302  0.1503  0.3517
  189SAPI   C3221793   4.572   1.187   6.086  0.1940  0.7431 -0.1561
  189SAPI   H2X21794   4.594   1.080   6.063  0.7940  0.9719 -0.6648
  189SAPI   H2Y21795   4.663   1.236   6.127  2.2056 -2.8657 -0.0727
  189SAPI   C2321796   3.992   1.334   6.205 -0.0030 -0.2342 -0.3084
  189SAPI   H3R21797   4.009   1.397   6.296  0.0037 -0.5707 -0.0759
  189SAPI   H3S21798   3.904   1.273   6.235  1.4874 -2.2577  0.0517
  189SAPI   C2421799   3.947   1.428   6.087  0.5350  0.6838 -0.7286
  189SAPI   H4R21800   4.035   1.484   6.048  2.6963 -2.5685 -0.7269
  189SAPI   H4S21801   3.885   1.507   6.134 -0.4459  0.1081 -1.0473
  189SAPI   C2521802   3.861   1.356   5.991 -0.2579 -0.2844  0.1053
  189SAPI   H5R21803   3.763   1.330   6.035  0.0185 -1.6525 -0.0745
  189SAPI   C2621804   3.894   1.311   5.870  0.1329 -0.4479 -0.4549
  189SAPI   H6R21805   3.813   1.275   5.804  0.3330 -0.5874 -0.6248
  189SAPI   C2721806   4.024   1.320   5.794  0.1144  0.9790 -0.2045
  189SAPI   H7R21807   4.019   1.236   5.721  0.3118 -0.1823  1.0937
  189SAPI   H7S21808   4.115   1.298   5.854 -0.9352  0.6383  1.2951
  189SAPI   C2821809   4.041   1.454   5.724  0.0354  0.3917  0.1203
  189SAPI   H8R21810   4.068   1.537   5.791 -2.0781  1.6453 -0.5381
  189SAPI   C2921811   4.036   1.473   5.588 -0.9602 -1.0311 -0.4226
  189SAPI   H9R21812   4.032   1.573   5.542  0.7775  0.0316  1.6600
  189SAPI  C21021813   4.016   1.366   5.476  0.2682  0.2041  0.0514
  189SAPI  H10R21814   4.011   1.261   5.512 -0.5714  0.4522  0.6870
  189SAPI  H10S21815   4.103   1.376   5.408 -0.5765 -0.3174 -1.1203
  189SAPI  C21121816   3.887   1.402   5.400 -0.0124  0.0942  0.5629
  189SAPI  H11R21817   3.811   1.458   5.457 -0.5838  0.8389 -0.9165
  189SAPI  C21221818   3.867   1.357   5.279  0.8450 -0.4602 -0.3804
  189SAPI  H12R21819   3.774   1.387   5.229 -0.0825 -0.2101  1.4430
  189SAPI  C21321820   3.960   1.269   5.202 -0.4376 -0.1434 -0.4749
  189SAPI  H13R21821   4.063   1.278   5.243 -0.1923  0.8091 -1.2713
  189SAPI  H13S21822   3.966   1.319   5.103  2.4311 -1.1088 -0.8417
  189SAPI  C21421823   3.921   1.125   5.188 -0.1658  0.0892  0.4916
  189SAPI  H14R21824   3.888   1.078   5.281 -1.9262 -0.4249 -0.3758
  189SAPI  C21521825   3.937   1.050   5.077 -0.0665  0.2291  0.6373
  189SAPI  H15R21826   3.920   0.941   5.080 -1.2847  0.2487 -2.7720
  189SAPI  C21621827   3.988   1.098   4.944  0.0790 -0.3193  0.4742
  189SAPI  H16R21828   3.962   1.204   4.923  1.6690  0.0615  0.4254
  189SAPI  H16S21829   3.937   1.037   4.866 -0.4068  0.4975  0.1428
  189SAPI  C21721830   4.136   1.083   4.925 -0.2345  0.7500  0.4611
  189SAPI  H17R21831   4.201   1.143   4.992  0.5871 -1.0937  1.3543
  189SAPI  H17S21832   4.162   1.136   4.831  1.0593  0.1759  0.4847
  189SAPI  C21821833   4.182   0.934   4.921 -0.5050  0.2864 -0.4028
  189SAPI  H18R21834   4.249   0.937   4.832 -1.4674  0.7987 -1.1278
  189SAPI  H18S21835   4.095   0.867   4.904  0.6972 -0.9925 -1.6335
  189SAPI  C21921836   4.267   0.889   5.040 -0.1359  0.2197 -0.1497
  189SAPI  H19R21837   4.221   0.899   5.141  3.1383  1.9101  1.2386
  189SAPI  H19S21838   4.351   0.959   5.058  0.1550  0.3978 -2.1298
  189SAPI  C22021839   4.319   0.749   5.017 -0.2338 -0.3230 -0.5279
  189SAPI  H20R21840   4.253   0.680   4.962 -0.0223  0.1783 -1.4289
  189SAPI  H20S21841   4.350   0.695   5.109 -0.9333  1.1747  0.6107
  189SAPI  H20T21842   4.405   0.741   4.947  0.8339 -1.3167  0.8617
  189SAPI   C3321843   4.529   1.270   5.965 -0.3843  0.0132  1.1588
  189SAPI   H3X21844   4.619   1.291   5.905 -0.9854 -0.1431  0.1857
  189SAPI   H3Y21845   4.481   1.366   5.993 -0.0375  0.2925  0.8010
  189SAPI   C3421846   4.439   1.196   5.871  0.4145  0.4944 -0.2640
  189SAPI   H4X21847   4.349   1.163   5.927 -0.3106 -2.8082 -3.2307
  189SAPI   H4Y21848   4.488   1.101   5.844 -0.8220 -0.2762  0.1792
  189SAPI   C3521849   4.406   1.270   5.740  0.6246  0.2593 -0.1882
  189SAPI   H5X21850   4.401   1.378   5.763 -0.2677  0.0522  0.6291
  189SAPI   H5Y21851   4.308   1.240   5.697 -0.0232  2.2758 -0.1664
  189SAPI   C3621852   4.508   1.236   5.628 -0.1281  0.4969 -0.1319
  189SAPI   H6X21853   4.508   1.125   5.614  0.0972  0.3138  1.2650
  189SAPI   H6Y21854   4.607   1.264   5.668 -0.8907 -0.3023  2.4516
  189SAPI   C3721855   4.476   1.304   5.495  0.2575 -0.0262  0.4763
  189SAPI   H7X21856   4.503   1.412   5.494 -1.2596  0.3953 -3.1831
  189SAPI   H7Y21857   4.370   1.298   5.461 -0.6809 -1.9277  3.4981
  189SAPI   C3821858   4.551   1.240   5.370 -0.0113 -0.0144 -0.2465
  189SAPI   H8X21859   4.614   1.156   5.404 -0.0828  1.1899  3.1143
  189SAPI   H8Y21860   4.619   1.318   5.329  0.5336  0.6098  1.7463
  189SAPI   C3921861   4.447   1.190   5.263  0.8324  0.4408 -0.2520
  189SAPI   H9X21862   4.370   1.135   5.322  0.6642 -0.4291 -1.2572
  189SAPI   H9Y21863   4.491   1.120   5.189 -0.9727 -2.2939  1.1361
  189SAPI  C31021864   4.390   1.305   5.174  0.1765 -0.2210 -0.2294
  189SAPI  H10X21865   4.412   1.396   5.233  0.1561  0.2291 -0.9120
  189SAPI  H10Y21866   4.282   1.283   5.158 -0.1669  2.0577 -1.2402
  189SAPI  C31121867   4.458   1.316   5.034 -0.3185 -0.0280 -0.1693
  189SAPI  H11X21868   4.386   1.364   4.964 -0.4383 -1.8815 -1.3419
  189SAPI  H11Y21869   4.474   1.217   4.987 -0.2326 -0.9907  1.8420
  189SAPI  C31221870   4.584   1.405   5.037  0.2150 -0.8448 -0.4874
  189SAPI  H12X21871   4.654   1.368   5.115  1.0044  1.7208  0.0722
  189SAPI  H12Y21872   4.556   1.500   5.087 -1.9375 -0.7746 -1.7615
  189SAPI  C31321873   4.658   1.421   4.909 -0.4027 -0.7167  0.4927
  189SAPI  H13X21874   4.713   1.332   4.872  0.0778  0.8577 -2.7561
  189SAPI  H13Y21875   4.738   1.494   4.937 -1.1783  0.8276 -1.2446
  189SAPI  C31421876   4.594   1.489   4.788 -0.3202  0.0502 -0.4947
  189SAPI  H14X21877   4.538   1.584   4.797  2.2071  1.7471 -2.3372
  189SAPI  H14Y21878   4.535   1.413   4.732  0.6739  1.2622 -3.2728
  189SAPI  C31521879   4.697   1.528   4.679  0.2501 -0.0822  0.6703
  189SAPI  H15X21880   4.754   1.437   4.651 -0.0231 -0.1261  0.2384
  189SAPI  H15Y21881   4.770   1.598   4.725  0.0121  1.2943 -0.9860
  189SAPI  C31621882   4.639   1.593   4.551 -0.3377 -0.9059  0.0084
  189SAPI  H16X21883   4.581   1.683   4.580  2.8027  0.4874  2.2353
  189SAPI  H16Y21884   4.569   1.525   4.497 -1.7556 -0.5436  1.3682
  189SAPI  C31721885   4.755   1.628   4.460  0.8978  0.0474  0.0763
  189SAPI  H17X21886   4.814   1.533   4.456 -0.2242 -0.6038 -1.9257
  189SAPI  H17Y21887   4.818   1.700   4.515 -1.4147  3.3614 -1.4530
  189SAPI  C31821888   4.721   1.675   4.321  0.4407  0.0961 -0.0840
  189SAPI  H18X21889   4.669   1.592   4.269 -1.0022 -0.5749  2.3580
  189SAPI  H18Y21890   4.815   1.704   4.268  1.3776 -0.8593  1.0321
  189SAPI  H18Z21891   4.654   1.764   4.323 -0.7025 -0.7478 -0.4684
  190SAPI   C1221892   5.081   0.771   6.411 -0.1049 -0.0120 -0.5794
  190SAPI    H221893   5.182   0.796   6.449 -0.6928  3.4797 -1.1331
  190SAPI    O221894   5.094   0.646   6.334  0.3435  0.2523 -0.6649
  190SAPI   HO221895   5.184   0.634   6.301 -0.4719 -0.4497 -2.6574
  190SAPI   C1321896   4.994   0.745   6.534 -0.2487 -0.0064 -0.3023
  190SAPI    H321897   4.983   0.846   6.579 -0.4392 -0.3451  0.4204
  190SAPI    O321898   5.058   0.660   6.630  0.5809 -0.0101  0.2743
  190SAPI   HO321899   5.091   0.582   6.584 -0.2797  1.0717 -2.2632
  190SAPI   C1421900   4.855   0.696   6.494  0.4529  0.4862 -0.2852
  190SAPI    H421901   4.867   0.602   6.435 -2.5378  1.4291 -2.5674
  190SAPI    O421902   4.764   0.658   6.600 -0.0106  0.4326 -0.0872
  190SAPI   HO421903   4.751   0.737   6.653 -0.8937 -0.1263  0.5471
  190SAPI   C1521904   4.786   0.799   6.400 -0.4822 -0.3306  0.1792
  190SAPI    H521905   4.765   0.891   6.459  1.3582  0.7944 -0.8548
  190SAPI    O521906   4.661   0.756   6.354 -0.5204  0.1662 -0.1872
  190SAPI   HO521907   4.646   0.804   6.272  2.1576 -2.6284 -2.4437
  190SAPI   C1621908   4.885   0.824   6.280 -0.2116  0.3364  0.8626
  190SAPI    H621909   4.893   0.729   6.224 -1.8200  0.8431 -0.2855
  190SAPI    O621910   4.817   0.915   6.191  0.2909  0.2155  0.5289
  190SAPI   HO621911   4.860   0.896   6.107 -0.9875  1.8966 -0.5403
  190SAPI   C1121912   5.023   0.881   6.320 -0.5694 -0.5667 -1.2682
  190SAPI    H121913   5.000   0.970   6.382 -0.8121 -0.4291 -1.5570
  190SAPI     P21914   5.197   1.044   6.204 -0.2858  0.1598  0.3827
  190SAPI   O1321915   5.328   1.033   6.275 -0.1558  0.0461  0.1909
  190SAPI   O1421916   5.114   1.165   6.231  0.0409  0.5537  0.0385
  190SAPI   O1221917   5.107   0.906   6.208 -0.0484  0.2371 -0.7004
  190SAPI   O1121918   5.237   1.067   6.049 -0.1804 -0.1321 -0.5764
  190SAPI    C121919   5.284   0.949   5.984  0.2106 -0.2660 -0.5676
  190SAPI    HA21920   5.356   0.894   6.049  0.8282  1.3507  0.1491
  190SAPI    HB21921   5.197   0.881   5.974 -0.1400 -0.3261  2.2628
  190SAPI    C221922   5.359   0.979   5.848 -0.6769  0.0845 -0.1167
  190SAPI    HS21923   5.398   1.083   5.848 -2.0976  0.6220  0.8396
  190SAPI   O2121924   5.273   0.956   5.736 -0.2416 -0.3397  0.2297
  190SAPI   C2121925   5.215   1.064   5.684 -0.3206 -0.2621  0.5414
  190SAPI   O2221926   5.218   1.173   5.740  0.7515  0.1637  0.0911
  190SAPI   C2221927   5.142   1.046   5.550  0.5215  0.2409  0.1719
  190SAPI   H2R21928   5.215   1.003   5.479 -1.2311 -0.3265 -1.3167
  190SAPI   H2S21929   5.063   0.971   5.571  0.7376 -0.1567 -0.4333
  190SAPI    C321930   5.486   0.886   5.827  0.5282 -0.1243 -0.4958
  190SAPI    HX21931   5.536   0.879   5.926 -0.3858 -1.8349 -0.1407
  190SAPI    HY21932   5.568   0.920   5.760 -0.1514 -0.0421 -1.2879
  190SAPI   O3121933   5.452   0.754   5.784  0.5663  0.2207  0.3609
  190SAPI   C3121934   5.425   0.661   5.876  0.3107 -1.1679  0.5413
  190SAPI   O3221935   5.454   0.668   5.996 -0.7844  0.1758  0.1414
  190SAPI   C3221936   5.355   0.540   5.808 -0.3854 -0.1567 -0.1524
  190SAPI   H2X21937   5.328   0.466   5.886  1.7616 -1.1937 -0.3465
  190SAPI   H2Y21938   5.433   0.494   5.743 -0.8667 -1.0406 -0.1076
  190SAPI   C2321939   5.075   1.175   5.494 -0.8139  0.0357  0.2537
  190SAPI   H3R21940   5.066   1.162   5.384  1.1430  0.9095 -0.0213
  190SAPI   H3S21941   5.133   1.267   5.514 -0.4393 -0.4252  1.3107
  190SAPI   C2421942   4.929   1.194   5.533 -0.2250 -0.1207  0.2873
  190SAPI   H4R21943   4.879   1.097   5.512  0.6897 -0.6309  0.4263
  190SAPI   H4S21944   4.889   1.266   5.459 -0.0026  0.6453  0.9067
  190SAPI   C2521945   4.912   1.250   5.674  0.5593 -0.1125  0.3071
  190SAPI   H5R21946   4.924   1.359   5.684 -2.0436  0.3139 -0.9884
  190SAPI   C2621947   4.866   1.189   5.788 -0.2231  0.2640 -0.5652
  190SAPI   H6R21948   4.870   1.245   5.882  0.5188 -1.7522  0.6467
  190SAPI   C2721949   4.821   1.046   5.803  0.3267  0.0704 -0.1809
  190SAPI   H7R21950   4.762   1.012   5.715 -0.0326  0.7389 -0.2049
  190SAPI   H7S21951   4.753   1.050   5.891  0.4817 -0.5027 -0.0343
  190SAPI   C2821952   4.936   0.952   5.841  0.0386  0.5659 -0.1164
  190SAPI   H8R21953   5.027   1.009   5.864 -1.1450  2.0143  1.0808
  190SAPI   C2921954   4.937   0.817   5.851  0.1377  0.2866  0.3580
  190SAPI   H9R21955   5.027   0.764   5.885 -1.0637 -0.2484  2.8511
  190SAPI  C21021956   4.824   0.725   5.820  0.1376  0.0208 -0.0771
  190SAPI  H10R21957   4.862   0.672   5.731  0.1371  1.1959 -0.7912
  190SAPI  H10S21958   4.738   0.790   5.791  0.8673  1.4913  0.9750
  190SAPI  C21121959   4.781   0.626   5.922  0.0070  0.0761 -0.3121
  190SAPI  H11R21960   4.840   0.534   5.929 -0.8893 -0.4154  1.2339
  190SAPI  C21221961   4.677   0.635   6.002 -0.6312 -0.3862 -0.7224
  190SAPI  H12R21962   4.662   0.556   6.076 -0.6209  0.0306 -0.2755
  190SAPI  C21321963   4.574   0.744   6.003 -0.6906  0.5724  0.5506
  190SAPI  H13R21964   4.609   0.836   5.951 -2.4750  0.1790 -1.4306
  190SAPI  H13S21965   4.571   0.775   6.110  0.2259 -0.2266  0.8080
  190SAPI  C21421966   4.439   0.687   5.950 -0.5167 -0.1274 -0.0228
  190SAPI  H14R21967   4.370   0.639   6.021 -0.5119  2.0000  1.4666
  190SAPI  C21521968   4.395   0.706   5.823  0.0296  0.6678 -0.1637
  190SAPI  H15R21969   4.304   0.652   5.793  0.4849  0.1579 -0.6501
  190SAPI  C21621970   4.468   0.774   5.713  0.2912  0.6040 -0.7126
  190SAPI  H16R21971   4.530   0.698   5.662 -1.7163 -2.0040  0.6424
  190SAPI  H16S21972   4.531   0.864   5.734  1.3120 -0.2940  0.1638
  190SAPI  C21721973   4.365   0.831   5.606  0.2704 -1.0581  0.1054
  190SAPI  H17R21974   4.308   0.744   5.566  0.7254 -0.6265 -1.5103
  190SAPI  H17S21975   4.421   0.861   5.515 -1.0272 -0.3580 -0.4719
  190SAPI  C21821976   4.252   0.930   5.653  0.7722 -0.0315  0.3518
  190SAPI  H18R21977   4.289   1.024   5.700  2.7709 -0.9132  0.5842
  190SAPI  H18S21978   4.191   0.875   5.727  1.2202 -0.2814  0.5403
  190SAPI  C21921979   4.165   0.978   5.530  0.3474  0.1865 -0.4601
  190SAPI  H19R21980   4.220   1.059   5.479 -0.4993  0.7812 -0.4326
  190SAPI  H19S21981   4.068   1.019   5.567  0.3602  0.3020 -0.5539
  190SAPI  C22021982   4.134   0.874   5.426  0.1490  0.0390  0.2728
  190SAPI  H20R21983   4.218   0.842   5.361 -0.3242  1.3935 -1.0251
  190SAPI  H20S21984   4.048   0.916   5.370 -0.0785 -0.3333  0.3429
  190SAPI  H20T21985   4.092   0.786   5.479 -1.1831  0.1966 -0.4939
  190SAPI   C3321986   5.222   0.570   5.728 -0.3170 -0.2704  0.1388
  190SAPI   H3X21987   5.207   0.676   5.700 -1.3079 -0.7339 -1.1064
  190SAPI   H3Y21988   5.136   0.539   5.792  0.6882 -0.8165  1.2356
  190SAPI   C3421989   5.224   0.500   5.593  0.1991 -0.1672 -0.5689
  190SAPI   H4X21990   5.221   0.391   5.616  1.2852 -0.6227 -2.4149
  190SAPI   H4Y21991   5.305   0.523   5.519  0.3717  0.3624 -0.2175
  190SAPI   C3521992   5.090   0.510   5.510  0.1546  0.6622  0.3303
  190SAPI   H5X21993   5.013   0.477   5.582 -1.0630 -1.2712 -1.7910
  190SAPI   H5Y21994   5.086   0.431   5.432 -1.3083  0.5856  0.4838
  190SAPI   C3621995   5.071   0.654   5.456  0.7380  0.1510  0.6134
  190SAPI   H6X21996   5.152   0.680   5.385 -1.9993  2.0644 -1.9476
  190SAPI   H6Y21997   5.069   0.729   5.539 -0.9597  2.4877 -1.4625
  190SAPI   C3721998   4.940   0.663   5.378  0.9431 -0.2253 -0.2663
  190SAPI   H7X21999   4.851   0.651   5.443  0.0094  0.1037 -1.4558
  190SAPI   H7Y22000   4.927   0.567   5.323 -1.4929  0.9046 -1.7551
  190SAPI   C3822001   4.925   0.793   5.298 -0.0423 -0.4239 -0.1266
  190SAPI   H8X22002   5.027   0.819   5.261  0.3276 -2.1470 -0.3597
  190SAPI   H8Y22003   4.895   0.877   5.364 -1.0318 -0.8653 -0.0016
  190SAPI   C3922004   4.821   0.778   5.185  0.1637 -0.0940  0.1835
  190SAPI   H9X22005   4.717   0.760   5.221  0.2452 -3.7177 -1.1059
  190SAPI   H9Y22006   4.857   0.697   5.117 -1.2280  0.2000 -0.9231
  190SAPI  C31022007   4.819   0.904   5.093 -0.8511  0.1101 -0.2707
  190SAPI  H10X22008   4.924   0.923   5.063 -0.3911  0.5868  1.5788
  190SAPI  H10Y22009   4.793   0.984   5.167 -0.9492 -0.8346  0.7365
  190SAPI  C31122010   4.727   0.906   4.976 -0.0920  0.1216  0.2373
  190SAPI  H11X22011   4.627   0.878   5.016  1.4092 -3.4814  1.7135
  190SAPI  H11Y22012   4.747   0.816   4.913  0.0897 -0.7743  1.5728
  190SAPI  C31222013   4.729   1.027   4.885 -0.3426 -0.0553  0.9226
  190SAPI  H12X22014   4.834   1.049   4.855 -0.1715 -0.8496  0.9182
  190SAPI  H12Y22015   4.684   1.115   4.936  1.0212  1.7163 -0.8562
  190SAPI  C31322016   4.657   0.998   4.754 -0.0772 -0.0306 -0.2150
  190SAPI  H13X22017   4.559   0.957   4.785  0.1900  0.5094  1.3611
  190SAPI  H13Y22018   4.708   0.912   4.704 -0.9070 -0.0722 -1.0074
  190SAPI  C31422019   4.635   1.117   4.657  0.1045 -0.4394 -0.2784
  190SAPI  H14X22020   4.733   1.156   4.621  0.3122  0.6016  1.3676
  190SAPI  H14Y22021   4.579   1.190   4.719 -1.5107 -0.2030 -1.9618
  190SAPI  C31522022   4.545   1.090   4.545  0.2863  0.0468  0.5104
  190SAPI  H15X22023   4.456   1.029   4.571  0.0064  0.1595 -0.1622
  190SAPI  H15Y22024   4.594   1.032   4.464 -1.8070  0.9232 -1.4461
  190SAPI  C31622025   4.508   1.232   4.483 -0.2072  0.0796 -0.4421
  190SAPI  H16X22026   4.601   1.291   4.495 -0.3168  0.2040 -0.2174
  190SAPI  H16Y22027   4.429   1.282   4.543 -1.5267 -2.5274  0.1165
  190SAPI  C31722028   4.461   1.227   4.337 -0.7636 -0.1427 -0.9536
  190SAPI  H17X22029   4.431   1.331   4.314 -2.1450  0.0096  1.3548
  190SAPI  H17Y22030   4.372   1.162   4.329 -1.0111  0.2024 -0.9971
  190SAPI  C31822031   4.575   1.190   4.236 -0.2243 -0.2530 -0.1087
  190SAPI  H18X22032   4.671   1.235   4.270 -0.6840  1.0750 -0.5392
  190SAPI  H18Y22033   4.558   1.240   4.138  0.2479 -0.0448 -0.0882
  190SAPI  H18Z22034   4.575   1.079   4.238  1.7402 -0.2638  0.8334
  191SAPI   C1222035   1.138   5.433   2.002  0.1085  0.6409 -0.0683
  191SAPI    H222036   1.076   5.457   2.090  1.1923 -0.7382  1.0946
  191SAPI    O222037   1.246   5.355   2.054  0.1458 -0.3798 -0.1210
  191SAPI   HO222038   1.213   5.302   2.127 -1.4267  0.4885 -0.1809
  191SAPI   C1322039   1.046   5.369   1.899 -0.8731 -0.3081 -0.0408
  191SAPI    H322040   0.962   5.436   1.872 -1.7659 -0.4204  2.3060
  191SAPI    O322041   0.994   5.244   1.941  0.1591  0.0644  0.0034
  191SAPI   HO322042   0.963   5.195   1.865  2.5817  0.0213 -1.0074
  191SAPI   C1422043   1.127   5.356   1.763  0.5457  0.4091 -0.0159
  191SAPI    H422044   1.216   5.294   1.790 -2.6737 -3.0041  3.3800
  191SAPI    O422045   1.050   5.296   1.657  0.0606  0.2585  0.4232
  191SAPI   HO422046   1.095   5.225   1.611  0.6610  2.2628 -2.2024
  191SAPI   C1522047   1.174   5.491   1.719 -0.1962 -0.6100 -0.2380
  191SAPI    H522048   1.081   5.552   1.708 -1.8331 -2.3907  2.9383
  191SAPI    O522049   1.247   5.497   1.598 -0.1086  0.4447 -0.1331
  191SAPI   HO522050   1.313   5.567   1.609 -0.1510  0.2318  1.6256
  191SAPI   C1622051   1.250   5.564   1.829 -0.0637 -0.3241 -0.3327
  191SAPI    H622052   1.344   5.506   1.842  3.2290  4.5139 -1.0176
  191SAPI    O622053   1.293   5.691   1.779 -0.0132 -0.7515  0.0348
  191SAPI   HO622054   1.360   5.734   1.833 -1.7145  1.1155  0.7047
  191SAPI   C1122055   1.173   5.575   1.956 -0.0019  0.4294 -0.1218
  191SAPI    H122056   1.075   5.619   1.928  0.2508  1.6891  0.9348
  191SAPI     P22057   1.173   5.741   2.174 -0.0963  0.3904 -0.1160
  191SAPI   O1322058   1.048   5.780   2.113  0.1269  0.2995  0.1079
  191SAPI   O1422059   1.269   5.846   2.217  0.1853 -0.3564  0.5542
  191SAPI   O1222060   1.243   5.648   2.058 -0.1654 -0.3786  0.5863
  191SAPI   O1122061   1.144   5.643   2.289 -0.0635  0.1544  0.3793
  191SAPI    C122062   1.224   5.534   2.338 -0.3164 -0.4640  0.6373
  191SAPI    HA22063   1.172   5.436   2.327  1.3495 -1.2513 -0.5344
  191SAPI    HB22064   1.323   5.523   2.288 -1.3443  0.6739 -1.7247
  191SAPI    C222065   1.250   5.543   2.492 -0.4996 -0.9099 -0.3876
  191SAPI    HS22066   1.149   5.542   2.539 -0.5671  2.5810 -0.2962
  191SAPI   O2122067   1.316   5.662   2.532 -0.1602  0.1203  0.3479
  191SAPI   C2122068   1.243   5.758   2.580 -0.5869 -0.1909  0.6242
  191SAPI   O2222069   1.127   5.760   2.611 -0.0424  0.8533 -0.4567
  191SAPI   C2222070   1.344   5.871   2.593 -0.3277  0.0849  0.1145
  191SAPI   H2R22071   1.438   5.842   2.645 -0.5913  1.7395  1.5564
  191SAPI   H2S22072   1.362   5.910   2.491  0.0033  0.6438  0.3849
  191SAPI    C322073   1.338   5.417   2.538 -0.1746 -0.1129 -0.1335
  191SAPI    HX22074   1.314   5.320   2.490 -0.8542  0.5868 -1.2179
  191SAPI    HY22075   1.313   5.391   2.643  0.4200  0.3330  0.1196
  191SAPI   O3122076   1.481   5.450   2.516 -0.1674 -0.0677 -0.6365
  191SAPI   C3122077   1.555   5.429   2.629  0.1045  0.1266 -0.0288
  191SAPI   O3222078   1.534   5.355   2.719 -0.1985 -0.3238 -0.6566
  191SAPI   C3222079   1.677   5.530   2.622 -0.2072  0.6146  0.3531
  191SAPI   H2X22080   1.700   5.556   2.516  0.5834 -3.1125 -0.4615
  191SAPI   H2Y22081   1.763   5.478   2.670 -1.2848 -0.3994  1.2143
  191SAPI   C2322082   1.280   5.978   2.687 -0.5618 -0.0774  0.1472
  191SAPI   H3R22083   1.278   5.945   2.793 -0.4950  0.8619  0.4450
  191SAPI   H3S22084   1.177   6.000   2.652  0.2015  2.6299 -0.4752
  191SAPI   C2422085   1.372   6.102   2.689 -0.3200  0.6948  0.6591
  191SAPI   H4R22086   1.417   6.111   2.588 -1.9832 -2.5244 -0.4478
  191SAPI   H4S22087   1.460   6.078   2.752  0.6263  0.5854 -0.6664
  191SAPI   C2522088   1.295   6.228   2.730 -0.0800 -0.2309 -0.3799
  191SAPI   H5R22089   1.217   6.255   2.658 -0.9637 -1.8797 -0.0665
  191SAPI   C2622090   1.308   6.298   2.840 -0.2058 -0.6181 -0.2896
  191SAPI   H6R22091   1.237   6.381   2.850  0.6812  0.5333 -3.2016
  191SAPI   C2722092   1.397   6.262   2.958 -0.7933 -0.3823 -0.1197
  191SAPI   H7R22093   1.462   6.350   2.980 -1.9118  0.6416 -0.8499
  191SAPI   H7S22094   1.477   6.185   2.944 -1.8400 -1.3919 -0.6446
  191SAPI   C2822095   1.306   6.223   3.071 -0.0072  0.3292 -0.2315
  191SAPI   H8R22096   1.304   6.115   3.092 -1.0722 -0.0091 -2.0104
  191SAPI   C2922097   1.238   6.302   3.155  0.2090 -0.1120 -0.8906
  191SAPI   H9R22098   1.182   6.262   3.241  0.4595  0.7408 -0.3170
  191SAPI  C21022099   1.242   6.454   3.153 -0.3554 -0.2223  0.3685
  191SAPI  H10R22100   1.276   6.496   3.056  1.1689  0.0251  0.9982
  191SAPI  H10S22101   1.328   6.486   3.216 -1.0133  0.0353  1.1431
  191SAPI  C21122102   1.119   6.520   3.200  0.9715  0.0148  0.1915
  191SAPI  H11R22103   1.058   6.558   3.117  1.7146 -1.9141 -1.2830
  191SAPI  C21222104   1.069   6.531   3.329 -0.2482  0.3210  0.4385
  191SAPI  H12R22105   0.968   6.574   3.332 -0.1729  0.4542  1.0094
  191SAPI  C21322106   1.128   6.489   3.460  0.5113  0.3374  0.5066
  191SAPI  H13R22107   1.185   6.397   3.435 -0.5872 -0.8457  2.2088
  191SAPI  H13S22108   1.038   6.450   3.511  0.0921 -1.1619 -1.3338
  191SAPI  C21422109   1.201   6.580   3.555 -0.8910  0.2857 -0.0885
  191SAPI  H14R22110   1.280   6.646   3.517  1.1362 -1.5744  0.8130
  191SAPI  C21522111   1.209   6.570   3.686 -0.4927 -1.4267  0.0433
  191SAPI  H15R22112   1.262   6.646   3.746  1.8677 -2.3047 -0.8998
  191SAPI  C21622113   1.136   6.464   3.758 -0.1965 -0.6684 -0.2809
  191SAPI  H16R22114   1.180   6.363   3.742  2.7179  0.6128 -0.6939
  191SAPI  H16S22115   1.035   6.467   3.713 -0.4724  0.2020  0.3853
  191SAPI  C21722116   1.133   6.474   3.911  0.1610  0.1910  0.0014
  191SAPI  H17R22117   1.082   6.381   3.944  1.7977 -1.2763 -1.4865
  191SAPI  H17S22118   1.061   6.552   3.945 -2.1059 -2.2492  1.0323
  191SAPI  C21822119   1.272   6.473   3.978 -0.7597  0.0227 -0.2663
  191SAPI  H18R22120   1.331   6.562   3.947  1.2074 -1.9340 -2.3777
  191SAPI  H18S22121   1.339   6.387   3.954 -2.5563 -0.8119 -2.4883
  191SAPI  C21922122   1.248   6.473   4.132 -0.0886 -0.0217  0.1500
  191SAPI  H19R22123   1.199   6.375   4.152 -1.9409  0.5835 -1.2106
  191SAPI  H19S22124   1.175   6.550   4.167  1.6236  1.3673  0.7398
  191SAPI  C22022125   1.380   6.504   4.205  0.4017 -0.1538  0.4523
  191SAPI  H20R22126   1.451   6.435   4.155  1.0214  1.1510 -0.4875
  191SAPI  H20S22127   1.376   6.473   4.312 -1.6071 -0.0640  0.4181
  191SAPI  H20T22128   1.411   6.611   4.199 -0.2990  0.0730  0.7925
  191SAPI   C3322129   1.670   5.662   2.701 -0.6091  0.3516 -0.7117
  191SAPI   H3X22130   1.582   5.717   2.661 -0.4343 -0.2052 -1.8953
  191SAPI   H3Y22131   1.768   5.711   2.682 -0.7880  0.1065 -2.3957
  191SAPI   C3422132   1.633   5.638   2.842 -0.1461 -0.6077 -0.4166
  191SAPI   H4X22133   1.696   5.567   2.899  1.6920  0.6783 -0.7776
  191SAPI   H4Y22134   1.536   5.584   2.848 -0.0703 -0.6326  0.6832
  191SAPI   C3522135   1.634   5.773   2.917  0.2724 -0.3987 -0.2239
  191SAPI   H5X22136   1.566   5.834   2.855  1.4689  1.2952  0.0978
  191SAPI   H5Y22137   1.731   5.826   2.911  0.2335  0.0764  2.5309
  191SAPI   C3622138   1.573   5.767   3.061 -0.4920  0.2144 -0.0204
  191SAPI   H6X22139   1.640   5.691   3.107  0.7275  1.0045 -0.4407
  191SAPI   H6Y22140   1.468   5.731   3.065 -0.1054 -0.7819  1.2357
  191SAPI   C3722141   1.606   5.894   3.146 -0.1787  0.5353 -0.0399
  191SAPI   H7X22142   1.620   5.983   3.081 -2.8515  0.6519 -0.5324
  191SAPI   H7Y22143   1.702   5.874   3.197 -0.2823 -2.2999 -0.8653
  191SAPI   C3822144   1.492   5.917   3.244 -1.0733  0.7471 -0.3173
  191SAPI   H8X22145   1.481   5.836   3.318 -1.7827  2.0031  0.9656
  191SAPI   H8Y22146   1.396   5.921   3.189  0.7650 -1.8684 -3.9753
  191SAPI   C3922147   1.498   6.036   3.329  0.1886 -0.0090  0.3220
  191SAPI   H9X22148   1.510   6.128   3.268 -2.3578  1.5383  2.0629
  191SAPI   H9Y22149   1.591   6.048   3.389 -0.5396  2.1249  1.0723
  191SAPI  C31022150   1.381   6.034   3.429 -0.2916  0.1481  0.3636
  191SAPI  H10X22151   1.366   5.930   3.467 -0.3407  0.4423  1.1494
  191SAPI  H10Y22152   1.296   6.071   3.368  1.3567  2.2507 -0.6791
  191SAPI  C31122153   1.385   6.122   3.553  0.7167 -0.4926  0.3503
  191SAPI  H11X22154   1.291   6.109   3.611  0.5754 -0.5151  0.1144
  191SAPI  H11Y22155   1.383   6.227   3.518 -2.1487  0.0401  1.9883
  191SAPI  C31222156   1.508   6.095   3.634 -0.6756 -0.0032 -0.2466
  191SAPI  H12X22157   1.596   6.131   3.577 -0.0780  0.4906  0.9729
  191SAPI  H12Y22158   1.517   5.984   3.642 -0.6383  0.0742  0.8973
  191SAPI  C31322159   1.495   6.154   3.781  0.3678 -0.3035 -0.3230
  191SAPI  H13X22160   1.392   6.127   3.815 -1.1780  2.5759 -2.4960
  191SAPI  H13Y22161   1.484   6.264   3.774 -1.3262 -0.4730 -0.6912
  191SAPI  C31422162   1.599   6.085   3.869 -0.4003 -0.3982 -0.8087
  191SAPI  H14X22163   1.700   6.099   3.827  0.0710  1.2912  0.8334
  191SAPI  H14Y22164   1.574   5.976   3.874 -0.3238 -0.3946 -0.3091
  191SAPI  C31522165   1.593   6.125   4.016 -0.0592 -0.6656 -0.6551
  191SAPI  H15X22166   1.488   6.143   4.049  0.0327 -1.5088  0.1191
  191SAPI  H15Y22167   1.641   6.223   4.035  0.3513 -0.9957  0.0133
  191SAPI  C31622168   1.663   6.030   4.120 -0.7494 -0.0560  0.2137
  191SAPI  H16X22169   1.590   5.946   4.116  2.1785 -2.5878 -2.4064
  191SAPI  H16Y22170   1.669   6.072   4.222  1.5420 -1.8411  0.8511
  191SAPI  C31722171   1.803   5.972   4.080 -0.0441 -0.2981  0.4086
  191SAPI  H17X22172   1.862   6.058   4.042  1.2193 -2.0497 -1.7555
  191SAPI  H17Y22173   1.783   5.899   3.999  0.9477 -0.8758  0.6728
  191SAPI  C31822174   1.886   5.911   4.190 -0.0403  0.4579 -0.5082
  191SAPI  H18X22175   1.832   5.831   4.244  1.4926  0.8198  1.6306
  191SAPI  H18Y22176   1.922   5.986   4.264  2.1698  0.5352 -1.6227
  191SAPI  H18Z22177   1.983   5.866   4.158  0.6144 -0.0080  2.0031
  192SAPI   C1222178   3.008   7.172   1.986  0.1172 -0.1352  0.0685
  192SAPI    H222179   3.118   7.168   1.996  0.4133  3.8271 -0.5776
  192SAPI    O222180   2.977   7.262   1.878 -0.1412 -0.1517  0.1828
  192SAPI   HO222181   3.006   7.352   1.894 -2.2605  0.6708 -0.3869
  192SAPI   C1322182   2.958   7.029   1.956 -0.3155  0.2879  0.1875
  192SAPI    H322183   2.990   6.967   2.042 -0.9847  0.5808  0.6537
  192SAPI    O322184   3.028   6.981   1.844  0.1860  0.1409  0.0889
  192SAPI   HO322185   3.102   6.927   1.874  0.6814  0.9418  0.3184
  192SAPI   C1422186   2.805   7.021   1.959  0.2722  0.5122  0.7212
  192SAPI    H422187   2.760   7.092   1.887 -3.0018  0.4477  2.6165
  192SAPI    O422188   2.755   6.894   1.924 -0.1437 -0.0809 -0.5218
  192SAPI   HO422189   2.660   6.902   1.914 -0.1819  2.4565  1.2185
  192SAPI   C1522190   2.750   7.077   2.088 -0.2508 -0.4334  0.1247
  192SAPI    H522191   2.788   7.014   2.172 -1.2544  1.2176  1.8590
  192SAPI    O522192   2.604   7.066   2.098  0.4976 -0.4892 -0.1536
  192SAPI   HO522193   2.590   7.010   2.174  2.7249  0.3969  0.9544
  192SAPI   C1622194   2.799   7.224   2.107  0.9895  1.0303  0.1929
  192SAPI    H622195   2.762   7.279   2.019 -0.5476  0.7685  0.6540
  192SAPI    O622196   2.744   7.273   2.231  0.8405 -0.1258  0.2309
  192SAPI   HO622197   2.687   7.212   2.278 -1.8668  1.5794 -0.7199
  192SAPI   C1122198   2.946   7.226   2.115 -0.1737 -0.0378 -0.5507
  192SAPI    H122199   2.972   7.160   2.201  2.9453  1.4551 -0.2649
  192SAPI     P22200   3.135   7.378   2.219 -0.1077  0.2920 -0.0319
  192SAPI   O1322201   3.169   7.520   2.197  0.0063 -0.0030  0.3568
  192SAPI   O1422202   3.233   7.281   2.168  0.5828 -0.2587 -0.4525
  192SAPI   O1222203   2.989   7.357   2.140  0.0447 -0.7525  0.2672
  192SAPI   O1122204   3.111   7.353   2.374 -0.0825  0.1511 -0.5215
  192SAPI    C122205   2.983   7.380   2.436  0.2261  0.4360  0.2581
  192SAPI    HA22206   2.973   7.488   2.460 -1.2438  0.7349 -1.5649
  192SAPI    HB22207   2.906   7.349   2.363  0.0716  1.0394  0.1595
  192SAPI    C222208   2.955   7.305   2.572 -0.0627 -0.1674 -0.5678
  192SAPI    HS22209   2.845   7.313   2.585 -0.1078 -2.3201  0.5761
  192SAPI   O2122210   3.027   7.370   2.678  0.0339 -1.2504  0.2126
  192SAPI   C2122211   2.972   7.347   2.796 -0.3280 -0.2543  0.1346
  192SAPI   O2222212   2.866   7.298   2.823 -0.7723 -0.1176  0.2209
  192SAPI   C2222213   3.071   7.403   2.902 -0.4054  0.1005  0.1421
  192SAPI   H2R22214   3.139   7.485   2.871 -0.9442  0.6156  0.3073
  192SAPI   H2S22215   2.995   7.453   2.967 -2.2706  0.2164 -2.0714
  192SAPI    C322216   2.997   7.159   2.556 -0.2727 -0.9281  0.2172
  192SAPI    HX22217   3.105   7.155   2.530 -0.2240  0.5416  0.1422
  192SAPI    HY22218   2.950   7.109   2.469  2.2512 -0.5396 -1.4487
  192SAPI   O3122219   2.993   7.081   2.677  0.4702  0.1695 -0.1406
  192SAPI   C3122220   2.873   7.009   2.697  0.5565 -0.0166 -0.5828
  192SAPI   O3222221   2.783   7.008   2.615 -0.2810 -0.8508 -0.1911
  192SAPI   C3222222   2.884   6.931   2.831  0.5100  0.3109  0.3116
  192SAPI   H2X22223   2.791   6.872   2.842  0.1838  1.2442  3.0028
  192SAPI   H2Y22224   2.892   6.999   2.919  2.2962 -0.7463  1.0088
  192SAPI   C2322225   3.149   7.293   2.967 -0.2552 -0.8089 -0.0157
  192SAPI   H3R22226   3.255   7.327   2.978 -0.0796 -1.9756  2.2392
  192SAPI   H3S22227   3.151   7.199   2.907  1.8257 -0.5535 -0.4150
  192SAPI   C2422228   3.098   7.247   3.103 -0.2647  0.2079 -0.2724
  192SAPI   H4R22229   3.156   7.155   3.126 -0.8805  0.5032  2.6513
  192SAPI   H4S22230   2.994   7.212   3.083  0.0427 -0.1036 -1.3790
  192SAPI   C2522231   3.114   7.353   3.212 -0.4935  0.5324  0.1254
  192SAPI   H5R22232   3.218   7.373   3.240 -0.2218 -0.6268 -0.0281
  192SAPI   C2622233   3.024   7.413   3.288  0.2450  0.0182 -0.2554
  192SAPI   H6R22234   3.051   7.479   3.372  2.7707  0.2081 -1.1556
  192SAPI   C2722235   2.883   7.384   3.278  0.6983 -0.2533 -0.1163
  192SAPI   H7R22236   2.855   7.346   3.177  0.1281  1.0447 -0.4490
  192SAPI   H7S22237   2.831   7.481   3.294 -0.6847 -1.3151  2.2583
  192SAPI   C2822238   2.839   7.295   3.393  0.5721 -0.0542 -0.2161
  192SAPI   H8R22239   2.854   7.189   3.368 -0.0646 -0.1091 -0.3802
  192SAPI   C2922240   2.800   7.329   3.514 -0.1072 -0.4177  0.2322
  192SAPI   H9R22241   2.786   7.256   3.595 -4.7032  1.6209  1.4680
  192SAPI  C21022242   2.798   7.471   3.566 -0.0302  0.2626  0.5065
  192SAPI  H10R22243   2.710   7.495   3.630 -0.4714  0.5944 -0.2151
  192SAPI  H10S22244   2.781   7.543   3.482 -0.4713 -0.6308 -0.1875
  192SAPI  C21122245   2.923   7.495   3.648 -0.1562  0.1648 -0.4168
  192SAPI  H11R22246   3.003   7.426   3.618  0.9805  1.2543  0.0475
  192SAPI  C21222247   2.941   7.584   3.753 -0.2392 -0.4593 -0.6984
  192SAPI  H12R22248   3.040   7.590   3.800  0.0492 -2.8549 -0.8985
  192SAPI  C21322249   2.833   7.679   3.808 -0.2880  0.0965  0.2530
  192SAPI  H13R22250   2.827   7.655   3.917  2.8605  2.1751  0.9551
  192SAPI  H13S22251   2.736   7.666   3.755 -0.9476  2.4831  0.7971
  192SAPI  C21422252   2.889   7.817   3.773  0.0948 -0.5117 -0.6690
  192SAPI  H14R22253   2.944   7.835   3.680  0.0364  1.7227 -0.3042
  192SAPI  C21522254   2.870   7.929   3.845 -0.1647 -0.3447  0.3053
  192SAPI  H15R22255   2.916   8.021   3.806 -1.5372  0.4521  0.5709
  192SAPI  C21622256   2.795   7.946   3.975  0.2299  0.1644 -0.0683
  192SAPI  H16R22257   2.739   7.854   4.003  0.7303  0.4726  2.0350
  192SAPI  H16S22258   2.710   8.018   3.969 -1.9624 -2.0753  2.6624
  192SAPI  C21722259   2.883   7.972   4.101 -0.2808 -0.3851  0.0749
  192SAPI  H17R22260   2.807   7.972   4.182 -1.3873  2.1973 -0.8671
  192SAPI  H17S22261   2.930   8.073   4.094  0.6170 -0.6292  2.1982
  192SAPI  C21822262   2.993   7.867   4.122  0.0058 -0.4340  0.8074
  192SAPI  H18R22263   3.076   7.875   4.048 -0.6268  4.0565  0.4425
  192SAPI  H18S22264   2.959   7.762   4.114 -3.1927  0.5768  0.5519
  192SAPI  C21922265   3.062   7.895   4.260 -0.1449 -0.9866 -0.5817
  192SAPI  H19R22266   3.095   8.000   4.276 -0.5060 -1.0633  0.7560
  192SAPI  H19S22267   3.166   7.857   4.252  1.8615  4.0678 -0.6289
  192SAPI  C22022268   2.985   7.846   4.386  0.4287  0.3198 -0.0302
  192SAPI  H20R22269   2.881   7.883   4.403 -0.3545 -1.5336 -0.6201
  192SAPI  H20S22270   3.036   7.875   4.481 -0.8552  0.4456  0.6420
  192SAPI  H20T22271   2.961   7.737   4.386  1.6224  0.0561 -1.3843
  192SAPI   C3322272   3.004   6.842   2.841  0.0404  0.4211  0.0023
  192SAPI   H3X22273   3.104   6.890   2.842  0.1370  0.2237 -0.1119
  192SAPI   H3Y22274   3.009   6.780   2.749 -0.0862 -0.5105  0.6161
  192SAPI   C3422275   3.003   6.746   2.960 -0.0226  0.5228  0.0834
  192SAPI   H4X22276   3.098   6.690   2.972 -0.8390 -0.3713  2.8278
  192SAPI   H4Y22277   2.925   6.666   2.962 -0.4562  0.9553  0.3313
  192SAPI   C3522278   2.995   6.815   3.099 -0.1315 -0.3052 -0.1971
  192SAPI   H5X22279   3.026   6.921   3.090  0.4429 -0.3243  1.5013
  192SAPI   H5Y22280   3.066   6.764   3.167  1.6570 -0.4598 -2.1084
  192SAPI   C3622281   2.851   6.817   3.153 -0.0637 -0.8425 -0.4370
  192SAPI   H6X22282   2.813   6.716   3.180  0.7441 -0.3682  2.8110
  192SAPI   H6Y22283   2.791   6.853   3.068 -0.2670  1.6644  0.7263
  192SAPI   C3722284   2.816   6.911   3.271 -0.0487  0.8247  0.1178
  192SAPI   H7X22285   2.706   6.918   3.285 -0.1566 -1.4318  0.4939
  192SAPI   H7Y22286   2.853   7.012   3.243 -1.2596  1.4564  0.7925
  192SAPI   C3822287   2.863   6.860   3.406  0.3517  0.2399  0.3056
  192SAPI   H8X22288   2.970   6.835   3.395  0.7558  1.1793  2.0045
  192SAPI   H8Y22289   2.814   6.761   3.423 -1.9963  1.4448  0.7797
  192SAPI   C3922290   2.834   6.938   3.537  0.5367 -0.5807  0.0951
  192SAPI   H9X22291   2.728   6.972   3.535  1.4954  2.5323 -0.0433
  192SAPI   H9Y22292   2.890   7.033   3.542 -0.7332  0.1839 -0.0967
  192SAPI  C31022293   2.865   6.861   3.668 -0.4748 -0.1483 -0.5509
  192SAPI  H10X22294   2.968   6.824   3.651 -0.8618 -1.4260 -0.1934
  192SAPI  H10Y22295   2.801   6.770   3.679 -0.1319 -0.4381 -0.9076
  192SAPI  C31122296   2.867   6.953   3.791  0.0776 -0.2138  0.0071
  192SAPI  H11X22297   2.771   7.006   3.808 -1.0441 -2.3087  0.3773
  192SAPI  H11Y22298   2.946   7.029   3.774  0.5850 -0.7369  0.0056
  192SAPI  C31222299   2.910   6.877   3.916 -0.2398  0.0866  0.0129
  192SAPI  H12X22300   2.840   6.793   3.933 -1.0232  0.6179 -0.5443
  192SAPI  H12Y22301   2.903   6.943   4.005 -1.0198 -1.8507  1.4253
  192SAPI  C31322302   3.053   6.831   3.910  0.0267 -0.2128 -0.5036
  192SAPI  H13X22303   3.120   6.914   3.877  0.5158  0.0272  1.0585
  192SAPI  H13Y22304   3.074   6.744   3.844  1.1940  0.0221 -0.4642
  192SAPI  C31422305   3.104   6.798   4.052  0.3678 -0.0841 -0.1639
  192SAPI  H14X22306   3.049   6.709   4.090 -1.3214  0.5962 -0.9293
  192SAPI  H14Y22307   3.070   6.878   4.121  0.3105  0.4923 -0.8528
  192SAPI  C31522308   3.254   6.780   4.061  0.6791 -0.6038  0.0250
  192SAPI  H15X22309   3.287   6.719   3.974  0.2689  1.5054 -1.6333
  192SAPI  H15Y22310   3.272   6.734   4.161  0.3890 -0.0914  0.3131
  192SAPI  C31622311   3.337   6.907   4.065  0.1410 -0.1197  0.2318
  192SAPI  H16X22312   3.297   6.973   4.145 -1.7062 -1.4826  0.4742
  192SAPI  H16Y22313   3.328   6.967   3.972 -1.5006  0.7224  0.9045
  192SAPI  C31722314   3.488   6.882   4.100 -0.7299  0.9080  0.2539
  192SAPI  H17X22315   3.503   6.867   4.209  1.2609 -1.1218 -0.2413
  192SAPI  H17Y22316   3.535   6.980   4.077 -0.3408  0.9503  1.2100
  192SAPI  C31822317   3.551   6.764   4.029 -0.6843 -0.0021 -0.1982
  192SAPI  H18X22318   3.554   6.774   3.919  2.4586 -0.9032 -0.2454
  192SAPI  H18Y22319   3.497   6.672   4.057  1.0012 -0.6960  0.8391
  192SAPI  H18Z22320   3.658   6.757   4.056 -0.8124 -1.1533  0.0245
  193SOD    SOD22321   2.483   3.008   6.401 -0.2977 -0.1053 -0.2114
  194SOD    SOD22322   2.656   3.784   7.733 -0.5263 -0.2480 -0.0889
  195SOD    SOD22323   5.244   3.955   8.251 -0.1659 -0.1238 -0.0658
  196SOD    SOD22324   4.337   5.072   8.131  0.3945 -0.3655 -0.4631
  197SOD    SOD22325   4.325   5.852   1.938  0.1492 -0.0296 -0.2642
  198SOD    SOD22326   2.034   3.463   1.637 -0.3353 -0.2660 -0.2695
  199SOD    SOD22327   3.183   1.473   0.445  0.4075 -0.4631 -0.4647
  200SOD    SOD22328   1.295   2.462   2.280 -0.1211 -0.4001  0.0823
  201SOD    SOD22329   0.841   2.705   1.750  0.1602  0.2562  0.3342
  202SOD    SOD22330   1.629   2.484   1.660  0.0060 -0.1030 -0.3096
  203SOD    SOD22331   6.790   5.465   8.137 -0.5488  0.3606  0.7788
  204SOD    SOD22332   5.753   1.477   7.056 -0.3094  0.0839 -0.0875
  205SOD    SOD22333   3.910   4.036   7.768 -0.3470 -1.1110  0.1645
  206SOD    SOD22334   5.448   3.058   1.082  0.1761 -0.0432 -0.0162
  207SOD    SOD22335   1.984   3.515   6.170 -0.0682 -0.4099 -0.0425
  208SOD    SOD22336   5.535   6.454   0.523  0.6191  0.0195  0.3564
  209SOD    SOD22337   2.082   5.381   0.158  0.0510  0.5722  0.0851
  210SOD    SOD22338   2.331   1.389   7.571  0.1408  0.0347 -0.0025
  211SOD    SOD22339   2.307   1.131   8.428 -1.0090  0.0161  0.1545
  212SOD    SOD22340   4.630   0.110   7.915 -0.2630  0.2351 -0.2271
  213SOD    SOD22341   3.332   4.988   8.491 -0.0201  0.7704 -0.2482
  214SOD    SOD22342   3.469   0.642   6.939  0.0777  0.3561  0.2953
  215SOD    SOD22343   4.110   0.765   7.993  0.4412 -0.2817 -0.1537
  216SOD    SOD22344   4.500   3.340   7.739 -0.1780 -0.7384  0.1252
  217SOD    SOD22345   0.912   6.479   1.117 -0.0477 -0.1009 -0.5994
  218SOD    SOD22346   1.365   4.887   0.299 -0.4676  0.1029 -0.1945
  219SOD    SOD22347   4.954   6.271   0.921 -0.0857  0.5023  0.1320
  220SOD    SOD22348   5.943   2.775   1.288  0.1090 -0.4599 -0.1286
  221SOD    SOD22349   4.458   4.323   1.595  0.2035 -0.0642 -0.6710
  222SOD    SOD22350   2.649   6.260   6.582  0.2128  0.1036 -0.4651
  223SOD    SOD22351   2.931   6.731   6.899 -0.0449 -0.2588 -0.5252
  224SOD    SOD22352   7.255   0.239   2.296 -0.6009 -0.0609 -0.0747
  225SOD    SOD22353   0.067   6.304   6.022  0.2777  0.4191  0.3661
  226SOD    SOD22354   2.541   5.890   7.013 -0.7825  0.2754 -0.2072
  227SOD    SOD22355   1.958   4.804   8.220 -0.0842  0.3112  0.0520
  228SOD    SOD22356   4.970   0.379   8.457  0.0377 -0.0855 -0.3209
  229SOD    SOD22357   6.883   6.544   8.326  0.5878  0.3643 -0.3259
  230CLA    CLA22358   3.426   6.566   7.249  0.4998  0.1847  0.0023
  231CLA    CLA22359   4.875   7.251   0.124 -0.0780 -0.0801  0.5806
  232CLA    CLA22360   6.594   0.164   0.204 -0.0030  0.0214  0.4064
  233CLA    CLA22361   4.098   4.772   8.443 -0.0694  0.1302 -0.1810
  234CLA    CLA22362   5.170   4.798   0.108  0.0570  0.1546 -0.2023
  235CLA    CLA22363   6.304   5.474   8.169 -0.3926  0.0859 -0.3350
  236CLA    CLA22364   5.039   0.909   0.145 -0.1131  0.2008 -0.2114
  237CLA    CLA22365   0.441   3.794   1.930  0.0640  0.2944 -0.2315
  238CLA    CLA22366   5.636   3.036   1.752 -0.1747  0.1286 -0.1512
  239CLA    CLA22367   1.845   5.604   7.105 -0.2742  0.1883 -0.0537
  240CLA    CLA22368   2.212   5.537   7.897  0.3255  0.1064  0.3823
  241CLA    CLA22369   6.063   4.221   7.069  0.4209  0.1092 -0.0441
  242CLA    CLA22370   2.119   0.638   7.794  0.2323 -0.1586 -0.0767
  243CLA    CLA22371   4.579   0.965   8.223  0.0591 -0.0782  0.5639
  244CLA    CLA22372   4.988   3.864   8.223 -0.0468 -0.2687 -0.2789
  245CLA    CLA22373   3.156   3.769   7.613  0.1378  0.3455  0.0753
  246CLA    CLA22374   4.300   5.536   1.563  0.2146 -0.6102 -0.3269
  247TIP3   OH222375   3.148   4.108   7.662 -0.1269 -0.7806  0.3573
  247TIP3    H122376   3.192   4.044   7.606 -0.7331 -0.4914 -0.4566
  247TIP3    H222377   3.142   4.187   7.609 -0.5600 -0.4447  0.8909
  248TIP3   OH222378   4.091   4.078   6.267  0.9509  0.0479 -0.3014
  248TIP3    H122379   4.098   4.143   6.197  1.7221  0.3098  0.0032
  248TIP3    H222380   4.138   4.001   6.233  1.3919  0.2021 -0.0459
  249TIP3   OH222381   4.353   4.311   6.050 -0.0774 -0.5490  0.0056
  249TIP3    H122382   4.422   4.376   6.059  1.2486 -1.7460 -1.1612
  249TIP3    H222383   4.384   4.253   5.980 -2.0342 -1.3987 -0.1936
  250TIP3   OH222384   3.726   3.430   6.562 -0.1412  0.1852  0.4812
  250TIP3    H122385   3.683   3.510   6.591  1.8312  1.2026  0.6880
  250TIP3    H222386   3.702   3.422   6.470  0.7129  1.7463  0.1043
  251TIP3   OH222387   2.677   4.139   7.390 -0.5278  0.1144 -0.1276
  251TIP3    H122388   2.723   4.210   7.435  1.6953 -1.2873 -0.0830
  251TIP3    H222389   2.745   4.096   7.338 -1.5328 -2.8022  0.8630
  252TIP3   OH222390   4.841   5.167   6.165  0.2791 -0.8710  0.0489
  252TIP3    H122391   4.793   5.087   6.144 -0.8697  0.0759 -0.9868
  252TIP3    H222392   4.915   5.137   6.217 -0.7607 -2.4816  0.6301
  253TIP3   OH222393   4.012   4.370   6.570  0.2379  0.5936  0.4018
  253TIP3    H122394   4.058   4.450   6.596  0.3407  1.0930 -1.2660
  253TIP3    H222395   4.081   4.305   6.561  0.6381  1.3007 -1.9383
  254TIP3   OH222396   3.033   4.184   6.943  0.0660  0.1570  0.1188
  254TIP3    H122397   3.082   4.163   7.022  0.6862  0.2718 -0.2331
  254TIP3    H222398   3.043   4.278   6.931  0.5166  0.0419 -0.4512
  255TIP3   OH222399   4.098   4.547   6.867 -0.5592  0.4288 -0.1166
  255TIP3    H122400   4.046   4.627   6.861 -0.8750  0.2085 -0.3930
  255TIP3    H222401   4.124   4.529   6.777 -1.0924 -0.1648 -0.1584
  256TIP3   OH222402   2.757   2.835   6.076  0.2276 -0.4165  0.5851
  256TIP3    H122403   2.849   2.827   6.051  1.1414 -1.0210  3.9129
  256TIP3    H222404   2.730   2.746   6.098 -1.3275 -0.3251 -0.9005
  257TIP3   OH222405   3.971   2.572   6.556 -0.0776  0.0860 -0.1454
  257TIP3    H122406   4.028   2.546   6.629  1.8634  1.6839 -1.0424
  257TIP3    H222407   3.985   2.506   6.489 -0.0908 -0.0882  0.0218
  258TIP3   OH222408   2.783   2.187   6.458 -0.0151  0.3739 -0.5913
  258TIP3    H122409   2.694   2.209   6.485  0.7449  1.0316  1.5075
  258TIP3    H222410   2.780   2.094   6.436 -0.7799 -0.1351  1.5092
  259TIP3   OH222411   6.164   2.062   6.531  0.5649  0.2070  0.0246
  259TIP3    H122412   6.137   2.061   6.623 -0.0979 -1.0277 -0.1804
  259TIP3    H222413   6.225   2.136   6.525 -0.3956  1.0971  1.1638
  260TIP3   OH222414   5.757   2.554   6.421  0.6003  0.6372 -0.1781
  260TIP3    H122415   5.722   2.637   6.455  1.3778  0.0432  2.1444
  260TIP3    H222416   5.680   2.498   6.410  0.3265  0.8443  0.6213
  261TIP3   OH222417   2.305   3.117   6.231  0.2872  0.3241  0.3672
  261TIP3    H122418   2.385   3.164   6.209 -0.8474  2.0267 -0.2224
  261TIP3    H222419   2.294   3.053   6.161  0.1687  1.3114 -0.5175
  262TIP3   OH222420   4.565   3.361   7.242 -0.3531  0.5131 -0.6123
  262TIP3    H122421   4.625   3.295   7.276 -0.1663  0.8495 -0.2812
  262TIP3    H222422   4.522   3.319   7.167  1.0447  0.6202 -1.4925
  263TIP3   OH222423   5.585   3.899   6.211 -0.0350 -0.1182  0.0751
  263TIP3    H122424   5.518   3.845   6.168  0.1335 -1.2344  1.1773
  263TIP3    H222425   5.578   3.984   6.168 -2.2792 -0.1614  0.2813
  264TIP3   OH222426   5.051   3.565   6.530 -0.1339 -0.3718  0.0993
  264TIP3    H122427   5.005   3.642   6.495  0.0194 -0.2409  0.1841
  264TIP3    H222428   5.105   3.534   6.458  0.0753 -0.1859  0.1750
  265TIP3   OH222429   4.567   3.783   6.331 -0.2385  0.3367 -0.5614
  265TIP3    H122430   4.617   3.731   6.268 -1.5006 -1.8970  0.2223
  265TIP3    H222431   4.543   3.862   6.283  2.1362  0.4554 -1.6249
  266TIP3   OH222432   3.629   1.970   7.265 -0.1551 -0.4395  0.0713
  266TIP3    H122433   3.710   1.921   7.273  1.5519  2.2213 -0.3585
  266TIP3    H222434   3.618   2.013   7.349  0.8932  2.1591 -1.0723
  267TIP3   OH222435   5.055   1.984   7.980 -0.3239  0.0879  0.4614
  267TIP3    H122436   5.063   1.899   7.938 -0.6809  0.0267  0.5158
  267TIP3    H222437   5.071   1.966   8.073 -1.3874 -0.0878  0.6165
  268TIP3   OH222438   3.835   7.169   7.755 -0.4787 -0.0037 -0.0499
  268TIP3    H122439   3.861   7.242   7.698  0.9470 -1.7319 -1.7127
  268TIP3    H222440   3.918   7.132   7.785 -1.1546 -1.7427 -0.2847
  269TIP3   OH222441   2.115   0.262   6.681  0.1773  0.6505 -0.0892
  269TIP3    H122442   2.064   0.194   6.724  1.0897  0.3034  0.4424
  269TIP3    H222443   2.206   0.236   6.693  0.5357  1.9604  0.1041
  270TIP3   OH222444   2.451   5.757   6.311  0.1277  0.2717 -0.2201
  270TIP3    H122445   2.426   5.704   6.235 -1.8272 -1.4208  1.5329
  270TIP3    H222446   2.412   5.843   6.293 -2.2055 -0.7273 -0.2071
  271TIP3   OH222447   0.586   5.641   6.896  0.1389 -0.0562 -0.2616
  271TIP3    H122448   0.604   5.562   6.947 -2.1671  1.0639  2.4308
  271TIP3    H222449   0.627   5.712   6.946 -1.9155  1.0251 -0.0302
  272TIP3   OH222450   2.118   6.193   6.262 -0.6667 -1.3043  0.1949
  272TIP3    H122451   2.026   6.170   6.253 -0.6591 -1.2571 -0.0015
  272TIP3    H222452   2.123   6.284   6.234 -0.8291 -0.8168  1.6955
  273TIP3   OH222453   0.833   0.869   6.831  0.1411 -0.3381  0.3100
  273TIP3    H122454   0.780   0.801   6.871 -0.9855  0.5429  0.3174
  273TIP3    H222455   0.908   0.821   6.794 -1.8242 -1.9103 -1.8070
  274TIP3   OH222456   4.732   0.345   6.960 -0.4474 -0.0567  0.5527
  274TIP3    H122457   4.748   0.438   6.944 -0.7160  0.3172  2.4018
  274TIP3    H222458   4.722   0.338   7.055  2.2964 -2.4241  0.7086
  275TIP3   OH222459   4.492   0.656   6.541 -0.2237  0.0705 -0.0163
  275TIP3    H122460   4.436   0.600   6.487 -1.3436 -0.6703  1.8499
  275TIP3    H222461   4.569   0.673   6.487 -1.7674  0.1943 -2.2086
  276TIP3   OH222462   1.358   6.981   7.187 -0.5103 -0.1595 -0.5618
  276TIP3    H122463   1.290   7.043   7.212 -1.5316 -2.2159  2.0764
  276TIP3    H222464   1.431   7.036   7.158 -1.8570  2.2059  0.3585
  277TIP3   OH222465   2.584   6.974   6.932  0.3424  0.7086 -0.0622
  277TIP3    H122466   2.565   7.064   6.957  0.1744  1.1149 -1.5652
  277TIP3    H222467   2.624   6.982   6.845 -0.2276 -0.7006 -0.4574
  278TIP3   OH222468   5.100   0.470   7.564  0.2721 -0.3258 -0.2133
  278TIP3    H122469   5.149   0.471   7.647  0.3106 -2.0047 -0.2004
  278TIP3    H222470   5.159   0.429   7.501  0.4988  1.5676 -1.2573
  279TIP3   OH222471   0.859   0.750   6.175  0.1861 -0.6384  0.1004
  279TIP3    H122472   0.910   0.804   6.235  0.1151  0.4068 -0.7676
  279TIP3    H222473   0.786   0.719   6.228  0.4837 -0.2693  0.7386
  280TIP3   OH222474   1.502   1.192   6.213 -0.1791  0.0036 -0.0924
  280TIP3    H122475   1.535   1.163   6.128 -0.8060 -0.3143 -0.2313
  280TIP3    H222476   1.515   1.117   6.271  0.9471  0.4861  0.2765
  281TIP3   OH222477   0.513   2.719   6.412 -0.1567 -0.8026  0.0598
  281TIP3    H122478   0.589   2.675   6.451 -0.7464 -0.7101  1.3109
  281TIP3    H222479   0.548   2.803   6.381  0.4431 -1.1313 -0.1655
  282TIP3   OH222480   0.558   0.185   6.941  0.5569  0.3499 -0.7736
  282TIP3    H122481   0.618   0.110   6.940  1.0012  0.6207  1.9219
  282TIP3    H222482   0.473   0.148   6.920  1.1251 -0.5566 -1.5584
  283TIP3   OH222483   1.380   5.052   6.709 -0.1670 -0.5104 -0.6571
  283TIP3    H122484   1.345   4.983   6.764 -2.6628  2.4004  1.5635
  283TIP3    H222485   1.475   5.037   6.709 -0.6563 -3.9555 -0.3857
  284TIP3   OH222486   3.202   0.500   8.342 -0.6254  0.9177 -0.0723
  284TIP3    H122487   3.289   0.536   8.356 -0.0414 -0.7972  0.8603
  284TIP3    H222488   3.191   0.499   8.247  0.2431  1.4023 -0.1879
  285TIP3   OH222489   2.639   0.266   0.228  0.0665 -0.2046 -0.2154
  285TIP3    H122490   2.555   0.230   0.199 -0.3348  0.9215 -0.4546
  285TIP3    H222491   2.653   0.343   0.173  0.4134  0.6201  1.0026
  286TIP3   OH222492   0.423   7.208   6.326 -0.0271  0.0754 -0.0740
  286TIP3    H122493   0.445   7.201   6.233 -3.3922 -0.1706 -0.9111
  286TIP3    H222494   0.390   7.121   6.349 -0.6809  0.5889  0.9481
  287TIP3   OH222495   6.836   2.376   6.192 -0.3421 -0.1555 -0.5645
  287TIP3    H122496   6.746   2.369   6.159 -0.7408 -0.7820  0.6437
  287TIP3    H222497   6.880   2.298   6.157 -0.8725 -1.0312  0.6888
  288TIP3   OH222498   6.635   1.803   5.883  0.0514  0.0270  0.1117
  288TIP3    H122499   6.691   1.880   5.884 -0.2773  0.2612  0.8612
  288TIP3    H222500   6.612   1.789   5.975  1.1428 -1.7265  0.1419
  289TIP3   OH222501   1.298   7.233   7.593 -0.2957  0.3759  0.3686
  289TIP3    H122502   1.225   7.211   7.651 -0.1326 -0.9661  0.0667
  289TIP3    H222503   1.347   7.151   7.584  0.3414  0.8738 -0.7292
  290TIP3   OH222504   0.975   6.024   6.396 -0.1500  0.2292 -0.5957
  290TIP3    H122505   0.979   6.074   6.477  0.4363  2.3052 -1.8645
  290TIP3    H222506   1.036   6.069   6.337  0.6446 -2.1884 -1.6738
  291TIP3   OH222507   0.311   6.772   5.982  0.0685 -0.2019  0.0630
  291TIP3    H122508   0.263   6.827   5.920  1.0432  0.5454 -0.0500
  291TIP3    H222509   0.246   6.744   6.046 -0.1507  2.4343  1.0429
  292TIP3   OH222510   2.616   5.247   7.787 -0.5287 -0.4269 -0.0820
  292TIP3    H122511   2.622   5.342   7.772  0.4883 -0.4296  0.2314
  292TIP3    H222512   2.534   5.221   7.746 -1.7959  0.9139  1.5694
  293TIP3   OH222513   0.228   0.742   6.631  0.1170  0.3343  0.4990
  293TIP3    H122514   0.209   0.677   6.699  0.1955  0.4827  0.6635
  293TIP3    H222515   0.188   0.822   6.663  0.5278  0.5100  0.5729
  294TIP3   OH222516   0.498   7.289   7.196  1.3106 -0.0594  0.1465
  294TIP3    H122517   0.407   7.271   7.172  0.3307  3.3060  1.0911
  294TIP3    H222518   0.512   7.237   7.275 -0.9723  1.9901  1.9984
  295TIP3   OH222519   0.920   2.738   2.257  0.4535  0.2943  0.0127
  295TIP3    H122520   0.832   2.711   2.283  0.9766 -0.8830  0.5863
  295TIP3    H222521   0.915   2.833   2.250 -0.8782  0.2298 -0.0109
  296TIP3   OH222522   4.486   2.778   2.342 -0.4750  0.4992  0.8075
  296TIP3    H122523   4.551   2.740   2.401 -0.1257 -0.0211  0.0979
  296TIP3    H222524   4.435   2.702   2.312  1.0017  0.4177 -1.5673
  297TIP3   OH222525   1.264   4.306   1.599  0.5034  0.0798  0.2145
  297TIP3    H122526   1.215   4.228   1.574  1.9106 -0.1461 -2.0073
  297TIP3    H222527   1.206   4.379   1.577 -0.1928 -0.2942  0.8139
  298TIP3   OH222528   3.734   4.654   0.050 -0.3147  0.4688  0.1651
  298TIP3    H122529   3.802   4.591   0.024 -0.9686 -1.5812  3.1668
  298TIP3    H222530   3.767   4.739   0.019  3.2193 -0.5844  0.7904
  299TIP3   OH222531   3.889   4.147   1.986  0.4330  0.5202  0.6109
  299TIP3    H122532   3.834   4.177   1.914 -1.2961 -0.2837  1.5625
  299TIP3    H222533   3.923   4.228   2.026  0.2324  1.0054 -0.1936
  300TIP3   OH222534   2.532   6.933   7.587 -0.6450  0.0101  0.2325
  300TIP3    H122535   2.481   6.970   7.515 -0.1294  0.0817 -0.1010
  300TIP3    H222536   2.566   7.009   7.633 -0.0743 -0.0419 -0.1004
  301TIP3   OH222537   3.036   4.364   2.686 -0.2645  0.2082 -0.4452
  301TIP3    H122538   2.971   4.301   2.716 -0.0421  0.0580 -0.2852
  301TIP3    H222539   3.115   4.313   2.669  0.2995  0.6166  0.8694
  302TIP3   OH222540   2.452   4.781   1.961 -0.3352  0.1709 -0.3269
  302TIP3    H122541   2.455   4.757   1.868 -0.0134 -0.8888 -0.0498
  302TIP3    H222542   2.362   4.810   1.976 -0.2571  0.8301 -1.0831
  303TIP3   OH222543   7.292   1.801   1.616 -0.0382 -0.4547  0.0698
  303TIP3    H122544   7.220   1.843   1.569 -0.0743  0.1761  0.6761
  303TIP3    H222545   7.261   1.712   1.633  0.0836 -0.7762 -1.3186
  304TIP3   OH222546   6.370   6.101   2.337 -0.6204  0.5713  0.1314
  304TIP3    H122547   6.431   6.174   2.348 -2.9425  2.6182 -0.3581
  304TIP3    H222548   6.418   6.038   2.282  1.2761  1.8429  0.2922
  305TIP3   OH222549   3.666   4.922   2.416 -0.4909  0.0349 -0.6486
  305TIP3    H122550   3.705   4.974   2.486  0.7956 -0.9524 -0.5998
  305TIP3    H222551   3.575   4.951   2.411 -0.4906  0.3901  1.1641
  306TIP3   OH222552   2.405   4.076   2.468  0.5410  0.4021 -0.4244
  306TIP3    H122553   2.476   4.123   2.512  1.3679  1.6175 -2.9458
  306TIP3    H222554   2.443   3.992   2.445  0.1623 -0.1675  0.9661
  307TIP3   OH222555   3.893   2.361   1.374 -0.2361  0.1138 -0.1073
  307TIP3    H122556   3.906   2.454   1.354  1.8447 -0.1503 -0.0917
  307TIP3    H222557   3.961   2.316   1.324  0.5732 -1.1746  2.0821
  308TIP3   OH222558   2.800   2.249   2.143  0.1219 -0.4596  0.1059
  308TIP3    H122559   2.888   2.268   2.176  0.6940 -1.9915 -0.4917
  308TIP3    H222560   2.743   2.260   2.220  0.6863  1.4974  0.2683
  309TIP3   OH222561   2.072   1.888   1.774 -0.1253 -0.2955  0.2649
  309TIP3    H122562   2.097   1.957   1.835 -2.2243  0.4515  0.3144
  309TIP3    H222563   2.097   1.923   1.688 -1.2817  0.5890  0.2780
  310TIP3   OH222564   5.326   4.157   0.226 -0.1462 -0.2624 -0.3661
  310TIP3    H122565   5.369   4.113   0.300 -1.4106 -1.2501 -0.2002
  310TIP3    H222566   5.393   4.216   0.191  0.2752  0.7090  1.9761
  311TIP3   OH222567   2.096   5.946   1.500 -0.6227  0.1057  0.5116
  311TIP3    H122568   2.167   6.000   1.534  0.4180 -1.3369  0.6598
  311TIP3    H222569   2.023   5.962   1.560  0.3733 -0.3729  1.8742
  312TIP3   OH222570   2.148   5.947   2.369 -0.2661 -0.6408 -0.2405
  312TIP3    H122571   2.138   5.889   2.293 -1.1228 -0.8511  0.0238
  312TIP3    H222572   2.209   5.901   2.426 -0.3189 -0.9105 -0.3992
  313TIP3   OH222573   5.577   0.417   0.678  0.2383  0.6123 -0.4815
  313TIP3    H122574   5.521   0.445   0.749 -0.2623 -0.0383 -0.6171
  313TIP3    H222575   5.661   0.397   0.719 -0.4964 -1.2505  0.1776
  314TIP3   OH222576   5.558   1.278   2.368  0.3484  0.0267  0.7764
  314TIP3    H122577   5.571   1.226   2.289  2.2961  0.3931  0.8315
  314TIP3    H222578   5.464   1.296   2.370  0.1371 -0.8046 -0.9217
  315TIP3   OH222579   5.981   2.328   1.330  0.4050 -0.1383  0.0642
  315TIP3    H122580   5.912   2.339   1.395  0.8208 -0.4948  0.5725
  315TIP3    H222581   6.048   2.275   1.374  1.1670  0.5029 -0.2997
  316TIP3   OH222582   5.964   2.356   1.719  0.3263 -0.2019 -0.3708
  316TIP3    H122583   6.008   2.280   1.756 -1.9622 -1.3971  0.0312
  316TIP3    H222584   5.968   2.422   1.788 -2.1518 -1.7420  1.3427
  317TIP3   OH222585   5.143   4.767   0.916 -0.2124 -0.1807 -0.3396
  317TIP3    H122586   5.068   4.769   0.975  1.3518 -2.0330  1.7777
  317TIP3    H222587   5.219   4.764   0.973  1.4272 -0.0678 -2.4504
  318TIP3   OH222588   5.324   4.629   2.497 -0.9379 -0.2507 -0.5570
  318TIP3    H122589   5.322   4.581   2.580 -2.5184 -1.9609 -1.5544
  318TIP3    H222590   5.315   4.721   2.522 -0.1446 -0.6439  1.2322
  319TIP3   OH222591   3.473   6.945   1.297 -0.1758  0.3962 -0.7646
  319TIP3    H122592   3.380   6.965   1.309 -0.1225  0.7245 -0.8889
  319TIP3    H222593   3.516   6.983   1.375  0.2012  2.7398 -2.0469
  320TIP3   OH222594   5.181   5.011   1.215  0.1529  0.5604 -0.7400
  320TIP3    H122595   5.218   5.097   1.235 -0.1048  0.3345  0.7905
  320TIP3    H222596   5.101   5.006   1.268  0.2235 -0.6501 -0.7239
  321TIP3   OH222597   1.098   5.238   2.248  0.0405  0.2196  0.3913
  321TIP3    H122598   1.030   5.190   2.202 -0.0212  1.0810 -0.4266
  321TIP3    H222599   1.051   5.286   2.317 -0.4250  2.0608 -1.1607
  322TIP3   OH222600   5.097   6.208   1.698  0.0946 -0.6054  0.4074
  322TIP3    H122601   5.093   6.303   1.697  0.8911 -0.5741 -1.6225
  322TIP3    H222602   5.050   6.180   1.620  0.7428 -1.8269  0.4242
  323TIP3   OH222603   5.158   6.014   2.418 -0.4158  0.5124 -0.6619
  323TIP3    H122604   5.229   6.000   2.356 -1.6326  1.4301 -2.2844
  323TIP3    H222605   5.193   6.077   2.481  0.4788  0.3475 -0.9905
  324TIP3   OH222606   2.493   0.320   1.303  0.0948  0.4433 -0.9231
  324TIP3    H122607   2.424   0.384   1.325 -1.2085 -0.8007 -1.3348
  324TIP3    H222608   2.557   0.371   1.253 -1.1920  1.3348 -1.7102
  325TIP3   OH222609   1.613   1.073   2.309 -0.0207  0.2823  0.0642
  325TIP3    H122610   1.708   1.057   2.310 -0.6033 -4.0520 -1.6521
  325TIP3    H222611   1.602   1.149   2.252  2.2461 -1.3119 -2.6410
  326TIP3   OH222612   0.065   2.552   2.535  0.4613  0.2924  0.0710
  326TIP3    H122613   0.134   2.542   2.470  0.6871 -2.4017  0.6774
  326TIP3    H222614   0.111   2.563   2.618  0.1639  1.2239  0.1177
  327TIP3   OH222615   5.283   4.517   0.724  0.6732  0.3892 -0.2196
  327TIP3    H122616   5.255   4.512   0.816 -0.6582 -0.1359 -0.6456
  327TIP3    H222617   5.284   4.611   0.705 -2.7629  0.3834 -0.7550
  328TIP3   OH222618   0.595   6.616   1.728  0.4930 -0.3642 -0.6217
  328TIP3    H122619   0.548   6.675   1.787  0.7616  1.2542 -1.9900
  328TIP3    H222620   0.536   6.542   1.716 -0.5800  0.4112 -0.2317
  329TIP3   OH222621   5.784   1.255   2.513  0.0814 -0.3476  0.1050
  329TIP3    H122622   5.809   1.339   2.553 -1.6288  0.2697 -0.0740
  329TIP3    H222623   5.707   1.276   2.460  0.1488 -1.8777 -0.6201
  330TIP3   OH222624   2.778   0.226   2.250  0.3399  0.2415 -0.0506
  330TIP3    H122625   2.815   0.137   2.256  1.5037  0.6352 -1.1288
  330TIP3    H222626   2.698   0.215   2.199  1.0768 -0.0276 -1.1630
  331TIP3   OH222627   5.958   5.248   8.326  0.3625 -0.3759  0.2068
  331TIP3    H122628   5.895   5.193   8.281  2.0379 -2.7902  0.7493
  331TIP3    H222629   6.042   5.228   8.286  0.9041  2.5614 -0.2888
  332TIP3   OH222630   6.288   6.180   1.566  0.4854 -0.3855 -0.0365
  332TIP3    H122631   6.201   6.149   1.540  0.0112  2.0391 -1.5584
  332TIP3    H222632   6.341   6.101   1.571 -1.6804 -1.8568  0.4515
  333TIP3   OH222633   5.926   6.404   0.516 -0.4520 -0.2309 -0.5173
  333TIP3    H122634   5.907   6.334   0.579  1.5716 -2.2779 -2.1218
  333TIP3    H222635   5.960   6.476   0.569  0.4077 -1.6116  0.8212
  334TIP3   OH222636   6.623   5.630   0.528  0.3190  0.1429  0.0731
  334TIP3    H122637   6.626   5.558   0.591 -0.2492  0.2127  0.1832
  334TIP3    H222638   6.639   5.709   0.581  0.5894  0.1277  0.0110
  335TIP3   OH222639   1.771   6.963   0.774 -0.0629  0.0683 -0.2743
  335TIP3    H122640   1.723   7.015   0.839 -1.1060 -1.1942  0.0023
  335TIP3    H222641   1.857   7.005   0.767 -0.2400  0.7180  1.3151
  336TIP3   OH222642   2.859   1.746   7.704 -0.8556  0.2116 -0.1441
  336TIP3    H122643   2.827   1.746   7.794 -0.8795  0.6590 -0.1528
  336TIP3    H222644   2.949   1.713   7.711 -0.3586  1.6353  0.2196
  337TIP3   OH222645   1.854   0.978   7.898 -0.3570  0.4708  0.2619
  337TIP3    H122646   1.856   0.997   7.992  1.7677  0.0670  0.3082
  337TIP3    H222647   1.866   0.883   7.893 -2.7251  0.1698 -0.3437
  338TIP3   OH222648   3.965   3.272   0.885  0.2819 -0.3054 -0.5111
  338TIP3    H122649   3.993   3.279   0.794  1.1531  0.2406 -0.2060
  338TIP3    H222650   3.956   3.179   0.901  2.2213 -0.5117 -0.5262
  339TIP3   OH222651   3.695   1.666   8.005  0.1837  0.1609  0.0813
  339TIP3    H122652   3.658   1.602   8.065 -1.6786  0.5990 -0.5792
  339TIP3    H222653   3.784   1.635   7.989  0.2483 -0.6828  2.0135
  340TIP3   OH222654   2.546   4.579   0.173  0.3417 -0.1697  0.1405
  340TIP3    H122655   2.607   4.514   0.136  1.4392  0.7096  0.3751
  340TIP3    H222656   2.602   4.637   0.225 -0.1755  2.7080 -2.3934
  341TIP3   OH222657   0.309   0.918   6.313  0.4418 -0.6542  0.1072
  341TIP3    H122658   0.240   0.944   6.252  0.8599 -0.8861 -0.4645
  341TIP3    H222659   0.372   0.871   6.259  0.5078 -1.3992  0.8335
  342TIP3   OH222660   2.882   1.497   7.431 -1.2135 -0.3539  0.0180
  342TIP3    H122661   2.929   1.434   7.377  0.4769  0.5529  0.3845
  342TIP3    H222662   2.835   1.443   7.495 -1.4430 -1.3213 -0.9521
  343TIP3   OH222663   2.360   2.912   8.139  0.7097  0.4246  0.1413
  343TIP3    H122664   2.370   2.874   8.052  0.4056 -0.8898  0.6704
  343TIP3    H222665   2.279   2.962   8.134 -0.1020 -0.8671  0.0818
  344TIP3   OH222666   7.329   1.468   6.482 -0.0808 -0.2054 -0.6299
  344TIP3    H122667   7.337   1.378   6.512  0.8098  0.1037  0.0850
  344TIP3    H222668   7.245   1.471   6.437 -1.8106 -0.5070  2.4310
  345TIP3   OH222669   0.836   6.772   6.337 -0.2418  0.1058  0.3744
  345TIP3    H122670   0.768   6.706   6.323 -0.0113 -0.0540  0.0060
  345TIP3    H222671   0.788   6.849   6.370 -0.4851 -0.3040  0.9943
  346TIP3   OH222672   3.118   1.646   0.297 -0.6017  0.5363 -0.2089
  346TIP3    H122673   3.149   1.695   0.220  0.4172 -0.4226 -0.4143
  346TIP3    H222674   3.026   1.673   0.306  0.0469  2.8266 -0.0527
  347TIP3   OH222675   0.932   0.454   6.908  0.0049 -0.2178 -0.4589
  347TIP3    H122676   1.000   0.476   6.971  0.8695 -2.0222 -0.7451
  347TIP3    H222677   0.857   0.509   6.933  0.2189 -1.1533  2.3184
  348TIP3   OH222678   2.192   7.245   0.662 -0.7537  0.4322 -0.2349
  348TIP3    H122679   2.262   7.283   0.610 -0.8995 -1.0219 -1.5183
  348TIP3    H222680   2.230   7.233   0.749  0.9703 -1.3318 -1.1786
  349TIP3   OH222681   5.694   1.355   6.855 -0.4774  0.3791 -0.2161
  349TIP3    H122682   5.662   1.353   6.765 -0.2870  2.5408 -0.3494
  349TIP3    H222683   5.788   1.337   6.846 -0.7673 -1.2172 -0.2578
  350TIP3   OH222684   1.590   7.138   6.348 -0.0693  0.1691 -0.1322
  350TIP3    H122685   1.606   7.177   6.434 -1.8069  1.6295 -0.4357
  350TIP3    H222686   1.668   7.160   6.297 -0.4075  2.0424  0.1362
  351TIP3   OH222687   1.721   0.629   0.401 -0.0911  0.0001 -0.1219
  351TIP3    H122688   1.704   0.542   0.438 -0.7233 -0.2172 -0.9015
  351TIP3    H222689   1.759   0.679   0.473  0.7109 -1.0635  0.2055
  352TIP3   OH222690   2.716   0.466   8.496  0.5390  0.6526  0.4187
  352TIP3    H122691   2.703   0.417   8.415  0.1317  0.7891  0.3987
  352TIP3    H222692   2.807   0.450   8.520  0.5683  0.3529  0.1054
  353TIP3   OH222693   2.439   1.474   5.881 -0.2478 -0.1859  0.3377
  353TIP3    H122694   2.346   1.469   5.905  0.6665 -2.0465  3.7150
  353TIP3    H222695   2.464   1.564   5.904 -0.7682 -0.2394  1.1351
  354TIP3   OH222696   3.059   3.377   7.112 -0.2200  0.1464 -0.0302
  354TIP3    H122697   3.067   3.288   7.147  2.0308  0.1595 -0.4807
  354TIP3    H222698   3.048   3.433   7.189 -1.8331 -0.5117  0.2454
  355TIP3   OH222699   1.123   0.962   6.450  0.2988 -0.0804  0.4511
  355TIP3    H122700   1.052   1.018   6.480 -0.5670  0.2349 -2.0327
  355TIP3    H222701   1.109   0.954   6.355  2.7834 -1.1389  0.1253
  356TIP3   OH222702   6.789   6.336   8.347  0.2901  0.5583  0.0629
  356TIP3    H122703   6.821   6.258   8.392 -0.9391 -0.9729 -1.6327
  356TIP3    H222704   6.701   6.348   8.381  1.0487  2.1969  1.5148
  357TIP3   OH222705   0.913   6.911   7.496 -0.0522  0.0123  0.0037
  357TIP3    H122706   1.009   6.905   7.498 -0.0127  0.6272  0.0867
  357TIP3    H222707   0.884   6.827   7.461  0.5129 -0.2339  0.1295
  358TIP3   OH222708   2.290   4.073   7.835 -0.1013 -0.2685 -0.0974
  358TIP3    H122709   2.367   4.111   7.793 -1.2730  3.0817  0.6262
  358TIP3    H222710   2.326   4.010   7.897  1.9347 -0.3835 -1.3282
  359TIP3   OH222711   1.905   0.402   1.851 -1.0075 -0.0872  0.1603
  359TIP3    H122712   1.933   0.399   1.942 -4.1343 -1.6274  1.1499
  359TIP3    H222713   1.843   0.475   1.847 -0.0223  0.7162 -1.0391
  360TIP3   OH222714   0.183   6.545   6.590 -0.1360 -0.2906  0.0995
  360TIP3    H122715   0.249   6.588   6.536 -1.1367  0.3598 -0.6346
  360TIP3    H222716   0.199   6.577   6.678  0.0067  0.5236 -0.2144
  361TIP3   OH222717   2.292   4.721   0.604 -0.0750 -0.3649 -0.0222
  361TIP3    H122718   2.269   4.632   0.580 -3.3928  0.2944  0.5137
  361TIP3    H222719   2.323   4.714   0.694 -0.9377 -0.9043  0.2376
  362TIP3   OH222720   0.534   6.523   7.056 -0.1783  0.1076 -0.0858
  362TIP3    H122721   0.492   6.532   7.141  1.5559 -0.8800  0.8829
  362TIP3    H222722   0.508   6.435   7.026  2.5304 -1.2122  1.2896
  363TIP3   OH222723   1.850   0.663   6.634 -0.8078 -0.5657  0.1253
  363TIP3    H122724   1.812   0.734   6.582  0.4313 -0.2178 -0.3204
  363TIP3    H222725   1.917   0.625   6.578  1.7912  0.9591  2.1082
  364TIP3   OH222726   4.027   1.480   7.260 -0.0680  0.2504  0.3109
  364TIP3    H122727   3.945   1.501   7.306 -0.3761 -1.3950  0.5542
  364TIP3    H222728   4.095   1.521   7.313 -0.6822  1.0515  0.4892
  365TIP3   OH222729   1.071   0.137   7.281  0.0672 -0.2633 -0.0999
  365TIP3    H122730   0.988   0.177   7.256  0.2458  0.6963  0.7926
  365TIP3    H222731   1.060   0.114   7.373  0.0826 -1.9856 -0.5265
  366TIP3   OH222732   2.468   2.158   0.768  0.0292 -0.4494 -0.5138
  366TIP3    H122733   2.441   2.068   0.754  2.3998 -1.0929 -1.1362
  366TIP3    H222734   2.509   2.158   0.854  1.9832 -0.4355 -1.4391
  367TIP3   OH222735   1.391   0.321   1.123  0.7288  0.4520 -0.1344
  367TIP3    H122736   1.353   0.400   1.085  3.9129  1.5340 -1.3042
  367TIP3    H222737   1.351   0.249   1.074 -2.5569  1.2504  1.2613
  368TIP3   OH222738   2.719   2.231   7.652  0.2678 -0.3613 -0.6822
  368TIP3    H122739   2.767   2.180   7.717  0.9119  1.6238  0.4405
  368TIP3    H222740   2.782   2.245   7.581  0.5521  0.0967 -0.3410
  369TIP3   OH222741   3.445   2.545   7.387  0.3459 -0.2245 -0.1844
  369TIP3    H122742   3.358   2.559   7.426  0.4160  0.6239 -0.3375
  369TIP3    H222743   3.434   2.467   7.333  0.4409 -1.9148  2.1392
  370TIP3   OH222744   1.800   1.402   6.691 -0.2664 -0.2525 -0.1989
  370TIP3    H122745   1.887   1.435   6.713  0.5331 -1.5036 -1.3678
  370TIP3    H222746   1.808   1.372   6.600 -1.1040 -3.0610  0.5976
  371TIP3   OH222747   2.889   2.358   0.126  0.5144  0.2054  0.5092
  371TIP3    H122748   2.894   2.421   0.054  0.0510  0.8923  1.0661
  371TIP3    H222749   2.884   2.273   0.084 -2.0584  0.7282 -0.3462
  372TIP3   OH222750   4.102   2.163   0.018  0.2080 -0.3480  0.1723
  372TIP3    H122751   4.113   2.143  -0.075 -0.2072  1.0756 -0.1966
  372TIP3    H222752   4.187   2.195   0.046  0.8573 -2.5331  0.7508
  373TIP3   OH222753   1.219   1.237   6.228 -0.3657 -0.0091 -0.6306
  373TIP3    H122754   1.311   1.227   6.202 -0.5851  0.2795 -1.5280
  373TIP3    H222755   1.211   1.330   6.251 -0.4151 -0.0460 -0.5008
  374TIP3   OH222756   1.043   3.721   7.052  0.3769 -0.0079  0.7784
  374TIP3    H122757   1.027   3.697   6.960  0.3262  1.3024  0.4270
  374TIP3    H222758   0.966   3.772   7.076  0.5858 -0.0025  1.4242
  375TIP3   OH222759   2.166   5.308   0.902  0.1323 -0.1328  0.0266
  375TIP3    H122760   2.209   5.302   0.816 -1.4578  1.3103 -0.9180
  375TIP3    H222761   2.140   5.400   0.909  1.3991  0.0745  2.6502
  376TIP3   OH222762   6.509   2.208   1.963 -0.7871  0.6006  0.1953
  376TIP3    H122763   6.432   2.259   1.990 -0.6958  0.9876 -0.2631
  376TIP3    H222764   6.496   2.122   2.003 -2.4586  0.0150 -1.4949
  377TIP3   OH222765   2.427   7.278   6.833 -0.2697 -0.3003  0.1373
  377TIP3    H122766   2.364   7.214   6.867 -1.7725  0.3471 -1.3635
  377TIP3    H222767   2.375   7.338   6.781  1.5791  0.3446 -1.0313
  378TIP3   OH222768   0.706   6.986   6.922  0.2727 -0.3957  0.3930
  378TIP3    H122769   0.786   6.960   6.969 -0.1873  1.7909  2.4999
  378TIP3    H222770   0.731   6.983   6.830  2.1378 -1.8614  0.8927
  379TIP3   OH222771   1.056   6.771   7.878  0.1771  0.0432  0.6550
  379TIP3    H122772   1.111   6.752   7.803  2.4272  0.9905  2.0005
  379TIP3    H222773   1.021   6.686   7.906  0.2467 -0.4485 -0.7387
  380TIP3   OH222774   5.786   7.146   6.194  0.3209  0.3334 -0.4055
  380TIP3    H122775   5.860   7.181   6.145 -0.8353  3.7708  0.1809
  380TIP3    H222776   5.737   7.094   6.130  2.2425 -0.4476 -1.2528
  381TIP3   OH222777   2.798   1.922   0.771  0.0660  0.3088 -0.2217
  381TIP3    H122778   2.849   2.003   0.771 -0.3393  0.5642 -0.3937
  381TIP3    H222779   2.730   1.937   0.706  0.5794 -0.5370 -0.9699
  382TIP3   OH222780   2.806   2.958   8.216 -0.3403  0.8644  0.3439
  382TIP3    H122781   2.888   3.001   8.240  1.1995 -2.1011  0.5818
  382TIP3    H222782   2.739   3.007   8.263  1.6820  1.0206  3.1871
  383TIP3   OH222783   1.689   2.902   1.618  0.3310 -0.1828  0.4643
  383TIP3    H122784   1.612   2.846   1.626  0.4171 -0.3702  0.0013
  383TIP3    H222785   1.752   2.867   1.681  0.1006 -0.1351  0.7201
  384TIP3   OH222786   0.193   3.168   6.300  0.2648 -0.1160 -0.4829
  384TIP3    H122787   0.263   3.106   6.323  2.1232  1.4770 -1.6113
  384TIP3    H222788   0.232   3.254   6.316 -2.6690  0.7940  2.1506
  385TIP3   OH222789   2.164   2.932   0.868  0.1617 -0.1545 -0.1974
  385TIP3    H122790   2.176   2.882   0.949  3.3714 -0.9068 -1.0901
  385TIP3    H222791   2.175   3.024   0.895 -0.1152 -0.3009  0.4309
  386TIP3   OH222792   0.850   3.346   1.739  1.1035  0.2958 -0.1075
  386TIP3    H122793   0.757   3.324   1.736  0.2820  3.6472 -1.5045
  386TIP3    H222794   0.878   3.320   1.827 -1.2985 -0.1425  0.5751
  387TIP3   OH222795   0.708   6.306   6.751 -0.2655 -0.1505 -0.5009
  387TIP3    H122796   0.621   6.285   6.714 -1.7806  1.3015  2.1237
  387TIP3    H222797   0.698   6.394   6.786  1.8713 -0.5466  1.1601
  388TIP3   OH222798   1.435   0.710   0.968  0.2046 -0.2806  0.0111
  388TIP3    H122799   1.482   0.782   1.010 -1.6382  0.2241  1.3099
  388TIP3    H222800   1.470   0.705   0.880  0.6647  1.9311  0.0588
  389TIP3   OH222801   4.268   0.507   0.485 -0.0389  0.1055 -0.7377
  389TIP3    H122802   4.208   0.575   0.516 -0.0544 -1.1787  2.2025
  389TIP3    H222803   4.239   0.488   0.395 -5.2740 -1.7852  1.1863
  390TIP3   OH222804   0.820   5.842   7.501  0.0976 -0.1375  0.1615
  390TIP3    H122805   0.829   5.787   7.423  3.0298  0.4795  0.0251
  390TIP3    H222806   0.819   5.931   7.468 -0.5184  0.0729  0.7164
  391TIP3   OH222807   7.079   2.444   6.306 -0.0404 -0.2053  0.3288
  391TIP3    H122808   6.990   2.434   6.274  0.2121  0.5030 -0.6326
  391TIP3    H222809   7.088   2.377   6.374 -1.4509  0.0667  0.7844
  392TIP3   OH222810   2.551   0.252   6.907  0.5167 -0.6039  0.0945
  392TIP3    H122811   2.504   0.194   6.847  0.8114 -2.6285  1.7625
  392TIP3    H222812   2.621   0.289   6.854  1.5692 -3.3540 -0.5556
  393TIP3   OH222813   1.493   6.299   8.112 -0.3720  0.0544  0.0041
  393TIP3    H122814   1.523   6.230   8.053 -0.8354 -0.7719  0.7234
  393TIP3    H222815   1.544   6.376   8.087  0.0707 -0.5206 -0.8776
  394TIP3   OH222816   6.372   1.673   7.018 -0.2236 -0.7232 -0.1563
  394TIP3    H122817   6.346   1.650   7.107  0.0082  0.7097  0.3000
  394TIP3    H222818   6.423   1.753   7.028  0.5001 -1.0033 -1.5033
  395TIP3   OH222819   3.463   2.140   0.003 -0.6274  0.3577  0.1143
  395TIP3    H122820   3.446   2.230  -0.023  0.2937  0.6894  0.6323
  395TIP3    H222821   3.544   2.117  -0.041 -1.7414 -0.8204 -1.4053
  396TIP3   OH222822   1.214   0.440   6.791  0.3918 -0.1325 -0.2094
  396TIP3    H122823   1.151   0.424   6.861  1.5910  0.0762  0.9455
  396TIP3    H222824   1.195   0.373   6.726 -1.2854  0.1892 -0.0706
  397TIP3   OH222825   0.983   5.927   6.002  0.2574 -0.6564  0.7521
  397TIP3    H122826   1.074   5.929   6.031  0.1506  2.3838  1.0019
  397TIP3    H222827   0.943   5.857   6.053  1.8572 -0.3724  2.4281
  398TIP3   OH222828   2.923   6.765   7.138  0.3251  0.0358  0.0475
  398TIP3    H122829   2.954   6.694   7.194 -1.5325 -0.5801  0.3157
  398TIP3    H222830   2.978   6.840   7.162  2.2622 -1.2707 -0.2037
  399TIP3   OH222831   0.801   1.207   6.796 -0.1681  0.0401 -0.3728
  399TIP3    H122832   0.723   1.176   6.751 -0.2714  2.6345 -2.1021
  399TIP3    H222833   0.779   1.203   6.889 -1.2473 -2.0320 -0.6941
  400TIP3   OH222834   5.962   1.307   6.820 -0.6941  0.7260  0.4338
  400TIP3    H122835   5.930   1.285   6.732  0.9045  4.0272 -1.0694
  400TIP3    H222836   6.056   1.288   6.817 -0.7516  0.1762  1.7075
  401TIP3   OH222837   3.133   7.193   6.985 -0.0953  0.2922 -0.2632
  401TIP3    H122838   3.223   7.217   7.008 -0.1449  0.2819 -0.0599
  401TIP3    H222839   3.089   7.184   7.069 -0.2441  0.1355 -0.3591
  402TIP3   OH222840   0.828   1.845   1.963 -0.0121  0.3391 -0.4421
  402TIP3    H122841   0.769   1.891   1.903  0.0807  0.4225 -0.4687
  402TIP3    H222842   0.905   1.901   1.969  0.1834  0.0915 -0.6287
  403TIP3   OH222843   2.874   1.407   7.100  0.4131 -0.6066  0.5493
  403TIP3    H122844   2.865   1.424   7.006 -1.1084 -3.1829  0.1688
  403TIP3    H222845   2.952   1.352   7.106 -0.0105 -1.1990  0.6734
  404TIP3   OH222846   1.210   0.827   1.117  0.0793  0.3423  0.5124
  404TIP3    H122847   1.133   0.771   1.127  0.8523 -0.4265  2.3983
  404TIP3    H222848   1.267   0.779   1.057 -0.7411  0.7490 -0.6085
  405TIP3   OH222849   2.327   0.316   6.281 -0.1043 -0.5527 -0.2730
  405TIP3    H122850   2.296   0.380   6.345  2.1724  0.2699  0.0670
  405TIP3    H222851   2.249   0.265   6.259 -1.6408  1.3129  0.6256
  406TIP3   OH222852   0.873   5.631   6.293 -0.2343  0.0719  0.5334
  406TIP3    H122853   0.801   5.569   6.297  2.0683 -2.7952 -0.6249
  406TIP3    H222854   0.869   5.667   6.204 -0.2556 -0.0215  0.4976
  407TIP3   OH222855   6.113   6.132   7.467 -0.3631  0.3080 -0.8387
  407TIP3    H122856   6.176   6.187   7.514 -0.2109 -0.7145  0.1818
  407TIP3    H222857   6.152   6.044   7.468 -2.4540 -0.6681  1.1341
  408TIP3   OH222858   0.975   0.657   6.718  0.1031  0.2306 -0.7734
  408TIP3    H122859   1.054   0.640   6.667 -0.2056  0.5610 -1.3642
  408TIP3    H222860   0.961   0.576   6.767 -0.7889 -0.9092 -2.8317
  409TIP3   OH222861   3.581   2.115   0.702 -0.2984 -0.6453 -0.5883
  409TIP3    H122862   3.614   2.205   0.692  1.0973 -1.2177 -1.3042
  409TIP3    H222863   3.505   2.124   0.759  0.6855  0.8259  0.5400
  410TIP3   OH222864   3.588   2.968   8.465  0.2908  0.0540 -0.2599
  410TIP3    H122865   3.596   2.923   8.549  1.5880  0.0427 -0.3786
  410TIP3    H222866   3.544   3.050   8.486  0.5735  0.0363  0.4166
  411TIP3   OH222867   2.453   2.595   6.786  0.1500 -0.0923  0.0389
  411TIP3    H122868   2.377   2.618   6.733 -0.6309 -0.2951  1.0415
  411TIP3    H222869   2.490   2.679   6.812 -0.1230  0.0154  0.0841
  412TIP3   OH222870   1.723   3.076   6.669 -0.2732  0.2248  0.0582
  412TIP3    H122871   1.695   3.075   6.578 -0.4059 -0.6228  0.1056
  412TIP3    H222872   1.706   2.987   6.701 -0.2537  0.5191  0.9148
  413TIP3   OH222873   0.019   1.197   6.522 -0.4095 -0.2817  0.1892
  413TIP3    H122874   0.114   1.190   6.533 -0.4862  1.0989  1.8002
  413TIP3    H222875  -0.014   1.110   6.545  0.4659 -0.8203 -0.5424
  414TIP3   OH222876   6.809   4.516   8.059 -0.7819  0.0947 -0.4042
  414TIP3    H122877   6.772   4.597   8.023  2.0718  2.4980  1.7784
  414TIP3    H222878   6.741   4.484   8.119 -0.6882  2.7346  1.2321
  415TIP3   OH222879   6.808   0.867   1.162 -0.3257  0.1930  0.4412
  415TIP3    H122880   6.828   0.921   1.085 -2.4303 -1.4528 -1.3054
  415TIP3    H222881   6.714   0.850   1.156 -0.0319 -2.1901  1.9344
  416TIP3   OH222882   2.629   2.641   7.662  0.3807  0.0509  0.1705
  416TIP3    H122883   2.551   2.590   7.639  0.0316 -0.0866  1.6529
  416TIP3    H222884   2.630   2.711   7.597 -1.3553  0.4465  0.5399
  417TIP3   OH222885   2.820   0.575   5.935 -0.1245 -0.2581 -0.1020
  417TIP3    H122886   2.793   0.559   6.026  1.5239 -2.5457  0.0529
  417TIP3    H222887   2.914   0.593   5.941 -0.8164  4.2191 -0.9497
  418TIP3   OH222888   1.768   6.973   6.706 -0.3679  0.2877 -0.1804
  418TIP3    H122889   1.686   7.006   6.670 -0.9660  1.6582  2.3214
  418TIP3    H222890   1.743   6.892   6.750 -0.4166  0.7584  0.6681
  419TIP3   OH222891   6.125   6.762   8.469 -0.7589 -0.5696  0.0942
  419TIP3    H122892   6.085   6.813   8.399 -0.5177  0.0028  0.3683
  419TIP3    H222893   6.069   6.779   8.545  0.9872  1.6548  0.9302
  420TIP3   OH222894   0.964   6.505   7.935 -0.4008 -0.1385 -0.3969
  420TIP3    H122895   1.010   6.461   8.007 -0.6771 -0.7825 -0.6160
  420TIP3    H222896   0.872   6.497   7.958 -0.4901 -0.3744 -0.8423
  421TIP3   OH222897   1.964   0.486   7.144  0.0670 -0.0154  0.3514
  421TIP3    H122898   2.010   0.570   7.150 -1.5469  0.9757 -0.8908
  421TIP3    H222899   1.972   0.461   7.052 -0.5782 -0.5775  0.4459
  422TIP3   OH222900   1.794   2.021   6.934  0.0157 -0.3974 -0.1675
  422TIP3    H122901   1.818   2.114   6.933 -2.8487  0.5162  4.0935
  422TIP3    H222902   1.868   1.978   6.977  1.0171 -0.0622 -1.4904
  423TIP3   OH222903   1.906   1.140   6.785 -0.0429 -0.4338 -0.1423
  423TIP3    H122904   1.907   1.234   6.808  0.5427 -0.8777  1.7951
  423TIP3    H222905   1.936   1.137   6.694  1.6153  1.1534  0.3075
  424TIP3   OH222906   1.707   0.378   6.304 -0.4741  0.2839  0.1239
  424TIP3    H122907   1.639   0.417   6.359  0.1875 -0.5811  1.5841
  424TIP3    H222908   1.789   0.403   6.346  0.1969  2.0893 -2.1342
  425TIP3   OH222909   1.117   0.400   8.282  0.0992  0.0781 -0.0309
  425TIP3    H122910   1.141   0.492   8.291  0.2803  0.3415 -2.8774
  425TIP3    H222911   1.199   0.352   8.295  0.4967  0.4713 -1.0543
  426TIP3   OH222912   5.784   6.641   8.439  0.1964 -0.2029  0.3337
  426TIP3    H122913   5.689   6.627   8.442 -0.1352  1.8972  1.0590
  426TIP3    H222914   5.800   6.679   8.353  0.4211 -0.8454  0.0936
  427TIP3   OH222915   4.465   7.284   6.554 -0.4353  0.0770  0.0485
  427TIP3    H122916   4.559   7.284   6.569 -0.2454 -2.9331 -0.7942
  427TIP3    H222917   4.435   7.368   6.589  2.6267  1.3691 -0.2727
  428TIP3   OH222918   1.265   5.998   7.052 -0.3989 -0.1178 -0.1801
  428TIP3    H122919   1.308   6.069   7.006  0.4153 -0.3989  0.1405
  428TIP3    H222920   1.188   6.038   7.092  0.4651  0.7519  0.6234
  429TIP3   OH222921   2.912   3.211   7.973 -0.5662  0.4682  0.2429
  429TIP3    H122922   2.992   3.233   7.926 -1.2569  1.9338 -0.2887
  429TIP3    H222923   2.918   3.117   7.989 -0.2042 -0.0252 -2.5725
  430TIP3   OH222924   2.220   6.709   8.138  0.3360 -0.2229 -0.0901
  430TIP3    H122925   2.293   6.662   8.178  0.3997  0.3160  0.4550
  430TIP3    H222926   2.228   6.693   8.044  0.0433 -1.7185  0.1405
  431TIP3   OH222927   2.403   2.563   7.469 -0.3796 -0.5719  0.5954
  431TIP3    H122928   2.390   2.640   7.413  0.4778  0.2913  1.5692
  431TIP3    H222929   2.318   2.551   7.512 -0.4197  0.0105  0.6811
  432TIP3   OH222930   2.916   6.939   8.046 -0.3693  0.5049 -0.2213
  432TIP3    H122931   2.937   7.026   8.078 -1.5000  0.5332  0.4812
  432TIP3    H222932   2.828   6.947   8.008 -0.3963 -0.2687 -0.3460
  433TIP3   OH222933   1.789   6.725   0.350 -0.3704 -0.8873 -0.3446
  433TIP3    H122934   1.824   6.810   0.323  1.8813 -2.2709 -2.0211
  433TIP3    H222935   1.695   6.738   0.358  0.0655  2.0359  0.5731
  434TIP3   OH222936   0.412   6.684   6.405  0.0920  0.0329 -0.4358
  434TIP3    H122937   0.457   6.601   6.389  0.8429  0.2868  0.3410
  434TIP3    H222938   0.391   6.717   6.317 -0.3011 -1.0181 -0.7411
  435TIP3   OH222939   0.722   0.618   6.427  0.4321  0.5546  0.0264
  435TIP3    H122940   0.674   0.544   6.390  0.8570 -0.7713  1.9989
  435TIP3    H222941   0.658   0.663   6.482  0.0204  2.0101 -1.6331
  436TIP3   OH222942   0.747   1.138   1.001  0.3635  0.0605 -0.1295
  436TIP3    H122943   0.812   1.097   1.058  0.8491 -0.9894 -1.4020
  436TIP3    H222944   0.703   1.064   0.958 -1.1255  0.7890  0.1121
  437TIP3   OH222945   0.835   5.600   7.069  0.0081  0.1466 -0.4317
  437TIP3    H122946   0.856   5.677   7.017 -0.1515  0.8316  0.5055
  437TIP3    H222947   0.881   5.614   7.152 -0.9699 -0.1964  0.1781
  438TIP3   OH222948   1.168   6.680   7.391  0.0748 -0.6342 -0.3872
  438TIP3    H122949   1.135   6.676   7.302 -1.8694  1.2417  0.2254
  438TIP3    H222950   1.181   6.773   7.409  2.3936 -1.1133  0.6090
  439TIP3   OH222951   4.034   1.670   7.689  0.7423  0.6851 -0.0783
  439TIP3    H122952   3.953   1.619   7.683  0.5500  1.1583 -2.3303
  439TIP3    H222953   4.098   1.611   7.727 -0.6260  0.2639  1.6176
  440TIP3   OH222954   5.070   0.666   7.063 -0.2391  0.2269  0.0673
  440TIP3    H122955   5.102   0.576   7.069 -0.3335  0.1568 -0.4313
  440TIP3    H222956   5.056   0.693   7.154  1.1558  0.2386  0.2818
  441TIP3   OH222957   7.188   5.121   1.606 -0.0131 -0.2728 -0.4289
  441TIP3    H122958   7.167   5.206   1.642  1.0310 -0.0846 -0.2288
  441TIP3    H222959   7.142   5.058   1.662  1.5192  0.0181  1.2105
  442TIP3   OH222960   0.225   0.018   0.351  0.0893 -0.3192  0.1950
  442TIP3    H122961   0.198   0.092   0.404  0.3860  0.4924 -0.7698
  442TIP3    H222962   0.145  -0.012   0.308  0.3567  0.9447 -1.2488
  443TIP3   OH222963   6.596   4.058   0.998  0.1870 -0.3545  0.0236
  443TIP3    H122964   6.504   4.041   1.019  0.5838 -1.8651  0.5580
  443TIP3    H222965   6.645   3.998   1.053  1.5227  0.6981  0.0068
  444TIP3   OH222966   2.163   0.750   8.284 -0.0183 -0.3816 -0.3769
  444TIP3    H122967   2.251   0.715   8.267  0.3942  0.0185  0.8492
  444TIP3    H222968   2.123   0.758   8.198  1.4884  0.3198 -1.0363
  445TIP3   OH222969   5.909   5.988   7.716  0.3739  0.3317 -0.2028
  445TIP3    H122970   5.958   6.052   7.663  0.4292  0.7310  0.3259
  445TIP3    H222971   5.976   5.925   7.744  0.0966 -0.7069 -1.8110
  446TIP3   OH222972   1.609   1.818   6.835  0.2089 -0.5761  0.4128
  446TIP3    H122973   1.685   1.780   6.790 -0.2595 -0.6726 -0.3125
  446TIP3    H222974   1.647   1.880   6.898  0.9014 -0.8812  0.3005
  447TIP3   OH222975   0.920   0.945   1.164  0.1247 -1.1103  0.4063
  447TIP3    H122976   0.896   0.997   1.241 -0.0186 -1.2497  0.4568
  447TIP3    H222977   1.013   0.960   1.153 -0.5720  2.2461 -1.8519
  448TIP3   OH222978   6.355   5.594   7.748 -0.6143 -0.2972  0.0755
  448TIP3    H122979   6.425   5.655   7.724 -0.0822 -0.4758  1.1621
  448TIP3    H222980   6.281   5.621   7.693 -0.6795  1.9579  1.2010
  449TIP3   OH222981   2.713   1.268   6.612  0.3650  0.5503  0.1438
  449TIP3    H122982   2.644   1.214   6.651 -0.2316  1.6719  0.6872
  449TIP3    H222983   2.687   1.358   6.633  2.1952  0.9797  0.7112
  450TIP3   OH222984   0.809   5.775   0.918 -0.3888  0.1696 -0.1834
  450TIP3    H122985   0.859   5.851   0.888 -1.9839  1.0930 -0.5155
  450TIP3    H222986   0.876   5.710   0.940  0.9332  1.0408 -1.5411
  451TIP3   OH222987   1.854   3.508   1.313 -0.4312 -0.1362  0.0536
  451TIP3    H122988   1.786   3.463   1.365 -1.2466  2.3778  1.2440
  451TIP3    H222989   1.807   3.541   1.236  0.1542 -1.2534 -0.7896
  452TIP3   OH222990   2.660   0.497   7.277  0.0966  0.0970  0.6769
  452TIP3    H122991   2.577   0.545   7.280  0.1977  0.4989 -1.7559
  452TIP3    H222992   2.671   0.474   7.184  2.9934  0.5683  0.8633
  453TIP3   OH222993   1.442   3.952   7.687 -0.2237  0.0679  0.5293
  453TIP3    H122994   1.496   4.028   7.711 -3.0876  3.3385 -2.6283
  453TIP3    H222995   1.500   3.897   7.634  0.5833  2.6691 -1.3983
  454TIP3   OH222996   6.600   1.137   6.528 -0.6549  0.4758  0.0903
  454TIP3    H122997   6.634   1.213   6.480 -1.7772  1.2818  0.5482
  454TIP3    H222998   6.648   1.139   6.611  1.0689 -0.7454 -0.8410
  455TIP3   OH222999   1.071   2.858   1.188  0.0826 -0.4765 -0.5042
  455TIP3    H123000   1.000   2.895   1.135 -0.8771 -0.8703  0.5009
  455TIP3    H223001   1.141   2.923   1.182 -0.9706  0.7069 -0.1406
  456TIP3   OH223002   2.336   2.481   8.073  0.1375  0.1568  0.1659
  456TIP3    H123003   2.353   2.529   8.154  1.3113  2.0224 -1.1491
  456TIP3    H223004   2.423   2.457   8.040 -0.4149 -2.8405  0.7272
  457TIP3   OH223005   2.963   1.325   8.341 -0.1327  0.0515 -0.2194
  457TIP3    H123006   3.019   1.274   8.283 -1.0666 -1.2757  0.0093
  457TIP3    H223007   3.017   1.399   8.368  0.5072  0.3782 -2.3086
  458TIP3   OH223008   6.734   5.879   6.478 -0.2586  0.3218  0.5540
  458TIP3    H123009   6.680   5.804   6.453 -0.2096  0.1873  0.8519
  458TIP3    H223010   6.676   5.955   6.468 -0.1053  0.3249 -0.4266
  459TIP3   OH223011   2.334   0.393   0.586  0.7119  0.3193 -0.0398
  459TIP3    H123012   2.314   0.413   0.494 -0.7296 -1.0867 -0.0586
  459TIP3    H223013   2.430   0.394   0.590  0.8415 -0.9165 -1.8814
  460TIP3   OH223014   1.104   0.242   0.515 -0.4138 -0.1929 -0.0105
  460TIP3    H123015   1.041   0.209   0.579  0.6536 -0.3322  0.9845
  460TIP3    H223016   1.086   0.192   0.435 -1.7173 -0.0565  0.1931
  461TIP3   OH223017   1.877   0.544   1.178  0.0132 -0.2654 -0.2803
  461TIP3    H123018   1.846   0.469   1.229 -0.0779  0.2299  0.3982
  461TIP3    H223019   1.797   0.589   1.152  0.1070  0.3803  0.5124
  462TIP3   OH223020   1.523   7.314   0.141  0.4864 -0.1671 -0.0108
  462TIP3    H123021   1.594   7.364   0.100 -0.0390  1.3278  0.8713
  462TIP3    H223022   1.541   7.319   0.234 -1.0679  0.6753  0.2614
  463TIP3   OH223023   3.111   0.143   0.500  0.4293 -0.5051  0.2181
  463TIP3    H123024   3.128   0.070   0.558 -0.3015 -1.0438 -0.2341
  463TIP3    H223025   3.130   0.110   0.412 -2.0508 -0.8904 -0.2336
  464TIP3   OH223026   1.414   7.180   6.941 -0.2223 -0.7257  0.5175
  464TIP3    H123027   1.402   7.275   6.933  0.1318 -0.7922 -0.9952
  464TIP3    H223028   1.488   7.170   7.000  0.6629 -0.0080 -0.4454
  465TIP3   OH223029   2.448   1.102   6.989 -0.0323  0.4616 -0.6843
  465TIP3    H123030   2.355   1.105   6.965  0.1480 -0.3757 -1.5570
  465TIP3    H223031   2.487   1.043   6.924  1.8109  3.6817 -2.6174
  466TIP3   OH223032   0.722   2.233   6.505 -0.5052  0.6858  0.2450
  466TIP3    H123033   0.793   2.293   6.483  0.1295  0.7360  2.4011
  466TIP3    H223034   0.643   2.287   6.496 -0.0553  1.4437  0.7396
  467TIP3   OH223035   2.494   1.766   6.788  0.2010 -0.0719  0.1004
  467TIP3    H123036   2.475   1.860   6.794  1.1099  0.1008  0.2508
  467TIP3    H223037   2.541   1.756   6.705  0.5121 -0.3309  0.3066
  468TIP3   OH223038   6.950   3.061   6.684 -0.4842  0.2374  0.4479
  468TIP3    H123039   6.952   2.966   6.686  2.5591  0.2786  2.8841
  468TIP3    H223040   6.889   3.086   6.754 -2.7935  0.1081 -1.4677
  469TIP3   OH223041   2.452   0.890   8.379  0.2470  0.2673  0.1314
  469TIP3    H123042   2.451   0.795   8.368  1.8937  0.4231 -1.7223
  469TIP3    H223043   2.513   0.905   8.451 -2.0906 -0.1917  2.2668
  470TIP3   OH223044   0.775   1.051   6.396  0.2801 -0.7299 -0.1219
  470TIP3    H123045   0.714   1.005   6.454  0.7138  0.3105  1.1873
  470TIP3    H223046   0.745   1.030   6.308 -1.3210 -1.0922  0.4999
  471TIP3   OH223047   2.999   5.560   8.112  0.2599  0.8216  0.3838
  471TIP3    H123048   3.024   5.630   8.171  0.1866  0.8801  0.3467
  471TIP3    H223049   2.944   5.502   8.165  0.7876  0.4881  0.5680
  472TIP3   OH223050   2.941   7.224   6.020  0.4479 -0.0252  0.4870
  472TIP3    H123051   3.034   7.217   5.999  0.2253 -0.9746 -0.2159
  472TIP3    H223052   2.929   7.164   6.093  0.1850 -0.6623 -0.0819
  473TIP3   OH223053   1.902   0.966   6.043 -0.2334  0.4984  0.2383
  473TIP3    H123054   1.996   0.961   6.062 -0.5070 -2.0103  1.1909
  473TIP3    H223055   1.860   0.962   6.128 -1.2405 -0.3250 -0.2876
  474TIP3   OH223056   2.483   1.040   7.243  0.0793  0.1141  0.5363
  474TIP3    H123057   2.490   1.045   7.148  0.0441 -2.3847  0.3655
  474TIP3    H223058   2.572   1.055   7.275  0.1597  0.5976  0.0794
  475TIP3   OH223059   1.533   0.708   0.677  0.4136 -0.5971 -0.4795
  475TIP3    H123060   1.587   0.630   0.664  0.6836 -0.5503  0.2948
  475TIP3    H223061   1.591   0.781   0.654  1.1181 -0.4746  1.5356
  476TIP3   OH223062   2.435   0.063   6.166  0.4399  0.5339 -0.0013
  476TIP3    H123063   2.413   0.153   6.191 -0.6527  0.5292 -0.9028
  476TIP3    H223064   2.466   0.071   6.075  0.1274 -0.0222 -0.1569
  477TIP3   OH223065   7.307   2.255   6.300 -0.2754 -0.1276  0.0277
  477TIP3    H123066   7.390   2.292   6.269  0.6631 -1.2303  1.1781
  477TIP3    H223067   7.259   2.235   6.219  0.5582  0.5566 -0.6515
  478TIP3   OH223068   2.029   6.641   1.375 -0.7115 -0.4572 -0.5477
  478TIP3    H123069   2.037   6.710   1.309 -0.9946 -0.1420 -0.2512
  478TIP3    H223070   1.995   6.566   1.327 -3.9615  0.6980 -0.1409
  479TIP3   OH223071   7.241   5.451   0.570  0.3711  0.6125 -0.9956
  479TIP3    H123072   7.197   5.532   0.545  0.2386  0.0384 -2.6205
  479TIP3    H223073   7.246   5.456   0.666 -1.0328  1.8052 -0.9659
  480TIP3   OH223074   2.511   0.422   6.090 -0.2972  0.0306 -0.7026
  480TIP3    H123075   2.585   0.383   6.137 -0.8615 -0.0265  0.1511
  480TIP3    H223076   2.439   0.422   6.154 -0.7746  0.9281 -1.2259
  481TIP3   OH223077   2.566   0.185   8.040  0.3905 -0.8708 -0.0269
  481TIP3    H123078   2.531   0.098   8.060  2.2148 -1.9359 -1.3334
  481TIP3    H223079   2.609   0.174   7.956  0.9161  1.2402 -0.0459
  482TIP3   OH223080   2.135   0.537   6.327  0.3111 -0.6107  0.0959
  482TIP3    H123081   2.182   0.610   6.367  1.9059 -1.1793 -0.6864
  482TIP3    H223082   2.117   0.566   6.238 -0.2501 -0.6533  0.1944
  483TIP3   OH223083   0.534   5.824   7.529 -0.5241 -0.1323 -0.4296
  483TIP3    H123084   0.465   5.870   7.482  1.3345  1.4695 -1.6999
  483TIP3    H223085   0.613   5.837   7.476  0.9535 -1.1048  1.4293
  484TIP3   OH223086   0.072   0.041   7.357 -0.5761 -0.2619 -0.1245
  484TIP3    H123087   0.143   0.059   7.295 -0.5947 -0.9269 -0.3507
  484TIP3    H223088   0.053  -0.052   7.344 -0.7665 -0.3366  0.6900
  485TIP3   OH223089   2.034   0.952   6.344  0.0747  0.0528 -0.1133
  485TIP3    H123090   1.963   0.900   6.307 -0.7281  0.4970  0.8085
  485TIP3    H223091   2.114   0.913   6.307 -0.4865 -2.0828  0.8440
  486TIP3   OH223092   1.052   1.048   6.829  0.2989 -0.2319 -0.3200
  486TIP3    H123093   0.959   1.035   6.846  0.1652  0.8326 -0.2437
  486TIP3    H223094   1.055   1.092   6.744  0.7208 -0.0144 -0.1926
  487TIP3   OH223095   1.992   0.447   6.529  0.1886 -0.2371 -0.1677
  487TIP3    H123096   2.039   0.380   6.579 -0.5653 -0.8731 -0.2951
  487TIP3    H223097   2.058   0.486   6.472  0.9282  0.0987  0.9268
  488TIP3   OH223098   1.929   3.245   1.195 -0.4970  0.3103 -0.4018
  488TIP3    H123099   1.988   3.320   1.197 -0.3877  0.2140  0.6241
  488TIP3    H223100   1.855   3.272   1.249  0.0430 -0.7012  0.8892
  489TIP3   OH223101   0.450   6.683   6.781  0.2955 -0.2904 -0.2558
  489TIP3    H123102   0.465   6.777   6.795 -0.9140  0.0505 -1.1956
  489TIP3    H223103   0.358   6.669   6.801  0.7554 -1.5200  1.0561
  490TIP3   OH223104   4.770   2.068   7.376  0.3376 -0.2649 -1.0228
  490TIP3    H123105   4.698   2.084   7.315 -0.7289  1.0278  0.5309
  490TIP3    H223106   4.819   2.151   7.378 -0.1271 -0.0133  0.4911
  491TIP3   OH223107   2.277   5.937   8.107  0.6709 -0.0762 -0.1490
  491TIP3    H123108   2.360   5.957   8.151  0.2628  0.8317  0.2162
  491TIP3    H223109   2.252   6.019   8.064  1.2081 -1.0086 -2.3277
  492TIP3   OH223110   0.115   0.865   1.319  0.4022  0.4806  0.0751
  492TIP3    H123111   0.191   0.917   1.344 -0.5658  1.7096  0.4919
  492TIP3    H223112   0.111   0.795   1.383  0.1801  1.4093  1.0836
  493TIP3   OH223113   3.299   4.579   0.112  0.1086  0.5824 -0.4582
  493TIP3    H123114   3.354   4.506   0.082 -0.6234  0.5248 -1.7498
  493TIP3    H223115   3.233   4.538   0.168  1.5134  0.6883  1.2849
  494TIP3   OH223116   1.663   3.092   0.766  0.3986 -0.6376 -0.4513
  494TIP3    H123117   1.745   3.089   0.816 -0.4180 -1.1216  0.8654
  494TIP3    H223118   1.685   3.051   0.682  0.7287 -3.5651  1.0115
  495TIP3   OH223119   1.837   6.130   8.347  0.6176 -0.3046  0.5051
  495TIP3    H123120   1.898   6.058   8.365  2.8039  0.8662 -1.9398
  495TIP3    H223121   1.809   6.115   8.256  0.5754  1.5732  0.1980
  496TIP3   OH223122   4.526   6.863   8.161  0.2420  0.5685  0.4416
  496TIP3    H123123   4.442   6.819   8.176  0.0391  0.9972  0.5596
  496TIP3    H223124   4.591   6.796   8.181 -0.0607  0.4701  1.1225
  497TIP3   OH223125   1.371   0.716   6.997  0.0799  0.4518 -0.1572
  497TIP3    H123126   1.446   0.699   6.940  0.1885 -0.3114  0.2121
  497TIP3    H223127   1.313   0.772   6.945  0.3639  0.0893 -0.8645
  498TIP3   OH223128   5.773   0.472   1.713  0.2782 -0.3717  0.2234
  498TIP3    H123129   5.784   0.567   1.709 -0.3008 -0.3518 -1.0197
  498TIP3    H223130   5.837   0.443   1.778 -0.4951  1.0139  1.6434
  499TIP3   OH223131   0.997   4.266   7.288 -0.2858 -0.5547  0.1024
  499TIP3    H123132   0.927   4.208   7.259  1.0976 -2.1361 -0.1593
  499TIP3    H223133   1.026   4.228   7.371  0.4595 -0.0813  0.0632
  500TIP3   OH223134   3.797   1.621   7.478  0.2192  0.5329 -0.3910
  500TIP3    H123135   3.772   1.585   7.563  0.7979 -1.2829 -0.9606
  500TIP3    H223136   3.761   1.559   7.415  1.7825  0.6218 -1.3928
  501TIP3   OH223137   1.917   1.408   0.673  0.2140 -0.0737 -0.1822
  501TIP3    H123138   1.939   1.349   0.601  0.9174 -2.1308  1.6854
  501TIP3    H223139   1.883   1.352   0.742 -0.2927  1.8421  1.1791
  502TIP3   OH223140   5.193   6.634   7.825 -0.1805 -0.1123  0.0506
  502TIP3    H123141   5.267   6.682   7.862 -1.0896 -0.2107  2.0796
  502TIP3    H223142   5.190   6.660   7.733  1.1078  1.4880  0.4523
  503TIP3   OH223143   6.582   0.612   6.937 -0.4974  0.1824 -0.9256
  503TIP3    H123144   6.587   0.672   6.863 -1.5109  1.4893  0.0335
  503TIP3    H223145   6.504   0.641   6.985  0.8799  0.1953  1.3592
  504TIP3   OH223146   1.616   0.826   6.778 -0.1333 -0.6044  1.1531
  504TIP3    H123147   1.678   0.785   6.838 -1.5819 -2.3035  1.5426
  504TIP3    H223148   1.662   0.830   6.694  1.2566  0.1139  1.9520
  505TIP3   OH223149   3.495   0.807   7.135 -0.0441 -0.3768  0.2188
  505TIP3    H123150   3.422   0.837   7.189  0.2066  0.2259  0.2283
  505TIP3    H223151   3.570   0.858   7.165  0.3380 -0.8398  0.0628
  506TIP3   OH223152   1.411   7.129   7.873  0.5473 -0.5331  0.3348
  506TIP3    H123153   1.411   7.051   7.927  0.3331  1.4706  3.3411
  506TIP3    H223154   1.319   7.154   7.866  0.5502 -0.8503 -1.1542
  507TIP3   OH223155   2.824   0.671   7.882 -0.3383 -0.1633 -0.0713
  507TIP3    H123156   2.751   0.666   7.820  0.0891 -1.9579 -0.4553
  507TIP3    H223157   2.783   0.663   7.968 -0.6903 -0.1278 -0.2341
  508TIP3   OH223158   7.313   0.594   7.134 -0.6798  0.3599  0.0741
  508TIP3    H123159   7.300   0.687   7.153 -1.9869  0.1750  0.1391
  508TIP3    H223160   7.275   0.549   7.210 -0.4425 -0.2436 -0.1613
  509TIP3   OH223161   0.579   0.982   6.075  0.1765  0.1194 -0.2349
  509TIP3    H123162   0.574   0.904   6.131 -0.9257  0.6360  0.4144
  509TIP3    H223163   0.624   0.952   5.996  0.8827 -0.8614  0.5272
  510TIP3   OH223164   1.948   6.531   6.964 -0.4323 -0.8171 -0.3481
  510TIP3    H123165   1.893   6.482   7.026 -2.6638  1.1542 -0.7139
  510TIP3    H223166   1.990   6.598   7.018 -0.1123 -0.9252 -0.4638
  511TIP3   OH223167   1.149   6.972   6.388  0.3452 -0.0240  0.3219
  511TIP3    H123168   1.154   7.042   6.453 -2.1480  0.3039  0.2135
  511TIP3    H223169   1.143   7.017   6.304 -0.5483 -0.3637  0.1979
  512TIP3   OH223170   6.847   2.168   1.685  0.0801 -0.3526  0.6608
  512TIP3    H123171   6.938   2.153   1.709 -0.1802  0.8069  2.5633
  512TIP3    H223172   6.799   2.156   1.767 -1.2188  1.1354  0.1494
  513TIP3   OH223173   1.328   2.337   6.147  0.3988  0.3430 -0.7945
  513TIP3    H123174   1.287   2.262   6.191  1.3488 -0.8293 -1.8565
  513TIP3    H223175   1.278   2.413   6.177  0.5395 -0.5098  1.6640
  514TIP3   OH223176   2.845   0.149   6.053 -0.3518  0.2934  0.2009
  514TIP3    H123177   2.804   0.203   5.985  2.0831  2.2014  0.1655
  514TIP3    H223178   2.866   0.067   6.008 -2.9875 -0.2693 -0.0758
  515TIP3   OH223179   7.044   6.329   7.037  0.5006 -0.0332  0.0605
  515TIP3    H123180   7.095   6.347   6.958  0.4867 -0.6706 -0.0943
  515TIP3    H223181   6.988   6.255   7.013  1.6839 -1.3306  1.1874
  516TIP3   OH223182   0.401   6.708   1.900 -0.0229  1.0076  0.4335
  516TIP3    H123183   0.343   6.682   1.828  0.8536  2.0922 -0.6564
  516TIP3    H223184   0.379   6.799   1.917 -0.2947  0.7330  1.6248
  517TIP3   OH223185   6.211   1.430   7.514 -0.6086  0.4674 -0.2922
  517TIP3    H123186   6.251   1.504   7.559 -1.7452  0.5877  0.5256
  517TIP3    H223187   6.285   1.382   7.476  0.4589 -0.2553  2.6022
  518TIP3   OH223188   2.709   0.095   7.834  0.1902  0.0366 -0.2657
  518TIP3    H123189   2.776   0.038   7.797  0.3381  0.4461 -0.6282
  518TIP3    H223190   2.662   0.129   7.759 -1.4754 -1.5116  0.0526
  519TIP3   OH223191   0.737   6.701   0.204  0.0388  0.1931  0.0319
  519TIP3    H123192   0.756   6.790   0.234 -1.1129  0.5230 -0.1733
  519TIP3    H223193   0.815   6.651   0.225  0.6898  1.2557  0.1685
  520TIP3   OH223194   1.989   6.561   6.690 -0.0307  0.1301  0.4635
  520TIP3    H123195   1.987   6.535   6.782 -1.0307 -0.6930  0.2234
  520TIP3    H223196   1.904   6.533   6.656  0.7875 -0.6217 -1.0002
  521TIP3   OH223197   2.700   1.930   7.524 -0.5168  0.2174  0.1661
  521TIP3    H123198   2.754   1.888   7.590  1.1420  1.6604 -0.2465
  521TIP3    H223199   2.622   1.959   7.572 -0.0267 -0.1191  1.1726
  522TIP3   OH223200   2.568   1.318   7.552  0.5411 -0.1837 -0.3757
  522TIP3    H123201   2.605   1.244   7.504 -0.3943 -0.2124 -1.0649
  522TIP3    H223202   2.644   1.363   7.590  1.4614  0.8589 -3.3461
  523TIP3   OH223203   4.485   3.146   7.598  0.4711 -0.4865 -0.1923
  523TIP3    H123204   4.512   3.114   7.512 -0.1764 -1.3029 -0.0947
  523TIP3    H223205   4.411   3.090   7.623 -1.4208  1.7946 -0.5163
  524TIP3   OH223206   1.841   0.610   6.138  0.5281 -0.3673  0.0489
  524TIP3    H123207   1.825   0.700   6.165  1.0613 -0.0803 -0.6033
  524TIP3    H223208   1.756   0.567   6.149  0.1147  0.3661 -0.2537
  525TIP3   OH223209   2.225   1.484   6.025 -0.4234  0.5478 -0.0091
  525TIP3    H123210   2.214   1.543   6.099 -1.4235 -0.6915  0.8471
  525TIP3    H223211   2.175   1.406   6.048 -0.9468  0.2223 -2.0849
  526TIP3   OH223212   1.536   0.296   6.921  0.3236  0.5878  0.5417
  526TIP3    H123213   1.573   0.339   6.844  1.3589 -1.3015 -0.0567
  526TIP3    H223214   1.544   0.360   6.991  1.8002  1.3946 -0.3375
  527TIP3   OH223215   2.245   0.810   6.236 -0.2725 -0.4916  0.0194
  527TIP3    H123216   2.221   0.745   6.171 -1.1023 -0.7886  0.6271
  527TIP3    H223217   2.338   0.793   6.253 -0.3042 -1.0470 -0.3506
  528TIP3   OH223218   2.576   0.117   5.930  0.2685 -0.2804 -0.0405
  528TIP3    H123219   2.650   0.067   5.967  0.4033  0.4139  0.6324
  528TIP3    H223220   2.616   0.195   5.892 -0.2141  0.5856  1.1954
  529TIP3   OH223221   3.778   6.330   0.808  0.1840  0.0859 -0.1046
  529TIP3    H123222   3.699   6.285   0.838 -0.7991  2.4010  0.8850
  529TIP3    H223223   3.814   6.371   0.888  0.8080  1.3921 -1.0361
  530TIP3   OH223224   3.287   0.901   7.554 -0.6585  0.2738  0.0313
  530TIP3    H123225   3.236   0.828   7.592 -1.3849  0.7764  0.0377
  530TIP3    H223226   3.250   0.913   7.467  1.0412 -0.9054 -0.8724
  531TIP3   OH223227   4.557   7.279   7.576 -0.2542 -0.0126  0.6861
  531TIP3    H123228   4.495   7.227   7.627 -0.4379 -0.8989 -0.4523
  531TIP3    H223229   4.620   7.216   7.542 -0.5221  0.4935 -0.7636
  532TIP3   OH223230   2.312   7.158   6.237  0.4235 -0.1164  0.8214
  532TIP3    H123231   2.222   7.159   6.202  0.4715 -3.7205  0.4506
  532TIP3    H223232   2.351   7.239   6.203 -2.3119  0.9551  0.0318
  533TIP3   OH223233   3.689   0.572   7.028 -0.4741 -0.2057 -0.5053
  533TIP3    H123234   3.779   0.570   6.996 -0.3743 -3.1339 -0.1126
  533TIP3    H223235   3.698   0.583   7.123 -0.4501 -2.3952 -0.2367
  534TIP3   OH223236   3.464   2.423   8.103 -0.2802 -0.2875 -0.7767
  534TIP3    H123237   3.554   2.393   8.093  0.3572  0.9752  0.9747
  534TIP3    H223238   3.441   2.458   8.017  1.5445  1.0938 -0.7330
  535TIP3   OH223239   3.667   1.213   6.970  0.2021  0.1238  0.1610
  535TIP3    H123240   3.719   1.177   7.042  1.8453  0.1956 -0.9562
  535TIP3    H223241   3.731   1.259   6.916 -1.2087  1.0935 -0.7046
  536TIP3   OH223242   4.093   0.103   0.092 -0.0502 -0.4278 -0.0319
  536TIP3    H123243   4.005   0.137   0.075 -0.4720 -1.2080  0.5465
  536TIP3    H223244   4.124   0.155   0.166  0.0046 -0.0899 -0.2940
  537TIP3   OH223245   3.924   1.948   7.719 -0.0723  0.1520  0.1690
  537TIP3    H123246   3.986   1.885   7.683 -0.3910 -1.0796  1.7150
  537TIP3    H223247   3.837   1.912   7.697 -0.2545  0.0439  1.0613
  538TIP3   OH223248   1.374   2.769   6.434 -0.4453 -0.1101  0.2122
  538TIP3    H123249   1.463   2.798   6.415 -0.9506  1.2715 -0.1496
  538TIP3    H223250   1.379   2.729   6.521  0.8882 -1.8091 -0.6207
  539TIP3   OH223251   5.724   6.544   8.014 -0.1562 -0.5436  0.3896
  539TIP3    H123252   5.813   6.541   8.049  0.2181  2.2268 -0.1937
  539TIP3    H223253   5.727   6.489   7.936  2.1656  2.7118 -1.9294
  540TIP3   OH223254   2.164   1.548   7.540  0.0208 -0.5176  0.7668
  540TIP3    H123255   2.103   1.611   7.501  0.5277  0.0189  0.8280
  540TIP3    H223256   2.235   1.602   7.574  0.6142 -1.1520  0.5463
  541TIP3   OH223257   3.016   1.059   7.251  0.4879 -0.1384 -0.3761
  541TIP3    H123258   2.965   1.113   7.312  1.3710  1.2415 -0.8429
  541TIP3    H223259   2.980   0.971   7.261 -0.8942  0.5114  0.4867
  542TIP3   OH223260   2.205   1.591   6.294  0.0802  0.3126 -0.1064
  542TIP3    H123261   2.208   1.686   6.303 -0.5511  0.1249  2.5208
  542TIP3    H223262   2.119   1.566   6.328  0.2264 -1.2049 -0.7906
  543TIP3   OH223263   3.324   3.582   7.372  0.0171 -0.0341  0.3639
  543TIP3    H123264   3.289   3.499   7.404 -0.4001  0.4961  1.3169
  543TIP3    H223265   3.258   3.647   7.398  0.5218  0.6418 -0.0386
  544TIP3   OH223266   4.965   7.136   6.439  1.1483  0.0702 -0.2441
  544TIP3    H123267   4.901   7.124   6.368  0.5064  0.6561  0.2327
  544TIP3    H223268   5.015   7.054   6.439 -2.0143 -1.9778  1.7799
  545TIP3   OH223269   2.776   0.313   5.860  0.0226  0.2700 -0.6381
  545TIP3    H123270   2.745   0.404   5.860 -0.3925  0.1350 -0.0308
  545TIP3    H223271   2.867   0.319   5.829  0.8388  1.2226  1.7650
  546TIP3   OH223272   2.646   3.032   6.231 -0.2138  0.2464 -0.0317
  546TIP3    H123273   2.732   3.063   6.257 -0.6271  0.5491  1.0117
  546TIP3    H223274   2.663   2.950   6.185  0.5607 -0.2492  1.1118
  547TIP3   OH223275   2.360   1.510   6.579  0.2255  0.5019 -0.0947
  547TIP3    H123276   2.338   1.504   6.486 -0.2316  3.2920 -0.2249
  547TIP3    H223277   2.302   1.578   6.612  0.2334 -0.6187  2.2980
  548TIP3   OH223278   3.068   6.269   0.855 -0.0749  0.0300  0.3363
  548TIP3    H123279   3.105   6.358   0.855 -0.8712  0.3859 -1.1330
  548TIP3    H223280   2.979   6.280   0.821 -0.1903 -1.3272  0.1791
  549TIP3   OH223281   3.036   2.624   7.175 -0.6597  0.2329  0.4417
  549TIP3    H123282   2.973   2.565   7.134  2.1426 -2.1699 -0.5061
  549TIP3    H223283   3.051   2.692   7.109 -0.6151 -0.3716 -0.1740
  550TIP3   OH223284   2.396   2.309   5.972  0.2280  0.4373  0.1914
  550TIP3    H123285   2.413   2.371   5.902  1.8443  1.7022  1.6553
  550TIP3    H223286   2.318   2.342   6.015 -0.6994 -0.2769 -0.9284
  551TIP3   OH223287   4.895   3.023   7.086  0.1015  0.8076  0.0262
  551TIP3    H123288   4.839   2.980   7.021  2.7137 -1.0187 -1.0882
  551TIP3    H223289   4.895   2.962   7.160  1.6660  0.0998 -0.5230
  552TIP3   OH223290   2.688   6.396   7.094 -0.2210  0.4481 -0.1065
  552TIP3    H123291   2.749   6.342   7.143 -0.2513  0.6827  0.1932
  552TIP3    H223292   2.744   6.452   7.040 -0.2200 -0.8023 -1.4080
  553TIP3   OH223293   2.708   0.865   6.344 -0.3434 -0.3665 -0.1383
  553TIP3    H123294   2.749   0.782   6.320  0.2576 -0.0857 -0.1062
  553TIP3    H223295   2.767   0.931   6.308 -1.0984  0.0399 -0.6199
  554TIP3   OH223296   4.237   2.608   7.031  0.1099 -0.5473  0.3038
  554TIP3    H123297   4.322   2.593   7.072  0.2207 -1.2261 -0.1697
  554TIP3    H223298   4.191   2.525   7.038 -0.4830 -0.2095  0.4684
  555TIP3   OH223299   3.926   3.494   1.086 -0.3727  0.0629 -0.2942
  555TIP3    H123300   3.901   3.411   1.045 -0.1453 -0.7176  1.1084
  555TIP3    H223301   3.899   3.484   1.177  0.7960  1.0448  0.1728
  556TIP3   OH223302   1.999   1.162   6.530 -0.1757 -0.2369  0.3314
  556TIP3    H123303   2.022   1.097   6.463  2.0982  1.6380 -0.8206
  556TIP3    H223304   1.945   1.226   6.483  0.7220  0.6455  0.4848
  557TIP3   OH223305   3.218   0.648   8.050 -0.6631 -0.7046 -0.4555
  557TIP3    H123306   3.258   0.615   7.970 -0.5407  0.0632 -0.7102
  557TIP3    H223307   3.128   0.613   8.047 -0.5118 -1.0814 -0.6831
  558TIP3   OH223308   3.458   1.275   6.187 -0.2710  0.4330 -0.4198
  558TIP3    H123309   3.510   1.356   6.177 -1.8739  1.1252 -3.8372
  558TIP3    H223310   3.370   1.306   6.206  0.0874 -0.7165  3.5666
  559TIP3   OH223311   4.209   1.289   7.447 -0.5742 -0.0018 -0.2323
  559TIP3    H123312   4.133   1.294   7.506 -0.3211  0.3242  0.0750
  559TIP3    H223313   4.277   1.337   7.494  1.1496 -3.9565  1.5219
  560TIP3   OH223314   3.237   2.379   6.062  0.0231 -0.8371  0.1707
  560TIP3    H123315   3.192   2.300   6.090 -2.7234  1.3013  1.9633
  560TIP3    H223316   3.258   2.425   6.143  3.5330 -0.6667 -0.7270
  561TIP3   OH223317   3.030   0.050   6.771 -0.1264  0.0411 -0.0251
  561TIP3    H123318   3.053  -0.027   6.822 -1.7071  0.0065  0.6780
  561TIP3    H223319   3.065   0.032   6.683  2.2742 -0.0634  0.9234
  562TIP3   OH223320   2.879   0.716   8.346  0.3151 -0.3621 -0.2454
  562TIP3    H123321   2.944   0.783   8.363  2.5477 -2.3423 -0.7213
  562TIP3    H223322   2.865   0.673   8.431  0.3262 -0.5261 -0.3255
  563TIP3   OH223323   2.356   0.266   7.582  0.2737 -0.2828 -0.1301
  563TIP3    H123324   2.339   0.282   7.489  0.7770 -1.7319 -0.4867
  563TIP3    H223325   2.452   0.264   7.588  0.2317 -1.8826  0.1098
  564TIP3   OH223326   2.299   6.224   0.379  0.5383 -0.2758  0.5866
  564TIP3    H123327   2.381   6.256   0.343  0.1560 -0.2843 -0.2886
  564TIP3    H223328   2.236   6.232   0.308 -0.5203  0.9247  1.6324
  565TIP3   OH223329   3.435   1.362   8.106 -0.4643  0.0022  0.7589
  565TIP3    H123330   3.408   1.270   8.109 -0.5994 -0.0559 -1.5173
  565TIP3    H223331   3.418   1.389   8.016 -1.3700  2.5561  1.6415
  566TIP3   OH223332   3.372   7.314   7.054  0.0985 -0.2716 -0.9124
  566TIP3    H123333   3.390   7.388   7.112 -0.7878 -0.4671 -0.3730
  566TIP3    H223334   3.367   7.353   6.966 -1.3269  0.4807 -0.5165
  567TIP3   OH223335   4.229   2.227   7.783 -0.2180 -0.0105  0.0888
  567TIP3    H123336   4.310   2.276   7.771 -0.2071 -0.0221  0.1168
  567TIP3    H223337   4.257   2.142   7.815 -0.2743  0.1734  0.6387
  568TIP3   OH223338   2.219   1.665   6.901 -0.2427 -0.0764 -0.6640
  568TIP3    H123339   2.311   1.688   6.910 -0.4504  0.0148  1.4316
  568TIP3    H223340   2.188   1.720   6.828  1.1745  0.4252 -0.9088
  569TIP3   OH223341   2.117   2.439   7.172 -0.1605 -0.0267 -0.0688
  569TIP3    H123342   2.211   2.454   7.172 -0.1097 -0.0809  2.4030
  569TIP3    H223343   2.079   2.527   7.181 -0.3498 -0.0230 -0.8691
  570TIP3   OH223344   1.656   3.165   6.266  0.3364 -0.2253 -0.0182
  570TIP3    H123345   1.652   3.114   6.348  0.0499 -1.7213 -0.9465
  570TIP3    H223346   1.573   3.146   6.222  2.2005 -2.7662 -2.5904
  571TIP3   OH223347   3.858   0.455   6.199 -0.3396 -0.0318  0.3452
  571TIP3    H123348   3.900   0.394   6.139  0.6195  1.2122 -0.2565
  571TIP3    H223349   3.923   0.470   6.268 -0.2528  0.9380  0.0617
  572TIP3   OH223350   3.099   1.262   8.100 -0.4059 -0.4634 -0.2528
  572TIP3    H123351   3.115   1.348   8.060  3.4109 -1.3942 -0.9224
  572TIP3    H223352   3.057   1.211   8.031  0.4001 -0.1575 -0.9768
  573TIP3   OH223353   2.418   0.991   7.633 -0.0911 -0.3399 -0.1384
  573TIP3    H123354   2.356   0.952   7.571  0.4929  0.0983 -1.0043
  573TIP3    H223355   2.402   1.085   7.626 -1.2681 -0.3675  1.7043
  574TIP3   OH223356   1.795   5.875   6.903  0.5853  0.1224 -0.1301
  574TIP3    H123357   1.794   5.815   6.977 -0.3010 -1.7189 -1.5869
  574TIP3    H223358   1.727   5.842   6.844  2.5244  0.4169 -2.6100
  575TIP3   OH223359   3.172   6.727   8.410  0.1061 -0.4341  0.0553
  575TIP3    H123360   3.194   6.815   8.382 -0.4647 -0.6873 -1.2172
  575TIP3    H223361   3.216   6.669   8.347 -1.2458 -0.9996 -0.4017
  576TIP3   OH223362   3.925   0.358   7.195  0.6411 -0.5107  0.1971
  576TIP3    H123363   3.966   0.273   7.180 -0.1529 -0.8078 -0.2698
  576TIP3    H223364   3.913   0.395   7.108  0.1104 -0.3263  0.3492
  577TIP3   OH223365   2.732   0.776   7.013  0.5488 -0.3313  0.5234
  577TIP3    H123366   2.656   0.719   7.021  0.5931 -0.3613  0.7520
  577TIP3    H223367   2.768   0.779   7.102  2.2921 -2.3683 -0.0590
  578TIP3   OH223368   2.045   0.026   6.831 -0.3053 -0.6843 -0.2433
  578TIP3    H123369   2.086   0.032   6.918 -0.7425  3.0952 -0.2135
  578TIP3    H223370   1.960  -0.013   6.847  0.7949 -2.8461  0.5625
  579TIP3   OH223371   3.327   7.113   7.276 -0.1288  0.1727  0.7169
  579TIP3    H123372   3.391   7.042   7.284 -1.1198 -0.8457 -0.3253
  579TIP3    H223373   3.378   7.188   7.246  0.3446 -1.0195 -1.5409
  580TIP3   OH223374   4.559   6.279   8.311 -0.7521 -0.6587 -0.1836
  580TIP3    H123375   4.569   6.369   8.340  0.0146 -1.3848  1.8644
  580TIP3    H223376   4.641   6.237   8.334 -1.1901 -1.9557 -0.9159
  581TIP3   OH223377   1.124   1.581   6.680  0.0555 -0.4142 -0.5170
  581TIP3    H123378   1.188   1.636   6.726 -3.0214  2.1639  0.8799
  581TIP3    H223379   1.120   1.619   6.592 -1.6948  1.3867  0.2961
  582TIP3   OH223380   1.427   6.912   6.432 -0.0565  0.0983 -0.0465
  582TIP3    H123381   1.337   6.932   6.406 -0.6194  1.0175  2.4297
  582TIP3    H223382   1.473   6.996   6.426  0.5482 -0.2922 -0.9349
  583TIP3   OH223383   1.908   7.166   6.501 -0.0544 -0.4972  0.3743
  583TIP3    H123384   1.948   7.220   6.433 -0.3988 -0.8755 -0.1331
  583TIP3    H223385   1.886   7.227   6.571 -2.3191  0.3766 -1.0340
  584TIP3   OH223386   1.032   0.567   6.084 -0.0393  0.2494 -0.0233
  584TIP3    H123387   1.010   0.543   5.995 -1.8148 -1.4763  0.8579
  584TIP3    H223388   0.970   0.636   6.107 -1.0044 -0.8038  0.5886
  585TIP3   OH223389   2.353   0.821   7.889  0.1743 -0.6793 -0.3143
  585TIP3    H123390   2.294   0.897   7.893 -0.3045 -1.0669  0.0802
  585TIP3    H223391   2.296   0.748   7.863  0.4638 -1.0703  0.1434
  586TIP3   OH223392   3.422   0.536   6.103 -0.2184  0.0330  0.4455
  586TIP3    H123393   3.477   0.464   6.073 -0.9820 -0.9037  1.2821
  586TIP3    H223394   3.376   0.566   6.024  1.2537  0.6327 -0.1992
  587TIP3   OH223395   2.206   1.267   6.711  0.3386  0.3725  0.5427
  587TIP3    H123396   2.151   1.231   6.641  1.6087 -0.3610 -0.1059
  587TIP3    H223397   2.180   1.359   6.717 -0.3119  0.2594 -0.3840
  588TIP3   OH223398   1.130   6.842   6.809  0.0751 -0.6863 -0.0943
  588TIP3    H123399   1.208   6.813   6.855 -1.1392  0.6625  2.9254
  588TIP3    H223400   1.121   6.934   6.832 -0.0456  0.3210 -3.8575
  589TIP3   OH223401   3.619   6.360   0.208 -0.4296 -0.4516  0.0463
  589TIP3    H123402   3.691   6.307   0.175 -1.8604 -1.5400 -1.4332
  589TIP3    H223403   3.563   6.298   0.255  0.3974  0.6780  2.6130
  590TIP3   OH223404   3.360   0.162   7.228  0.1562 -0.6060  0.5711
  590TIP3    H123405   3.277   0.162   7.276  0.7810 -0.8608  1.6622
  590TIP3    H223406   3.424   0.194   7.291  0.7050  0.6615 -0.6090
  591TIP3   OH223407   2.934   2.590   2.006  0.3422 -0.5320 -0.4496
  591TIP3    H123408   3.021   2.548   2.007  0.0502 -1.2776  3.4032
  591TIP3    H223409   2.947   2.672   2.054 -0.8940 -0.2160 -0.6445
  592TIP3   OH223410   1.252   1.226   6.898  0.2437  0.1824 -0.0499
  592TIP3    H123411   1.208   1.152   6.856 -2.1744  0.7557  1.3703
  592TIP3    H223412   1.190   1.298   6.892 -0.3260  0.2608  4.5794
  593TIP3   OH223413   4.703   0.075   6.537  0.4286 -0.1295  0.4902
  593TIP3    H123414   4.730   0.155   6.582 -0.6656  0.4871  0.0582
  593TIP3    H223415   4.737   0.086   6.448 -1.2073  0.6354 -0.0479
  594TIP3   OH223416   0.182   6.294   7.571 -0.3639 -0.0738 -0.2172
  594TIP3    H123417   0.140   6.257   7.648  0.3523 -0.1501  0.1469
  594TIP3    H223418   0.168   6.230   7.502  1.5841 -1.4511  0.6167
  595TIP3   OH223419   2.969   1.364   0.379  0.1707  0.6457  0.3014
  595TIP3    H123420   2.964   1.270   0.364  1.7878 -0.0150  3.5533
  595TIP3    H223421   2.886   1.386   0.421 -0.4462  0.8153 -0.9707
  596TIP3   OH223422   1.895   0.103   6.432 -0.5050 -0.7037 -0.2346
  596TIP3    H123423   1.848   0.165   6.488  0.9733 -0.2317  0.5142
  596TIP3    H223424   1.955   0.158   6.381  1.9131 -1.6126  1.5252
  597TIP3   OH223425   3.491   6.675   7.697  0.6700 -0.3421  0.4447
  597TIP3    H123426   3.502   6.589   7.656 -1.2783 -0.8524  0.9750
  597TIP3    H223427   3.397   6.691   7.696  0.7747  0.5758  2.8069
  598TIP3   OH223428   1.823   7.235   6.244 -0.1555 -0.2366  0.2165
  598TIP3    H123429   1.853   7.323   6.266 -0.7316 -0.2315  0.9965
  598TIP3    H223430   1.904   7.184   6.232  0.2420  0.9350 -2.5755
  599TIP3   OH223431   3.868   6.424   7.526 -0.0763  0.5010 -0.2155
  599TIP3    H123432   3.906   6.508   7.499 -3.4066  2.0228 -0.3769
  599TIP3    H223433   3.921   6.397   7.601  1.7786  2.1325 -0.8991
  600TIP3   OH223434   2.946   0.967   5.967  0.3121 -0.0520 -0.1460
  600TIP3    H123435   2.894   0.979   5.887  0.3365 -0.3903 -0.2169
  600TIP3    H223436   3.015   0.905   5.941 -1.0293 -1.9556  0.7244
  601TIP3   OH223437   0.859   7.003   6.138 -0.0818  0.0966 -0.4384
  601TIP3    H123438   0.920   7.067   6.176 -0.5575  0.9824 -1.1374
  601TIP3    H223439   0.869   6.925   6.192  0.4692  0.7826  0.4619
  602TIP3   OH223440   2.231   7.228   7.803 -0.1113  0.4415  0.7153
  602TIP3    H123441   2.145   7.264   7.824 -0.3534 -0.0482  0.5716
  602TIP3    H223442   2.213   7.158   7.740  0.3452  0.0046  1.0638
  603TIP3   OH223443   3.694   3.683   6.613 -0.1927  0.2432 -0.2971
  603TIP3    H123444   3.673   3.763   6.661  1.2945  0.6240 -0.2634
  603TIP3    H223445   3.756   3.710   6.546 -0.9505 -0.5932 -1.3642
  604TIP3   OH223446   2.475   2.064   6.577 -0.3706 -0.5116 -0.0396
  604TIP3    H123447   2.431   2.146   6.553  0.8806  0.2860  0.3381
  604TIP3    H223448   2.428   1.997   6.528  0.1178  0.7058 -2.2632
  605TIP3   OH223449   2.173   1.190   6.192  0.3789  0.3739  0.4716
  605TIP3    H123450   2.212   1.131   6.128  0.8035 -0.5373  1.5488
  605TIP3    H223451   2.090   1.217   6.153  0.6309 -0.1714 -0.4523
  606TIP3   OH223452   4.722   2.508   7.278 -0.0202 -0.3616 -0.3991
  606TIP3    H123453   4.772   2.533   7.200 -0.8230 -2.4096 -1.5998
  606TIP3    H223454   4.756   2.423   7.303 -0.2524 -0.0353  1.0878
  607TIP3   OH223455   1.433   4.327   7.912  0.0427 -0.4433  0.3251
  607TIP3    H123456   1.508   4.380   7.937  0.0520 -0.9030  1.3193
  607TIP3    H223457   1.370   4.390   7.876  0.0155  0.2788  1.5739
  608TIP3   OH223458   3.067   0.318   5.838 -0.2596 -0.3475  0.5631
  608TIP3    H123459   3.097   0.303   5.749  0.3442  0.1380  0.6804
  608TIP3    H223460   3.060   0.413   5.845 -2.8214 -0.4815  0.2131
  609TIP3   OH223461   2.877   1.448   6.830 -0.4200 -0.9550  0.2067
  609TIP3    H123462   2.889   1.355   6.810  0.2557 -0.7440 -0.3861
  609TIP3    H223463   2.791   1.470   6.796 -0.0612 -1.0627 -0.7793
  610TIP3   OH223464   2.933   1.133   6.518 -0.3578 -0.1833  0.2912
  610TIP3    H123465   2.943   1.152   6.425 -0.5015 -3.2747 -0.4097
  610TIP3    H223466   2.856   1.183   6.545 -1.6843 -1.0200 -1.8214
  611TIP3   OH223467   2.548   0.863   6.575  0.6850 -0.3835 -0.3313
  611TIP3    H123468   2.514   0.952   6.586 -1.7020 -0.7205 -4.1259
  611TIP3    H223469   2.615   0.870   6.507  2.1482 -1.1609  0.9887
  612TIP3   OH223470   1.574   1.475   6.951 -0.0479 -0.1775  0.0537
  612TIP3    H123471   1.541   1.414   7.017  0.2698 -1.0731 -0.5954
  612TIP3    H223472   1.498   1.498   6.899  0.0338 -0.9521 -0.4242
  613TIP3   OH223473   3.937   7.035   7.147 -0.1010  0.0707 -0.2972
  613TIP3    H123474   3.842   7.041   7.154 -0.1286 -1.0776  0.3953
  613TIP3    H223475   3.955   6.942   7.143  1.0491  0.2675  0.2089
  614TIP3   OH223476   4.366   1.158   6.823  0.6314 -0.0346  0.1679
  614TIP3    H123477   4.384   1.066   6.803  1.5386  0.3336 -0.7575
  614TIP3    H223478   4.404   1.172   6.909  0.0443 -0.6462  0.5383
  615TIP3   OH223479   3.849   7.148   6.394 -0.3838 -0.2172  0.3168
  615TIP3    H123480   3.860   7.179   6.305 -0.1377  2.4093  1.2085
  615TIP3    H223481   3.910   7.075   6.402  0.5390  0.3671 -1.2729
  616TIP3   OH223482   3.057   7.206   6.541 -0.2913  0.3191 -0.0527
  616TIP3    H123483   2.998   7.159   6.482  0.4903 -1.4590  0.5708
  616TIP3    H223484   3.085   7.283   6.490 -1.8725  0.3482 -0.9324
  617TIP3   OH223485   1.414   1.258   7.098  0.2456 -0.1463  0.0650
  617TIP3    H123486   1.367   1.285   7.176  0.4345 -0.7120  0.3732
  617TIP3    H223487   1.347   1.255   7.029 -0.3221 -1.6937  0.6697
  618TIP3   OH223488   2.784   1.509   8.276 -0.1239 -0.2290 -0.2575
  618TIP3    H123489   2.831   1.432   8.309  0.0747  0.1455  0.3394
  618TIP3    H223490   2.702   1.510   8.326 -0.8404 -0.9597 -1.3930
  619TIP3   OH223491   2.220   1.536   7.136 -0.2442  0.0562 -0.2304
  619TIP3    H123492   2.237   1.560   7.044 -0.8449 -0.8892 -0.5977
  619TIP3    H223493   2.128   1.556   7.149 -0.3843 -0.6492 -0.1060
  620TIP3   OH223494   2.050   0.904   0.288  0.8027  0.6598  0.0939
  620TIP3    H123495   1.969   0.858   0.310  0.7366  0.3552 -0.7381
  620TIP3    H223496   2.120   0.845   0.314  0.7712  1.2257  1.4628
  621TIP3   OH223497   3.038   0.858   7.969 -0.6749  0.7774 -0.0905
  621TIP3    H123498   2.952   0.816   7.962 -0.7467  1.1410 -1.4048
  621TIP3    H223499   3.100   0.787   7.959 -0.7899  1.0424 -2.9464
  622TIP3   OH223500   3.466   3.307   7.572 -0.3725  0.9374 -0.2435
  622TIP3    H123501   3.524   3.364   7.522 -0.6803  1.5900  0.1434
  622TIP3    H223502   3.521   3.231   7.594  0.4720  1.7533  0.5054
  623TIP3   OH223503   1.535   7.313   6.578 -0.1612  0.2309  0.1608
  623TIP3    H123504   1.465   7.366   6.541  0.3315  1.7842  1.4234
  623TIP3    H223505   1.595   7.376   6.618  1.5859 -1.1202 -0.2571
  624TIP3   OH223506   4.430   3.590   1.082 -0.1038 -0.4732 -0.2165
  624TIP3    H123507   4.351   3.605   1.133 -0.2020  2.6275 -1.1833
  624TIP3    H223508   4.433   3.496   1.069 -2.9166 -0.7610  0.9621
  625TIP3   OH223509   3.050   2.842   7.026 -0.2231 -0.1084 -0.0288
  625TIP3    H123510   3.069   2.905   7.096  0.9640 -1.2041  0.6506
  625TIP3    H223511   3.040   2.896   6.947 -0.9165  1.0820  0.8522
  626TIP3   OH223512   1.609   6.906   6.165  0.0066  0.4558 -0.0531
  626TIP3    H123513   1.705   6.899   6.162  0.0392  1.3267 -1.8545
  626TIP3    H223514   1.592   6.969   6.235  0.8618  1.7338 -0.9680
  627TIP3   OH223515   2.611   1.496   6.714 -0.7039  0.1737 -0.1605
  627TIP3    H123516   2.522   1.474   6.686 -2.0339  2.9360  1.5751
  627TIP3    H223517   2.613   1.592   6.712  3.4268  0.1759 -3.5632
  628TIP3   OH223518   4.498   1.711   7.215 -0.1575  0.2865 -0.1745
  628TIP3    H123519   4.428   1.776   7.206  0.1153  0.7669  1.1044
  628TIP3    H223520   4.575   1.761   7.239  0.2997 -0.4046 -0.1855
  629TIP3   OH223521   4.605   2.824   0.821 -0.6642  0.1977  0.4526
  629TIP3    H123522   4.598   2.758   0.891 -0.7313 -0.3062 -0.0257
  629TIP3    H223523   4.531   2.883   0.837 -1.9134 -1.0937 -0.4002
  630TIP3   OH223524   4.289   0.593   1.519 -0.0283 -0.4087 -0.3145
  630TIP3    H123525   4.215   0.533   1.509 -0.9782  0.6827  0.0334
  630TIP3    H223526   4.253   0.678   1.494  1.4373 -0.0667 -1.2900
  631TIP3   OH223527   2.423   2.029   6.899  0.0182  1.0412 -0.5624
  631TIP3    H123528   2.452   2.113   6.864  1.0978  1.5398  1.4273
  631TIP3    H223529   2.462   2.025   6.986 -0.2211 -1.4161 -0.5274
  632TIP3   OH223530   2.624   1.635   7.469 -0.1472  0.0282 -0.2446
  632TIP3    H123531   2.713   1.638   7.505  0.3949 -0.9146 -1.4643
  632TIP3    H223532   2.634   1.593   7.384 -1.9521 -1.2723  0.1535
  633TIP3   OH223533   5.005   1.102   6.892 -0.2840  0.1359 -0.4516
  633TIP3    H123534   5.018   1.013   6.860  0.5709 -0.6185  1.8855
  633TIP3    H223535   5.065   1.110   6.966 -0.5334  2.5765 -0.4737
  634TIP3   OH223536   2.338   5.162   1.066  0.3501 -0.4197 -0.4108
  634TIP3    H123537   2.276   5.207   1.008  0.4411  0.6714  0.3154
  634TIP3    H223538   2.367   5.086   1.016 -0.8366 -0.4066 -1.1387
  635TIP3   OH223539   2.908   0.166   8.115  0.7161  0.5248  0.7738
  635TIP3    H123540   2.827   0.158   8.064  0.8035  0.1731  0.6941
  635TIP3    H223541   2.879   0.167   8.206  0.6682 -0.1931  0.7674
  636TIP3   OH223542   3.162   0.281   6.208 -0.2177 -0.3910  0.2643
  636TIP3    H123543   3.203   0.250   6.289 -1.8505 -1.7816  0.5918
  636TIP3    H223544   3.190   0.218   6.141  1.6338  1.1015 -0.4338
  637TIP3   OH223545   3.599   0.150   1.128  0.0575 -0.0511 -0.4073
  637TIP3    H123546   3.617   0.112   1.042  0.9047  1.2815 -0.8465
  637TIP3    H223547   3.641   0.090   1.190  0.4739 -0.3919 -1.0079
  638TIP3   OH223548   3.313   0.557   6.347 -0.2938  0.4680  0.3170
  638TIP3    H123549   3.227   0.526   6.317 -0.1898  0.5004 -0.0119
  638TIP3    H223550   3.372   0.541   6.273 -0.0470  0.5884  0.4863
  639TIP3   OH223551   2.813   5.624   1.237  0.5359  0.6395 -0.0858
  639TIP3    H123552   2.831   5.645   1.329  1.9141 -0.6086 -0.0590
  639TIP3    H223553   2.734   5.674   1.216 -1.5515 -1.3505  2.6432
  640TIP3   OH223554   2.533   0.589   7.008 -0.0310  0.5888  0.2826
  640TIP3    H123555   2.441   0.600   6.984  0.4753  1.2365 -1.4526
  640TIP3    H223556   2.554   0.499   6.982  0.0262  0.7053 -0.0918
  641TIP3   OH223557   3.689   0.035   7.537 -0.2459  0.1384  0.6244
  641TIP3    H123558   3.636  -0.042   7.516 -0.7437  0.8044 -0.6063
  641TIP3    H223559   3.780   0.006   7.528 -0.4176 -0.6328  1.3712
  642TIP3   OH223560   3.126   0.542   6.149 -0.2452  0.1469  0.1637
  642TIP3    H123561   3.139   0.447   6.156 -0.3626  0.1967  1.1002
  642TIP3    H223562   3.124   0.559   6.055  0.1054 -0.7373 -0.0070
  643TIP3   OH223563   3.629   1.297   6.454 -0.6678 -0.1373  0.7226
  643TIP3    H123564   3.694   1.343   6.401 -0.8929  0.3794  0.8873
  643TIP3    H223565   3.640   1.205   6.431 -0.0683 -0.0250  0.5427
  644TIP3   OH223566   3.428   0.964   0.805 -0.6012 -0.1355 -0.0928
  644TIP3    H123567   3.369   0.933   0.874  1.0783 -0.0864  1.3903
  644TIP3    H223568   3.423   1.059   0.810  1.4042 -0.0609  1.7051
  645TIP3   OH223569   2.363   5.690   6.632  0.2247 -0.4662 -0.2917
  645TIP3    H123570   2.384   5.665   6.542  2.8766 -0.7387  0.3534
  645TIP3    H223571   2.395   5.617   6.686  0.9076  0.7728  1.0333
  646TIP3   OH223572   3.022   1.127   7.848 -0.4607  0.5647  0.1002
  646TIP3    H123573   3.069   1.177   7.782  1.0612 -0.4602  0.3672
  646TIP3    H223574   3.060   1.039   7.843 -1.3613  0.0866  1.3156
  647TIP3   OH223575   2.366   1.417   7.333 -0.0072 -0.1526 -0.6859
  647TIP3    H123576   2.455   1.434   7.302  0.4468 -0.9367  0.1804
  647TIP3    H223577   2.310   1.464   7.270  0.9641 -0.3755 -1.7383
  648TIP3   OH223578   5.986   7.136   7.869 -0.2683 -0.6605 -0.0862
  648TIP3    H123579   5.905   7.175   7.839  0.2115 -0.2090 -0.8256
  648TIP3    H223580   6.055   7.184   7.822  0.6570  1.5475  3.3131
  649TIP3   OH223581   2.521   6.011   8.238  0.0221  0.3673  0.4196
  649TIP3    H123582   2.593   5.981   8.183 -0.0538 -0.2237  0.6444
  649TIP3    H223583   2.545   6.102   8.260  2.1417 -0.7010  2.8403
  650TIP3   OH223584   3.431   6.202   8.028 -0.7670  0.6884  0.3461
  650TIP3    H123585   3.435   6.138   8.099  2.7328  0.1705 -0.2126
  650TIP3    H223586   3.484   6.275   8.058 -2.5246  2.2023 -0.1381
  651TIP3   OH223587   1.195   0.692   8.140 -0.0848 -0.1799 -0.5912
  651TIP3    H123588   1.128   0.754   8.112 -0.1290  0.1728  0.3092
  651TIP3    H223589   1.216   0.643   8.060 -2.2659 -1.1156 -0.6397
  652TIP3   OH223590   2.914   2.009   6.211 -0.0997  0.3023  0.3181
  652TIP3    H123591   2.870   1.973   6.288  1.8247 -1.5510  0.5951
  652TIP3    H223592   2.992   2.052   6.246 -0.6768  1.9172 -0.3460
  653TIP3   OH223593   1.352   0.466   7.251  0.3029 -0.0282 -0.0133
  653TIP3    H123594   1.418   0.476   7.182  0.4559  0.8194  0.2535
  653TIP3    H223595   1.365   0.542   7.308  1.5351 -1.7614  2.1182
  654TIP3   OH223596   3.261   0.751   6.551 -0.3172 -0.6658 -0.0056
  654TIP3    H123597   3.319   0.710   6.487  0.8584 -0.6174  1.0101
  654TIP3    H223598   3.195   0.684   6.569 -1.9145  0.0677 -2.8244
  655TIP3   OH223599   2.904   2.282   7.440  0.9175 -0.3680  0.8055
  655TIP3    H123600   2.897   2.194   7.403  1.3963 -0.9945  2.1665
  655TIP3    H223601   2.974   2.324   7.389 -0.0651 -0.3677 -0.5898
  656TIP3   OH223602   3.576   3.789   7.954  0.1526 -0.3862  0.2257
  656TIP3    H123603   3.603   3.721   8.015  0.6132 -0.9925 -0.6487
  656TIP3    H223604   3.485   3.767   7.931  0.5040 -1.0619 -0.5333
  657TIP3   OH223605   4.836   7.208   6.683  0.2222  0.2434  0.0465
  657TIP3    H123606   4.782   7.276   6.643  1.0156 -0.2948 -2.0003
  657TIP3    H223607   4.905   7.191   6.619  0.3097 -2.1670  0.7216
  658TIP3   OH223608   4.001   0.050   6.809  0.4499  0.3267  0.3875
  658TIP3    H123609   3.928   0.049   6.747 -0.5102  1.6104  1.4626
  658TIP3    H223610   4.006  -0.040   6.841  0.5611 -0.2057 -1.0852
  659TIP3   OH223611   4.935   1.139   7.763 -0.2702 -0.0583 -0.1311
  659TIP3    H123612   4.898   1.143   7.675  1.1966  3.0493 -0.6828
  659TIP3    H223613   4.883   1.073   7.808 -1.9208 -0.7395 -2.9052
  660TIP3   OH223614   3.074   6.343   6.874  0.0602  0.0974  0.7121
  660TIP3    H123615   3.167   6.360   6.891 -0.7476  2.4470  3.2611
  660TIP3    H223616   3.063   6.358   6.781  2.3006 -0.5646  0.3102
  661TIP3   OH223617   3.751   3.044   6.417  0.1587 -0.2046 -0.6617
  661TIP3    H123618   3.845   3.028   6.406 -0.0856 -2.5894  0.4231
  661TIP3    H223619   3.710   2.962   6.390 -1.5761  0.5782 -0.4405
  662TIP3   OH223620   3.642   0.620   6.289  0.4254 -0.3991 -0.4194
  662TIP3    H123621   3.598   0.612   6.204 -0.1384 -1.9243  0.0115
  662TIP3    H223622   3.723   0.570   6.278  0.3605 -0.5793 -0.0428
  663TIP3   OH223623   2.691   7.269   6.484 -0.0916  0.6200 -0.0951
  663TIP3    H123624   2.744   7.230   6.415 -1.5103  0.5976 -1.2106
  663TIP3    H223625   2.635   7.332   6.438 -0.6697  1.0069  1.1143
  664TIP3   OH223626   1.858   0.751   7.679  0.5568 -0.0107  0.1707
  664TIP3    H123627   1.918   0.696   7.729 -1.4365 -2.6670 -0.2556
  664TIP3    H223628   1.779   0.755   7.732  0.1944  1.3898 -0.4468
  665TIP3   OH223629   3.113   2.717   7.436  0.5538  0.6818 -0.3953
  665TIP3    H123630   3.062   2.700   7.357  1.2008  1.1869 -0.9221
  665TIP3    H223631   3.082   2.651   7.499 -0.7963  1.0195 -0.6830
  666TIP3   OH223632   3.412   0.397   5.775  0.1174  0.2839 -0.8865
  666TIP3    H123633   3.332   0.345   5.776 -0.3067  0.9143 -1.6542
  666TIP3    H223634   3.383   0.487   5.783  0.7464  0.5157 -1.1204
  667TIP3   OH223635   3.511   7.076   6.974  0.1757  0.5981 -0.3916
  667TIP3    H123636   3.440   7.015   6.955  0.0352  0.6375  0.0014
  667TIP3    H223637   3.470   7.144   7.029  0.3353  1.0215 -0.7882
  668TIP3   OH223638   1.328   6.205   6.888 -0.3063 -0.5053 -0.3859
  668TIP3    H123639   1.310   6.170   6.800 -2.6554 -0.0436 -0.1180
  668TIP3    H223640   1.331   6.300   6.876 -1.3640 -0.3980  0.1350
  669TIP3   OH223641   3.813   4.865   8.381 -0.5989  0.2158 -0.0482
  669TIP3    H123642   3.907   4.847   8.390 -0.4301  0.7014 -0.7841
  669TIP3    H223643   3.796   4.855   8.287 -0.9435  1.7557 -0.1629
  670TIP3   OH223644   2.261   5.358   0.633  0.0401 -0.2867 -0.6900
  670TIP3    H123645   2.297   5.418   0.567  0.3302 -0.6589 -0.8716
  670TIP3    H223646   2.167   5.376   0.632  0.2892  1.1476  0.2582
  671TIP3   OH223647   4.761   1.123   7.098 -0.2067  0.2709 -0.4966
  671TIP3    H123648   4.810   1.131   7.016  0.5518 -4.1225 -0.5805
  671TIP3    H223649   4.826   1.137   7.166  0.1159 -0.4843 -0.6433
  672TIP3   OH223650   1.573   6.153   7.343 -0.2850  0.5834 -0.1477
  672TIP3    H123651   1.567   6.060   7.320 -1.0280  0.8369 -1.0247
  672TIP3    H223652   1.493   6.171   7.392  0.1596  0.6145  0.5687
  673TIP3   OH223653   1.980   0.442   7.986 -0.3180  0.0013 -0.3435
  673TIP3    H123654   1.905   0.420   7.931 -0.1731  0.2255 -0.6309
  673TIP3    H223655   2.035   0.498   7.931 -1.6837  2.8174  1.0294
  674TIP3   OH223656   2.871   0.822   7.529  0.6360 -0.3686  0.3382
  674TIP3    H123657   2.834   0.765   7.597  2.7541  0.1912  2.0420
  674TIP3    H223658   2.827   0.906   7.540  2.2451  0.2753  2.3133
  675TIP3   OH223659   4.567   6.109   7.028 -0.1152  0.3797 -0.2614
  675TIP3    H123660   4.577   6.170   6.955  2.0605 -0.4361 -0.6820
  675TIP3    H223661   4.578   6.163   7.106  0.3198  0.7869 -0.5992
  676TIP3   OH223662   2.546   0.640   5.945 -0.2036  0.2512 -0.2428
  676TIP3    H123663   2.524   0.551   5.971  0.9470 -0.0844 -0.3993
  676TIP3    H223664   2.632   0.633   5.904  1.6732  1.9730  3.1973
  677TIP3   OH223665   1.674   1.101   7.143  0.3621 -0.5950  0.0061
  677TIP3    H123666   1.652   1.062   7.228  0.2525 -0.2161  0.1535
  677TIP3    H223667   1.601   1.160   7.124 -0.2801 -1.6966 -0.9994
  678TIP3   OH223668   3.809   1.390   6.827  0.3608 -0.0849  0.2352
  678TIP3    H123669   3.896   1.422   6.850  0.7799 -0.4883 -0.7594
  678TIP3    H223670   3.810   1.386   6.731  0.0530 -2.3127  0.3057
  679TIP3   OH223671   1.852   6.153   0.255 -0.3086 -0.0760 -0.0639
  679TIP3    H123672   1.929   6.197   0.219 -1.0979 -0.9901 -3.0881
  679TIP3    H223673   1.887   6.079   0.304  0.8518  1.5769  1.6374
  680TIP3   OH223674   3.859   0.906   0.349  0.6967  0.1765 -0.0531
  680TIP3    H123675   3.934   0.965   0.339  1.6703 -0.8696  0.9921
  680TIP3    H223676   3.833   0.916   0.440  1.9255 -2.2223  0.6081
  681TIP3   OH223677   3.195   0.130   8.294 -0.5143  0.0992 -0.1372
  681TIP3    H123678   3.147   0.108   8.215  1.3580  0.8874 -1.5455
  681TIP3    H223679   3.266   0.065   8.297 -0.9313 -0.3117  1.2521
  682TIP3   OH223680   2.797   1.360   7.681 -0.5620  0.5428  0.0830
  682TIP3    H123681   2.799   1.281   7.736 -0.7379  0.5682  0.1275
  682TIP3    H223682   2.875   1.410   7.708 -1.3553  1.1852  1.2632
  683TIP3   OH223683   3.979   0.919   8.164  0.4246 -0.5738 -0.6193
  683TIP3    H123684   3.989   0.894   8.256 -1.4447 -2.9470 -1.0295
  683TIP3    H223685   3.892   0.959   8.159  0.5341 -0.4174 -1.3650
  684TIP3   OH223686   4.278   0.138   7.713 -0.9286 -0.0963 -0.3736
  684TIP3    H123687   4.193   0.093   7.712 -1.0817  0.0889  2.3260
  684TIP3    H223688   4.259   0.227   7.741  0.1048  0.0809 -0.1963
  685TIP3   OH223689   1.853   1.737   6.689 -0.8044  0.1352  0.2707
  685TIP3    H123690   1.884   1.817   6.647 -0.3787  0.1157  0.5497
  685TIP3    H223691   1.871   1.668   6.625 -2.0174  0.3876 -0.3540
  686TIP3   OH223692   2.445   1.151   6.638  0.2194 -0.6392 -0.1210
  686TIP3    H123693   2.369   1.186   6.686  1.1954 -0.1353  1.0810
  686TIP3    H223694   2.422   1.162   6.546 -1.5096 -1.2118  0.2054
  687TIP3   OH223695   4.177   6.031   7.471  0.5466  0.2932  0.4513
  687TIP3    H123696   4.200   5.939   7.468 -0.3275  0.0866 -0.2096
  687TIP3    H223697   4.095   6.034   7.519  0.6598  0.7501  0.6223
  688TIP3   OH223698   2.465   2.238   7.765  0.0879 -0.3865 -0.3360
  688TIP3    H123699   2.546   2.245   7.715  0.0672  1.5475 -0.1257
  688TIP3    H223700   2.457   2.322   7.810 -2.7373 -0.0646 -1.3895
  689TIP3   OH223701   4.791   0.765   7.365  0.1821  0.4866 -0.0244
  689TIP3    H123702   4.780   0.795   7.275  0.2353 -1.3224 -0.6494
  689TIP3    H223703   4.883   0.741   7.372 -0.3061 -1.5637 -0.2008
  690TIP3   OH223704   1.335   2.287   1.228  0.3215 -0.1112 -0.3307
  690TIP3    H123705   1.362   2.376   1.204  0.5112 -0.2001 -0.4466
  690TIP3    H223706   1.301   2.249   1.147  1.1350 -0.4739 -0.5059
  691TIP3   OH223707   3.000   0.870   6.665 -0.1599  0.3076  0.3037
  691TIP3    H123708   2.985   0.935   6.597  1.5535  1.0986  0.6709
  691TIP3    H223709   3.022   0.790   6.618  0.8209  0.8029 -0.0977
  692TIP3   OH223710   2.598   7.275   7.052 -0.5518  0.1403 -0.2987
  692TIP3    H123711   2.600   7.359   7.097  0.1272  0.9992 -1.8992
  692TIP3    H223712   2.540   7.290   6.977 -1.1598 -1.0808 -0.0778
  693TIP3   OH223713   1.151   7.118   6.897 -0.6120  1.1080  0.8861
  693TIP3    H123714   1.167   7.195   6.842 -0.2422  0.4199  0.0246
  693TIP3    H223715   1.231   7.109   6.950 -0.2039  0.6518  0.1883
  694TIP3   OH223716   6.054   0.217   7.443  0.2552  0.2904  0.1582
  694TIP3    H123717   5.980   0.258   7.486 -0.7726 -0.5771 -0.7628
  694TIP3    H223718   6.122   0.285   7.442 -0.0797  0.6813  2.1020
  695TIP3   OH223719   6.655   6.332   7.764  0.2762 -0.3485 -0.4398
  695TIP3    H123720   6.652   6.427   7.766  0.0068 -0.3215 -1.5333
  695TIP3    H223721   6.638   6.305   7.854 -0.4563  0.6220 -0.2744
  696TIP3   OH223722   3.724   0.174   7.921  0.1055 -0.2687 -0.1110
  696TIP3    H123723   3.784   0.164   7.995 -1.2853 -0.8965  0.9452
  696TIP3    H223724   3.676   0.092   7.917  0.9625 -0.6864 -2.4574
  697TIP3   OH223725   1.640   1.037   5.993 -0.6353  0.2504  0.3390
  697TIP3    H123726   1.729   1.003   6.003 -1.0590 -1.0495 -0.1847
  697TIP3    H223727   1.594   0.971   5.941 -1.6654  1.3382 -0.1747
  698TIP3   OH223728   3.368   0.509   7.131  0.0424  0.1138  0.5697
  698TIP3    H123729   3.424   0.431   7.128  1.0494  0.8674 -0.3261
  698TIP3    H223730   3.408   0.564   7.198  2.0559  1.8959 -1.9956
  699TIP3   OH223731   1.518   0.541   6.438  0.7948  0.0634 -0.0240
  699TIP3    H123732   1.509   0.583   6.523  2.9293  0.3775  0.0602
  699TIP3    H223733   1.551   0.610   6.380  1.4761 -0.7171 -0.5819
  700TIP3   OH223734   3.546   0.539   6.518  0.3556  0.4799  0.2751
  700TIP3    H123735   3.563   0.580   6.433 -1.9833 -1.1367 -1.0408
  700TIP3    H223736   3.595   0.457   6.515  3.1982  2.0170  2.0053
  701TIP3   OH223737   3.239   0.146   5.991 -0.0642 -0.1641 -0.2107
  701TIP3    H123738   3.178   0.181   5.926 -3.3973 -0.2717  2.7059
  701TIP3    H223739   3.243   0.052   5.971  0.8874  0.1858 -1.7466
  702TIP3   OH223740   2.794   1.488   0.121 -0.4264 -0.5705  0.1640
  702TIP3    H123741   2.875   1.492   0.173 -0.4115  2.6612 -0.0398
  702TIP3    H223742   2.779   1.394   0.109  1.6669 -1.3095  2.7287
  703TIP3   OH223743   1.659   0.986   7.418  0.1760 -0.4840 -0.3423
  703TIP3    H123744   1.659   1.055   7.484  0.5087  0.5342 -1.3856
  703TIP3    H223745   1.728   0.925   7.446  1.7247  1.0113 -0.8277
  704TIP3   OH223746   2.027   1.445   6.843  0.0615 -0.2059  0.2543
  704TIP3    H123747   1.976   1.452   6.923 -0.2376  1.4799 -0.0548
  704TIP3    H223748   2.109   1.491   6.862 -0.5163  1.3077 -0.7721
  705TIP3   OH223749   4.416   6.399   8.102  0.2355 -0.1067  0.5504
  705TIP3    H123750   4.456   6.350   8.173 -0.0505 -1.1473 -0.0059
  705TIP3    H223751   4.341   6.444   8.142 -0.5950 -1.5888  0.6671
  706TIP3   OH223752   4.299   0.825   1.263 -0.3512 -0.1157 -0.3171
  706TIP3    H123753   4.266   0.889   1.200  0.9810  1.2571  0.3300
  706TIP3    H223754   4.290   0.740   1.219 -2.0910  0.5210 -1.2124
  707TIP3   OH223755   3.487   6.833   7.454 -0.1058 -0.0284  0.3182
  707TIP3    H123756   3.546   6.777   7.503 -1.3023 -1.4795  0.1377
  707TIP3    H223757   3.453   6.778   7.384  0.0947  1.4563 -0.9879
  708TIP3   OH223758   4.100   1.221   6.799 -0.3302 -1.0352 -0.1064
  708TIP3    H123759   4.084   1.133   6.764  1.9877 -0.9833 -1.3654
  708TIP3    H223760   4.195   1.224   6.813 -0.8030  0.0401  3.2851
  709TIP3   OH223761   5.987   5.501   8.204  0.5947  0.0075 -0.1461
  709TIP3    H123762   6.082   5.513   8.205  1.0942 -2.9630 -3.2501
  709TIP3    H223763   5.974   5.407   8.216 -2.0248  0.4554  1.0384
  710TIP3   OH223764   4.923   2.292   6.771 -0.2044 -0.2412 -0.2854
  710TIP3    H123765   4.860   2.328   6.709 -0.7321 -0.0940  0.3307
  710TIP3    H223766   4.982   2.239   6.717  1.3585  2.5220 -1.3975
  711TIP3   OH223767   3.180   1.350   7.413  0.1351 -0.2121  0.2826
  711TIP3    H123768   3.183   1.399   7.331 -0.3470 -0.1616  0.2970
  711TIP3    H223769   3.156   1.415   7.479  0.2015 -0.3217  0.4156
  712TIP3   OH223770   3.140   0.026   7.383  0.1339  0.3245 -0.0776
  712TIP3    H123771   3.125  -0.032   7.309 -2.0027  1.5682 -0.6680
  712TIP3    H223772   3.189  -0.027   7.446  2.2586 -0.6489 -2.4772
  713TIP3   OH223773   5.684   5.904   7.223 -0.3521  0.2704 -0.1773
  713TIP3    H123774   5.665   5.950   7.305  2.3018  1.1229  0.0137
  713TIP3    H223775   5.694   5.975   7.159  0.0297 -0.2638 -0.7038
  714TIP3   OH223776   6.619   0.409   6.769 -0.8283  0.1395 -0.3269
  714TIP3    H123777   6.530   0.396   6.735 -0.6538  0.1652 -0.7994
  714TIP3    H223778   6.607   0.463   6.848 -1.2444  0.0221 -0.3093
  715TIP3   OH223779   5.130   1.223   0.132 -0.0550  0.0268 -0.4029
  715TIP3    H123780   5.127   1.250   0.040 -0.3071 -0.3665 -0.5105
  715TIP3    H223781   5.081   1.141   0.135 -0.6403  0.3932  0.2101
  716TIP3   OH223782   4.667   0.446   6.321 -0.5918  0.2406 -0.0328
  716TIP3    H123783   4.684   0.531   6.361  1.1621 -0.0826 -0.0502
  716TIP3    H223784   4.743   0.430   6.265 -0.1856 -1.9805  1.0712
  717TIP3   OH223785   4.181   2.178   6.859 -0.0490 -0.3498 -0.1589
  717TIP3    H123786   4.154   2.123   6.932 -0.2192 -1.1652 -0.8328
  717TIP3    H223787   4.269   2.146   6.836  1.3467  1.9840  1.7296
  718TIP3   OH223788   2.695   6.749   6.597  0.2428  0.1686 -0.0758
  718TIP3    H123789   2.646   6.670   6.572  0.6531  0.2604 -1.1789
  718TIP3    H223790   2.687   6.807   6.522  0.9455  0.7059  0.2607
  719TIP3   OH223791   3.641   0.827   8.332 -0.1976  0.9832  0.1539
  719TIP3    H123792   3.659   0.851   8.422  2.2613  1.9140 -0.5452
  719TIP3    H223793   3.684   0.895   8.280 -0.4763 -0.2483 -1.7326
  720TIP3   OH223794   5.844   0.012   7.074  0.9719 -0.5524 -0.1005
  720TIP3    H123795   5.839   0.094   7.024  2.6275 -0.7357 -0.5888
  720TIP3    H223796   5.921   0.022   7.129  1.5068 -1.9997 -0.5682
  721TIP3   OH223797   3.220   1.183   7.644  0.4109  0.5920  0.4338
  721TIP3    H123798   3.257   1.095   7.643  0.8945  0.8014 -0.2096
  721TIP3    H223799   3.203   1.203   7.552  0.4082  1.2114  0.5683
  722TIP3   OH223800   3.917   1.697   6.998  0.4533  0.1179  0.2339
  722TIP3    H123801   3.969   1.671   6.923  0.3032  0.7349 -0.0866
  722TIP3    H223802   3.840   1.640   6.995 -0.5685  1.5520 -1.2859
  723TIP3   OH223803   6.970   0.652   6.861  0.1572 -0.8958  0.2958
  723TIP3    H123804   7.004   0.723   6.916 -0.1367  0.4920 -1.2586
  723TIP3    H223805   6.889   0.687   6.823 -0.3152 -2.2900 -0.0310
  724TIP3   OH223806   2.854   1.037   6.214  0.1838 -0.0365  0.0444
  724TIP3    H123807   2.880   1.026   6.123  1.2804 -1.0313  0.4662
  724TIP3    H223808   2.894   1.121   6.240  0.7006 -0.2370 -0.1012
  725TIP3   OH223809   3.812   0.810   0.648  0.5156 -0.6077  0.3941
  725TIP3    H123810   3.847   0.784   0.734 -2.2307 -0.4323  1.6148
  725TIP3    H223811   3.843   0.899   0.636  0.6527 -0.5206  1.3668
  726TIP3   OH223812   3.385   6.436   6.726  0.6777 -0.3420  0.5517
  726TIP3    H123813   3.450   6.381   6.770 -0.4793 -0.3299  2.3646
  726TIP3    H223814   3.397   6.523   6.764 -1.5685 -0.7380  2.3160
  727TIP3   OH223815   4.066   2.469   7.428  0.3620 -0.4289 -0.3252
  727TIP3    H123816   3.985   2.423   7.451  0.2077 -0.7194 -1.4091
  727TIP3    H223817   4.041   2.531   7.359  1.2781 -1.4230 -1.5936
  728TIP3   OH223818   4.731   6.647   6.531 -0.2432  0.2728 -0.9407
  728TIP3    H123819   4.772   6.646   6.445  1.1863  0.9238 -0.2922
  728TIP3    H223820   4.776   6.718   6.578  0.5930 -1.5395  1.0815
  729TIP3   OH223821   5.816   2.484   6.883 -0.2889  0.4689  0.4788
  729TIP3    H123822   5.735   2.445   6.916  0.5804 -1.4849  0.3647
  729TIP3    H223823   5.861   2.412   6.839  1.2286  1.6820  0.0103
  730TIP3   OH223824   3.406   1.285   6.623 -0.5973  0.5480 -0.1843
  730TIP3    H123825   3.417   1.190   6.626  1.0194  0.7208 -0.3734
  730TIP3    H223826   3.469   1.314   6.557  1.8405  2.1664  2.7894
  731TIP3   OH223827   6.415   4.432   7.384  0.4168 -0.0563 -0.4718
  731TIP3    H123828   6.477   4.417   7.312 -1.3865 -2.1640 -1.6371
  731TIP3    H223829   6.409   4.347   7.428 -2.3823 -0.1737 -0.9909
  732TIP3   OH223830   5.761   0.756   6.672 -0.1030 -0.0752 -0.1287
  732TIP3    H123831   5.768   0.779   6.579  3.7759  0.9701  0.3415
  732TIP3    H223832   5.749   0.840   6.716 -0.3499 -0.4200  0.4602
  733TIP3   OH223833   5.210   0.139   8.245  0.1763 -0.8493  0.0688
  733TIP3    H123834   5.130   0.129   8.296  0.6496 -0.2710  0.9311
  733TIP3    H223835   5.237   0.049   8.225 -0.2498 -1.0684  0.4663
  734TIP3   OH223836   6.099   1.733   6.938  0.7456  0.5516 -0.2614
  734TIP3    H123837   6.182   1.689   6.952 -0.1420 -0.7952  0.8908
  734TIP3    H223838   6.103   1.812   6.991 -0.5544 -1.9143  3.7815
  735TIP3   OH223839   3.837   1.489   7.735 -0.5051  0.0779  0.0256
  735TIP3    H123840   3.902   1.422   7.717 -0.9960 -0.4651  0.2310
  735TIP3    H223841   3.753   1.441   7.735 -1.2348  1.2026 -3.0702
  736TIP3   OH223842   3.865   1.687   6.296  0.4179 -0.2966  0.0828
  736TIP3    H123843   3.817   1.769   6.291 -1.5630 -1.4767 -0.9378
  736TIP3    H223844   3.954   1.710   6.270 -0.0680  1.5496 -0.0278
  737TIP3   OH223845   3.639   2.305   7.120 -0.0139  0.4343 -0.0139
  737TIP3    H123846   3.620   2.398   7.109 -0.4248  0.3128 -0.3414
  737TIP3    H223847   3.560   2.261   7.089 -0.5581  0.0185  1.8862
  738TIP3   OH223848   3.012   0.725   6.888 -0.3674 -0.5791 -0.1443
  738TIP3    H123849   2.932   0.730   6.939 -2.3279 -0.3729 -3.0832
  738TIP3    H223850   3.001   0.791   6.819  1.1231 -2.3645 -2.1684
  739TIP3   OH223851   4.348   1.732   6.249  0.1147 -0.4155  0.2830
  739TIP3    H123852   4.416   1.711   6.186  0.1733 -1.7474  0.7632
  739TIP3    H223853   4.348   1.657   6.310 -4.0410 -2.1091 -1.6371
  740TIP3   OH223854   5.823   2.963   7.764 -0.1029  0.9163 -0.0628
  740TIP3    H123855   5.908   3.005   7.751 -0.4949  1.9175  0.5652
  740TIP3    H223856   5.795   2.990   7.851 -0.7393  0.0064  0.0264
  741TIP3   OH223857   4.287   1.907   7.307  0.5688  0.0122 -0.3512
  741TIP3    H123858   4.353   1.969   7.338  0.1925  0.7278 -0.9634
  741TIP3    H223859   4.237   1.884   7.385  0.6727  0.5324 -0.1253
  742TIP3   OH223860   4.723   5.327   7.218  0.8349 -0.6368 -0.1723
  742TIP3    H123861   4.749   5.242   7.253 -1.1446 -1.0013  0.5040
  742TIP3    H223862   4.726   5.386   7.293  1.3782 -0.2930 -0.4599
  743TIP3   OH223863   1.481   1.643   1.326 -0.1420 -1.0558 -0.1192
  743TIP3    H123864   1.426   1.682   1.394  0.5759  0.0318 -0.1563
  743TIP3    H223865   1.420   1.591   1.273 -0.6249 -2.3092  1.6223
  744TIP3   OH223866   3.300   1.926   6.606  0.6338  0.4461  0.3773
  744TIP3    H123867   3.269   1.970   6.685  0.0023 -0.6027  0.7283
  744TIP3    H223868   3.336   1.843   6.639 -0.8658 -0.5987 -0.5666
  745TIP3   OH223869   6.638   2.302   1.265 -0.6360  0.0266  0.3363
  745TIP3    H123870   6.706   2.249   1.308 -2.7495 -1.8757  1.4347
  745TIP3    H223871   6.644   2.276   1.173  1.1877  1.0942  0.1191
  746TIP3   OH223872   5.829   1.528   0.343 -0.0118  0.6439 -0.0844
  746TIP3    H123873   5.801   1.558   0.430  1.1289 -0.2362  0.5925
  746TIP3    H223874   5.924   1.517   0.351 -0.1591 -1.3827 -0.8445
  747TIP3   OH223875   4.775   1.629   6.616 -0.4116 -0.2414 -0.0719
  747TIP3    H123876   4.754   1.644   6.708 -1.4194 -0.0140 -0.3289
  747TIP3    H223877   4.731   1.547   6.594 -1.2852  0.3858 -0.6979
  748TIP3   OH223878   2.955   1.129   6.819  0.2646  0.3930 -0.1161
  748TIP3    H123879   2.956   1.107   6.726 -0.0913 -0.2719  0.0352
  748TIP3    H223880   2.884   1.076   6.855  0.1852  0.8970  0.4726
  749TIP3   OH223881   4.074   1.799   6.162 -0.2529 -0.5238  0.2215
  749TIP3    H123882   4.162   1.790   6.198 -0.2643 -0.9212  0.1523
  749TIP3    H223883   4.088   1.824   6.070 -0.2190 -0.1593  0.3237
  750TIP3   OH223884   6.113   1.970   7.078 -1.0324 -0.4079  0.3431
  750TIP3    H123885   6.063   2.051   7.087 -0.5175  0.2329 -2.2803
  750TIP3    H223886   6.196   1.987   7.123 -0.2063  1.1752 -1.7349
  751TIP3   OH223887   5.776   0.139   7.574 -0.5706 -0.4665  0.0759
  751TIP3    H123888   5.795   0.130   7.668 -0.9584  0.8344  0.2895
  751TIP3    H223889   5.803   0.056   7.536  0.8330 -0.5192  1.1417
  752TIP3   OH223890   4.579   1.429   1.311 -0.0592 -0.4663 -0.9499
  752TIP3    H123891   4.670   1.450   1.288 -0.1747 -0.9148 -1.8486
  752TIP3    H223892   4.570   1.337   1.287 -0.9025 -0.2782 -1.3485
  753TIP3   OH223893   4.800   5.078   7.359  0.4587  0.0642 -1.0711
  753TIP3    H123894   4.779   5.007   7.419  0.4943 -1.1325 -2.4429
  753TIP3    H223895   4.849   5.036   7.288  1.1540  1.5900 -1.5281
  754TIP3   OH223896   6.032   6.794   7.868 -0.2624  0.3819  0.2185
  754TIP3    H123897   6.003   6.862   7.808 -0.6477 -0.1950 -0.2594
  754TIP3    H223898   6.036   6.837   7.953 -0.9884  0.8770  0.0083
  755TIP3   OH223899   4.344   0.759   7.165 -0.6099 -0.2887  0.1339
  755TIP3    H123900   4.334   0.678   7.215 -3.8252  0.2376  0.4950
  755TIP3    H223901   4.305   0.740   7.079  2.0232 -0.2298 -1.1133
  756TIP3   OH223902   3.956   1.238   7.125  0.2665  0.0868 -0.3176
  756TIP3    H123903   3.945   1.328   7.155  1.5525  0.2733 -0.3578
  756TIP3    H223904   4.050   1.223   7.132 -0.0976 -1.6954  0.9184
  757TIP3   OH223905   4.189   5.210   7.587 -0.0888 -0.6686  0.2566
  757TIP3    H123906   4.240   5.129   7.594 -0.6373 -1.0863 -0.5304
  757TIP3    H223907   4.238   5.274   7.640 -0.5717 -1.9532  2.3237
  758TIP3   OH223908   4.316   2.558   0.721  0.1368  0.5939  0.5532
  758TIP3    H123909   4.230   2.580   0.758 -1.2134 -1.9427 -0.9571
  758TIP3    H223910   4.327   2.465   0.738  2.1129  0.6674 -0.2050
  759TIP3   OH223911   3.649   0.819   6.491 -0.2993 -0.1751 -0.3105
  759TIP3    H123912   3.729   0.804   6.541  0.4735  0.1781 -1.4307
  759TIP3    H223913   3.655   0.759   6.417 -1.6085 -0.9507  0.1933
  760TIP3   OH223914   4.668   1.418   7.818  0.5518 -0.2051 -0.4030
  760TIP3    H123915   4.674   1.359   7.742  1.3961  1.0047 -1.2827
  760TIP3    H223916   4.687   1.505   7.783  1.7264  0.2618  1.3444
  761TIP3   OH223917   4.370   0.057   8.496 -0.4094  0.0045 -0.0241
  761TIP3    H123918   4.395   0.117   8.426  1.5422  0.3093  0.9003
  761TIP3    H223919   4.307   0.105   8.548 -1.1003  0.1502 -0.9881
  762TIP3   OH223920   4.850   1.099   8.282 -0.4968  0.1689  0.3980
  762TIP3    H123921   4.840   1.177   8.337 -0.2370  2.0101 -2.0767
  762TIP3    H223922   4.761   1.066   8.271 -1.0099  1.8753 -0.9267
  763TIP3   OH223923   2.853   0.142   6.555  0.0900 -0.0485  0.3352
  763TIP3    H123924   2.775   0.108   6.598 -0.6906  0.5256 -0.6279
  763TIP3    H223925   2.872   0.079   6.486 -0.2955  0.5067 -0.2817
  764TIP3   OH223926   5.801   1.712   7.555  0.6508 -0.1967  0.9004
  764TIP3    H123927   5.860   1.638   7.540  0.0359 -0.2557 -1.3918
  764TIP3    H223928   5.732   1.677   7.612  0.4587 -1.3277 -0.0145
  765TIP3   OH223929   4.755   2.259   6.250  0.1596  0.1134  0.2296
  765TIP3    H123930   4.824   2.326   6.246  0.7460 -0.5377 -0.7280
  765TIP3    H223931   4.792   2.189   6.303  0.3327 -0.3371 -0.4770
  766TIP3   OH223932   3.869   1.833   7.308 -0.1429  0.2758 -0.1770
  766TIP3    H123933   3.859   1.765   7.375 -0.5735 -0.4996 -1.0214
  766TIP3    H223934   3.907   1.787   7.233 -1.9230  0.6324 -1.3048
  767TIP3   OH223935   5.350   6.694   7.474 -0.3649  0.0103 -0.8450
  767TIP3    H123936   5.338   6.768   7.533  0.1981  0.3940 -1.2090
  767TIP3    H223937   5.439   6.664   7.490 -0.1816  0.1696 -1.5554
  768TIP3   OH223938   3.902   0.806   7.180 -0.1022 -0.1198  0.4332
  768TIP3    H123939   3.962   0.848   7.118 -2.4834  1.5498 -0.8268
  768TIP3    H223940   3.959   0.754   7.236  2.8558  3.3309  0.8684
  769TIP3   OH223941   5.323   0.083   6.206  0.2321  0.7602 -0.4274
  769TIP3    H123942   5.273   0.065   6.286  0.9893  0.5817  0.0179
  769TIP3    H223943   5.414   0.064   6.230  0.6604  2.1220 -0.8942
  770TIP3   OH223944   2.964   1.738   7.351 -0.2801  0.5492 -0.3498
  770TIP3    H123945   3.013   1.762   7.430 -0.6828 -0.2083  0.1329
  770TIP3    H223946   2.920   1.657   7.374 -1.0827  0.7761 -1.0760
  771TIP3   OH223947   3.058   2.016   6.819 -0.5418 -0.3463  0.0888
  771TIP3    H123948   3.121   1.954   6.857 -0.9405 -1.3278 -0.8378
  771TIP3    H223949   2.990   1.961   6.781 -1.3147  0.6848 -0.0425
  772TIP3   OH223950   5.221   7.230   7.056 -0.6337 -0.0294 -0.1603
  772TIP3    H123951   5.188   7.286   7.126  1.6591 -1.0829  1.8170
  772TIP3    H223952   5.307   7.265   7.035 -0.1157 -1.4387 -0.4762
  773TIP3   OH223953   4.871   0.444   7.727  0.4018 -0.0160  0.2478
  773TIP3    H123954   4.910   0.470   7.643 -0.0283  1.6649  0.5510
  773TIP3    H223955   4.912   0.502   7.791 -0.3054 -0.3422  1.0027
  774TIP3   OH223956   2.816   2.687   6.864 -0.2777  0.4823  0.4778
  774TIP3    H123957   2.766   2.608   6.846 -0.6914  0.0377  3.2614
  774TIP3    H223958   2.888   2.657   6.919  0.3478  1.8258  0.4077
  775TIP3   OH223959   4.692   0.842   7.132 -0.1563 -0.2356 -0.1984
  775TIP3    H123960   4.603   0.841   7.167 -0.5310  1.0643 -1.0582
  775TIP3    H223961   4.696   0.922   7.079  1.2279 -0.7733 -0.9324
  776TIP3   OH223962   6.246   2.939   1.697  0.5760 -0.2233 -0.3547
  776TIP3    H123963   6.165   2.983   1.669  0.8902 -0.2802 -1.3904
  776TIP3    H223964   6.312   3.008   1.697  0.5074 -0.1578  0.5887
  777TIP3   OH223965   5.968   1.414   7.081 -0.6792  0.1170 -0.2591
  777TIP3    H123966   6.055   1.419   7.120 -0.7336  1.0729 -0.2414
  777TIP3    H223967   5.983   1.382   6.992 -0.4046 -0.6194  0.0492
  778TIP3   OH223968   4.954   1.764   1.806 -0.1481 -0.0004 -0.0911
  778TIP3    H123969   4.989   1.704   1.872  0.6631  0.6222  0.0504
  778TIP3    H223970   4.870   1.792   1.840 -0.1752 -0.4549  0.2121
  779TIP3   OH223971   7.125   2.254   6.505 -0.1087 -0.2806 -0.1184
  779TIP3    H123972   7.092   2.167   6.483  0.4478 -0.1695 -1.3903
  779TIP3    H223973   7.212   2.258   6.466 -0.4322  1.1341 -0.7207
  780TIP3   OH223974   4.543   0.175   7.398  0.4760 -0.3531  0.1319
  780TIP3    H123975   4.452   0.146   7.392  0.2079  0.1468  1.5763
  780TIP3    H223976   4.592   0.096   7.420  0.6577 -0.9850 -2.3913
  781TIP3   OH223977   4.823   2.089   6.943 -0.8598 -0.6291 -0.3049
  781TIP3    H123978   4.820   2.161   6.880  0.0071 -0.0051  0.3638
  781TIP3    H223979   4.905   2.044   6.925 -2.0257 -2.3017 -1.6297
  782TIP3   OH223980   5.048   1.581   7.547  0.2537  0.5090 -0.1042
  782TIP3    H123981   5.060   1.540   7.461  0.6782  0.4458 -0.0146
  782TIP3    H223982   5.136   1.587   7.583  0.2572  2.0870 -0.3700
  783TIP3   OH223983   5.464   0.382   7.164 -0.9328  0.1372 -0.1620
  783TIP3    H123984   5.399   0.402   7.096 -0.8504  2.2832  0.3758
  783TIP3    H223985   5.526   0.454   7.161  2.0515 -2.3713 -1.3141
  784TIP3   OH223986   2.762   2.364   0.395 -0.5453 -0.0313 -0.0518
  784TIP3    H123987   2.821   2.379   0.321 -1.7189  0.1475 -0.9572
  784TIP3    H223988   2.798   2.286   0.438  2.2175  1.9293  1.3044
  785TIP3   OH223989   4.357   1.497   6.386 -0.4989  0.4259 -0.3304
  785TIP3    H123990   4.394   1.414   6.355  0.0864  1.3084 -2.0539
  785TIP3    H223991   4.341   1.482   6.480  0.0876 -1.4483 -0.4995
  786TIP3   OH223992   5.004   3.781   6.862 -0.0321 -0.1081 -0.1019
  786TIP3    H123993   5.004   3.699   6.911 -0.0349 -0.5969 -0.9305
  786TIP3    H223994   5.091   3.785   6.823  0.1564  0.5424  0.3625
  787TIP3   OH223995   3.443   1.326   7.314  0.0042  0.5289 -0.2155
  787TIP3    H123996   3.358   1.311   7.356 -0.6125 -0.1842 -1.6704
  787TIP3    H223997   3.423   1.334   7.221  1.5734 -0.0366 -0.6289
  788TIP3   OH223998   4.871   1.165   6.528  0.5283  0.0177  0.1351
  788TIP3    H123999   4.875   1.174   6.432 -0.3579  1.0381  0.1812
  788TIP3    H224000   4.959   1.138   6.554  0.1030 -2.9749 -1.2468
  789TIP3   OH224001   3.986   7.311   7.540 -0.3918 -0.4011  0.0669
  789TIP3    H124002   4.022   7.387   7.495 -0.1590  0.0723  1.0332
  789TIP3    H224003   4.013   7.236   7.486 -1.2613  0.2502 -1.2871
  790TIP3   OH224004   3.799   0.131   6.129  0.1560  0.6243  0.0844
  790TIP3    H124005   3.762   0.142   6.042 -0.2182  1.0204  0.2919
  790TIP3    H224006   3.811   0.036   6.138 -3.6102  0.1662  1.1468
  791TIP3   OH224007   0.117   6.255   6.910  0.3437  0.8918  0.0588
  791TIP3    H124008   0.121   6.314   6.985 -1.9007 -0.2212  1.1197
  791TIP3    H224009   0.091   6.171   6.947 -0.3452  0.2071 -1.9129
  792TIP3   OH224010   3.013   0.593   6.639 -0.2027  0.2003 -0.1396
  792TIP3    H124011   2.964   0.510   6.637  0.3948 -0.1387 -0.8696
  792TIP3    H224012   3.010   0.619   6.731  0.7254 -1.3236  0.3504
  793TIP3   OH224013   4.451   6.759   6.577 -0.1958 -0.5480  0.2284
  793TIP3    H124014   4.515   6.830   6.577 -1.7678  0.9830 -3.1541
  793TIP3    H224015   4.504   6.680   6.568  1.3740  0.4872  0.2119
  794TIP3   OH224016   4.500   1.198   7.068  0.4735 -0.0981  0.6401
  794TIP3    H124017   4.503   1.288   7.098 -0.6119  0.9493 -2.1815
  794TIP3    H224018   4.587   1.162   7.086  1.8847  2.4405 -0.9003
  795TIP3   OH224019   4.331   7.151   6.035  0.1597 -0.1228 -0.3357
  795TIP3    H124020   4.301   7.063   6.013 -0.2131  0.0343 -0.4627
  795TIP3    H224021   4.422   7.140   6.061  0.1797 -0.5119 -0.5757
  796TIP3   OH224022   6.501   6.952   7.074 -0.0236 -0.3848 -0.0972
  796TIP3    H124023   6.562   7.014   7.034  0.2253 -0.1650  0.6216
  796TIP3    H224024   6.547   6.920   7.151 -0.6367 -0.5679  0.1930
  797TIP3   OH224025   5.770   0.563   6.851 -0.0370  0.9005  0.0787
  797TIP3    H124026   5.691   0.595   6.895 -0.6752  2.1713 -1.9209
  797TIP3    H224027   5.783   0.624   6.778  1.8793 -0.2388 -0.5617
  798TIP3   OH224028   4.444   0.321   6.476 -0.8936  0.0106 -0.2827
  798TIP3    H124029   4.539   0.331   6.475 -0.9477  0.5650 -1.7642
  798TIP3    H224030   4.410   0.407   6.452 -1.7172 -0.4987 -1.0033
  799TIP3   OH224031   5.007   2.271   7.867  0.2402  0.0346 -0.0116
  799TIP3    H124032   4.996   2.177   7.877  1.2059 -0.0958 -0.1726
  799TIP3    H224033   5.019   2.304   7.956 -0.2937  0.0342  0.0629
  800TIP3   OH224034   2.303   0.391   8.367  0.2858 -0.2194  0.1630
  800TIP3    H124035   2.313   0.369   8.460 -0.5058  0.8760  0.5321
  800TIP3    H224036   2.212   0.367   8.347  0.0207  0.8288  0.0577
  801TIP3   OH224037   4.838   6.912   7.223  0.5393  0.0382 -0.3084
  801TIP3    H124038   4.845   6.856   7.301 -1.1308 -1.0824 -0.9277
  801TIP3    H224039   4.928   6.930   7.199  1.0878  0.0723  1.6540
  802TIP3   OH224040   3.224   1.594   7.270 -0.4369  0.2084  0.7177
  802TIP3    H124041   3.278   1.672   7.283 -1.5277  0.6972  2.5386
  802TIP3    H224042   3.178   1.610   7.187 -0.5700  1.4741  1.0249
  803TIP3   OH224043   4.907   0.563   0.094 -0.3425 -0.0143  0.3110
  803TIP3    H124044   4.940   0.653   0.096 -0.8853  0.3135 -3.2627
  803TIP3    H224045   4.874   0.548   0.183  0.3538  3.0637  1.1478
  804TIP3   OH224046   5.119   2.111   7.148 -0.0458 -0.5219  0.3707
  804TIP3    H124047   5.150   2.160   7.224  0.7550  0.2181 -0.4117
  804TIP3    H224048   5.089   2.027   7.183  0.9633 -0.4573  1.3978
  805TIP3   OH224049   5.674   1.982   6.082 -0.5789  0.1794  0.2858
  805TIP3    H124050   5.737   1.941   6.141 -1.9156  1.1037  2.4067
  805TIP3    H224051   5.589   1.950   6.111 -1.1741 -0.6875 -2.2625
  806TIP3   OH224052   4.894   1.337   6.851  0.0003  0.2701  0.2812
  806TIP3    H124053   4.812   1.295   6.823  0.5468  0.8095 -2.2913
  806TIP3    H224054   4.955   1.264   6.862 -0.3993 -0.0059  0.7284
  807TIP3   OH224055   4.221   0.047   1.703 -0.2027 -0.2474 -0.0714
  807TIP3    H124056   4.316   0.055   1.688  0.0808 -2.8078 -0.0316
  807TIP3    H224057   4.194  -0.022   1.642 -2.0236  0.3360  0.0548
  808TIP3   OH224058   5.170   0.852   7.837 -0.1060  0.0981  0.3349
  808TIP3    H124059   5.165   0.922   7.901  1.8689  0.3411  0.2777
  808TIP3    H224060   5.121   0.780   7.876 -0.4914  0.8615  1.2758
  809TIP3   OH224061   4.032   6.178   8.348 -0.4060 -0.3999 -0.5333
  809TIP3    H124062   4.004   6.103   8.295 -1.1636 -0.5461  0.0618
  809TIP3    H224063   4.109   6.147   8.395  1.0379  0.1304 -2.4933
  810TIP3   OH224064   3.322   1.675   6.752  0.1604 -0.4069 -0.3740
  810TIP3    H124065   3.408   1.633   6.753  0.3724  0.0292  0.2895
  810TIP3    H224066   3.276   1.636   6.827 -0.1081 -0.4084 -0.5394
  811TIP3   OH224067   3.717   7.056   8.321 -0.3014 -0.2726  0.8066
  811TIP3    H124068   3.749   7.008   8.397 -2.0583 -0.1293  1.6756
  811TIP3    H224069   3.679   6.989   8.264  1.8918 -0.4928 -0.4173
  812TIP3   OH224070   5.207   6.775   6.572  0.1015 -0.6319 -0.5592
  812TIP3    H124071   5.167   6.688   6.576 -1.5019  0.1457  0.3233
  812TIP3    H224072   5.146   6.827   6.521  0.5930  0.2467 -0.2529
  813TIP3   OH224073   6.020   7.089   7.213 -0.3239 -0.2239  0.9031
  813TIP3    H124074   6.102   7.078   7.165 -2.4598 -0.2753 -2.8915
  813TIP3    H224075   6.024   7.179   7.247  0.7265  0.2230 -0.3675
  814TIP3   OH224076   5.571   1.586   6.998 -0.3470  0.3679 -0.4707
  814TIP3    H124077   5.482   1.561   7.021 -0.4517  2.0722  1.1672
  814TIP3    H224078   5.581   1.674   7.036  1.9633  0.2609 -0.7681
  815TIP3   OH224079   6.181   0.854   8.038 -0.3655 -0.3250  0.4442
  815TIP3    H124080   6.210   0.807   7.960  1.5612 -0.6789  1.3473
  815TIP3    H224081   6.226   0.810   8.110 -1.7574  0.3045  1.7179
  816TIP3   OH224082   6.503   6.521   8.005  0.4192 -0.1271 -0.1970
  816TIP3    H124083   6.563   6.455   8.039 -1.2695 -1.1785  0.8323
  816TIP3    H224084   6.558   6.598   7.991  1.8057 -0.6985  1.7771
  817TIP3   OH224085   5.539   0.163   7.825 -0.1466 -0.2302 -0.2861
  817TIP3    H124086   5.446   0.145   7.839 -1.0020  3.5516 -0.3993
  817TIP3    H224087   5.563   0.111   7.749 -1.4470 -3.2871  1.3166
  818TIP3   OH224088   6.234   0.482   7.481 -0.5071 -0.0258 -0.1230
  818TIP3    H124089   6.309   0.453   7.429 -1.5507 -0.5787 -1.3370
  818TIP3    H224090   6.239   0.577   7.480 -1.2470  0.0097 -2.3352
  819TIP3   OH224091   5.485   3.077   6.867  0.6212  0.2254 -0.0077
  819TIP3    H124092   5.389   3.073   6.870  0.4921 -0.7521 -3.7652
  819TIP3    H224093   5.506   3.102   6.778  3.9011  0.8022  0.8577
  820TIP3   OH224094   5.702   2.000   7.847  0.4134 -0.2505  0.3572
  820TIP3    H124095   5.740   2.087   7.854 -0.4480  0.3317 -1.5428
  820TIP3    H224096   5.732   1.967   7.762 -0.3103 -1.2857  0.4833
  821TIP3   OH224097   6.199   1.047   7.135  0.2356  0.0924 -0.2782
  821TIP3    H124098   6.128   1.033   7.197  0.6613 -0.4919  0.0764
  821TIP3    H224099   6.218   0.960   7.100  2.5744 -0.1860  1.5803
  822TIP3   OH224100   4.931   7.012   7.598 -0.1409 -0.9401 -0.2565
  822TIP3    H124101   4.941   6.953   7.523 -2.3252  0.1643 -1.4854
  822TIP3    H224102   4.883   6.961   7.663 -1.5276 -0.7729 -1.1024
  823TIP3   OH224103   5.732   2.117   6.697  0.2325  0.3360  0.8258
  823TIP3    H124104   5.759   2.081   6.613  1.3530  1.5761  0.6461
  823TIP3    H224105   5.669   2.185   6.675  0.2765  0.4358  1.0059
  824TIP3   OH224106   4.454   1.378   6.672  0.5003  0.0160  0.0743
  824TIP3    H124107   4.406   1.302   6.704 -0.0937  0.3564  0.0169
  824TIP3    H224108   4.462   1.435   6.749 -0.8449  0.7926 -0.3375
  825TIP3   OH224109   3.789   1.050   6.409 -0.2936  0.1389 -0.0485
  825TIP3    H124110   3.732   0.985   6.449 -0.1575  0.4286  0.6214
  825TIP3    H224111   3.837   1.002   6.342  0.2190 -0.5722  0.8248
  826TIP3   OH224112   4.045   1.388   6.601  0.4794 -0.0918 -0.2331
  826TIP3    H124113   4.075   1.340   6.679 -0.8440 -1.5703 -0.6255
  826TIP3    H224114   4.087   1.343   6.528 -0.2926 -0.2775 -0.5616
  827TIP3   OH224115   2.218   0.555   0.096  0.4907 -0.3456  0.0851
  827TIP3    H124116   2.282   0.580   0.030 -0.8055 -1.9866 -1.8431
  827TIP3    H224117   2.185   0.639   0.130  0.1959  0.5620 -2.3291
  828TIP3   OH224118   4.369   0.626   0.813  0.3449 -0.1693  0.4506
  828TIP3    H124119   4.317   0.547   0.803  0.2114 -0.1825  1.2529
  828TIP3    H224120   4.305   0.697   0.820  0.4259 -0.1970  1.5380
  829TIP3   OH224121   4.806   1.679   7.265 -0.0492 -0.5295 -0.4123
  829TIP3    H124122   4.810   1.652   7.174  0.5519 -0.9284 -0.2721
  829TIP3    H224123   4.773   1.603   7.312  0.3124 -0.5635 -0.2061
  830TIP3   OH224124   5.711   2.622   0.952  0.1660 -0.5633  0.4799
  830TIP3    H124125   5.639   2.566   0.926  0.0253 -0.5663  0.8780
  830TIP3    H224126   5.778   2.608   0.885 -0.2733 -0.4234  0.0154
  831TIP3   OH224127   3.983   3.300   6.270  0.1509 -0.3242  0.2459
  831TIP3    H124128   4.028   3.219   6.246 -1.6407 -0.9984 -0.9212
  831TIP3    H224129   4.003   3.361   6.199  0.0024 -0.3370  0.1915
  832TIP3   OH224130   5.484   1.597   6.724  0.4931 -0.0355  0.4077
  832TIP3    H124131   5.488   1.519   6.670 -0.5686  0.0134  0.2339
  832TIP3    H224132   5.519   1.571   6.809  2.4980 -0.0197 -0.3965
  833TIP3   OH224133   5.304   5.896   7.932 -0.0089  0.4724  0.2769
  833TIP3    H124134   5.347   5.945   7.861  2.0581  0.7150  1.6584
  833TIP3    H224135   5.303   5.806   7.900  0.4560  0.6542 -0.2773
  834TIP3   OH224136   5.562   1.157   6.276  0.2135 -0.2732  0.2494
  834TIP3    H124137   5.492   1.094   6.297 -0.1885 -0.0138 -0.2791
  834TIP3    H224138   5.517   1.241   6.267  0.7018  0.0291  0.6120
  835TIP3   OH224139   5.903   1.394   6.261 -0.1032  0.0390  0.2288
  835TIP3    H124140   5.957   1.376   6.184  0.4017 -0.0282  0.5950
  835TIP3    H224141   5.816   1.362   6.238 -0.3705  1.5801 -0.9608
  836TIP3   OH224142   6.049   6.854   7.008 -0.3486 -0.4690  0.1006
  836TIP3    H124143   6.033   6.938   6.967  1.0213 -0.4478 -0.3926
  836TIP3    H224144   6.012   6.863   7.096 -1.3202  0.2152 -0.3766
  837TIP3   OH224145   3.820   5.430   7.720 -0.0304 -0.0299  0.5121
  837TIP3    H124146   3.873   5.471   7.651 -1.8713 -0.8031 -1.4151
  837TIP3    H224147   3.854   5.341   7.726 -1.6535 -0.8328 -1.4127
  838TIP3   OH224148   4.370   1.574   0.635  0.1255 -0.2347  0.3419
  838TIP3    H124149   4.451   1.603   0.593  0.2958  0.6874  1.2895
  838TIP3    H224150   4.356   1.486   0.601  0.7140  0.1699 -0.9955
  839TIP3   OH224151   4.639   6.719   6.853 -0.3786 -0.5852  0.5775
  839TIP3    H124152   4.679   6.652   6.909  1.4884  0.8919  1.0346
  839TIP3    H224153   4.707   6.742   6.790 -1.9164 -1.0187 -1.2665
  840TIP3   OH224154   6.176   0.781   7.007 -0.3834 -0.1690  0.1786
  840TIP3    H124155   6.255   0.733   7.030 -0.9745 -1.2249  0.0405
  840TIP3    H224156   6.137   0.731   6.936 -1.6330 -0.1506  0.8325
  841TIP3   OH224157   5.023   1.180   7.252 -0.0261  0.2209  0.3699
  841TIP3    H124158   5.082   1.145   7.186 -1.8308  1.3732 -1.9264
  841TIP3    H224159   5.040   1.275   7.252 -0.5887  0.3286  0.9823
  842TIP3   OH224160   5.428   1.557   7.343  0.2777 -0.1293  0.1134
  842TIP3    H124161   5.374   1.487   7.304  0.0684  1.0861 -1.8294
  842TIP3    H224162   5.512   1.515   7.360 -0.5803 -1.4848  1.2068
  843TIP3   OH224163   4.440   7.196   7.070  0.3534 -0.5656  0.1364
  843TIP3    H124164   4.360   7.217   7.022  0.2236 -0.7215  0.2849
  843TIP3    H224165   4.510   7.213   7.007  0.2953  0.9774  0.4789
  844TIP3   OH224166   4.649   5.562   8.187  0.1148 -0.8456  0.4426
  844TIP3    H124167   4.728   5.558   8.242  0.7158  0.0944 -0.3501
  844TIP3    H224168   4.598   5.634   8.223 -0.3110 -1.3348  0.8376
  845TIP3   OH224169   6.327   6.188   7.182  0.1321 -0.7335  0.2472
  845TIP3    H124170   6.381   6.197   7.104  0.8705 -0.8262  0.7394
  845TIP3    H224171   6.261   6.122   7.159  1.1096 -1.6818  0.1163
  846TIP3   OH224172   2.214   7.109   6.905 -0.3566  0.0951  0.1920
  846TIP3    H124173   2.119   7.117   6.900 -0.3153  1.0708  0.8442
  846TIP3    H224174   2.234   7.120   6.998  0.4504  0.4782 -0.0302
  847TIP3   OH224175   4.354   7.225   7.365  0.4068 -0.9103 -0.0014
  847TIP3    H124176   4.385   7.220   7.275 -0.0728 -1.3756 -0.1385
  847TIP3    H224177   4.422   7.275   7.411  0.8925 -1.1008 -0.5104
  848TIP3   OH224178   0.849   7.163   5.880  0.0548 -0.6748  0.3083
  848TIP3    H124179   0.832   7.071   5.898 -2.1610 -0.6799 -1.5605
  848TIP3    H224180   0.799   7.210   5.947 -0.9754 -0.8199 -0.3409
  849TIP3   OH224181   1.591   0.082   7.182  0.1799 -0.3241 -0.0320
  849TIP3    H124182   1.501   0.104   7.205 -0.3886 -1.6409 -0.9374
  849TIP3    H224183   1.640   0.163   7.196 -1.4299  0.8409 -1.0139
  850TIP3   OH224184   3.297   0.766   6.834 -0.0524 -0.0891 -0.8735
  850TIP3    H124185   3.299   0.773   6.739 -0.2462  1.0580 -0.7952
  850TIP3    H224186   3.206   0.781   6.858 -0.6852 -3.7235 -0.7406
  851TIP3   OH224187   4.313   5.888   0.967  0.1611 -0.4718  1.1272
  851TIP3    H124188   4.251   5.909   0.897  2.4776 -1.8406 -1.4210
  851TIP3    H224189   4.311   5.793   0.974  1.6206 -0.5110  1.2906
  852TIP3   OH224190   4.865   1.585   7.018  0.2800 -0.3147  0.0689
  852TIP3    H124191   4.853   1.497   6.982  3.1421 -1.7460  2.4180
  852TIP3    H224192   4.939   1.620   6.969 -0.6603  0.6767 -0.6487
  853TIP3   OH224193   5.724   0.667   7.162 -0.2671 -0.5879 -0.4003
  853TIP3    H124194   5.780   0.737   7.128 -0.2459 -1.0818 -1.4003
  853TIP3    H224195   5.635   0.702   7.154 -0.2253 -0.5037 -0.5010
  854TIP3   OH224196   3.599   0.530   8.120 -0.6523 -0.2331  0.0048
  854TIP3    H124197   3.555   0.450   8.147 -0.5365 -0.0261  0.8242
  854TIP3    H224198   3.646   0.559   8.198  0.1176  0.0938 -0.5734
  855TIP3   OH224199   5.488   1.210   0.442 -0.4147  0.2373 -0.5945
  855TIP3    H124200   5.431   1.252   0.506 -1.1841 -0.8636 -0.5610
  855TIP3    H224201   5.472   1.259   0.360 -0.8731  0.3807 -0.4200
  856TIP3   OH224202   6.512   6.932   6.634  0.1727 -0.0738  0.2434
  856TIP3    H124203   6.431   6.882   6.626  0.1390  0.2548 -1.6683
  856TIP3    H224204   6.484   7.023   6.629  0.7233  0.0278 -1.1557
  857TIP3   OH224205   3.742   1.061   8.232 -0.0040  0.5737 -0.1880
  857TIP3    H124206   3.799   1.104   8.296  1.1067  1.0275 -1.4740
  857TIP3    H224207   3.727   1.127   8.165 -2.7575  0.7482  0.5391
  858TIP3   OH224208   5.044   1.603   6.654 -0.4854 -0.6061 -0.8004
  858TIP3    H124209   4.949   1.599   6.640 -0.2528 -1.7529 -2.2010
  858TIP3    H224210   5.080   1.616   6.567  0.6071  0.7962 -0.1415
  859TIP3   OH224211   6.473   1.681   6.764  0.4858 -0.1313  0.3956
  859TIP3    H124212   6.476   1.775   6.746 -2.8310 -0.0229  0.1713
  859TIP3    H224213   6.451   1.675   6.857 -1.5438 -0.6353 -0.0883
  860TIP3   OH224214   4.495   0.776   7.983  0.0358  0.4517 -0.8966
  860TIP3    H124215   4.521   0.820   8.065  0.2961  0.5353 -1.0204
  860TIP3    H224216   4.577   0.767   7.935 -0.2084  0.9712 -1.4214
  861TIP3   OH224217   4.799   7.286   7.877  0.2228 -0.0317 -0.2506
  861TIP3    H124218   4.816   7.209   7.932  1.6639 -0.9903 -1.9358
  861TIP3    H224219   4.842   7.264   7.793  0.1422  2.3646 -0.9474
  862TIP3   OH224220   3.997   1.909   0.095 -0.7989  0.1511  0.0940
  862TIP3    H124221   3.994   2.003   0.113  0.0464  0.2229 -0.1442
  862TIP3    H224222   3.979   1.902   0.001 -0.3021  0.1112  0.0029
  863TIP3   OH224223   3.498   2.566   7.070  0.2862 -0.0213 -0.4091
  863TIP3    H124224   3.417   2.584   7.022  1.2828  2.7571 -1.1839
  863TIP3    H224225   3.481   2.599   7.158  0.3253 -0.0552 -0.3892
  864TIP3   OH224226   4.272   0.705   7.467 -0.0830  0.6355 -0.5661
  864TIP3    H124227   4.253   0.794   7.436 -1.3377 -0.0956 -1.9362
  864TIP3    H224228   4.330   0.669   7.399  1.7251  0.9230  0.7784
  865TIP3   OH224229   4.200   6.355   6.779  0.2346 -0.0330 -0.3173
  865TIP3    H124230   4.121   6.335   6.828  0.0810 -1.8862 -1.2696
  865TIP3    H224231   4.173   6.352   6.687  0.9037  1.6886 -0.6024
  866TIP3   OH224232   7.159   7.244   7.121  0.4764  0.3347  0.2484
  866TIP3    H124233   7.214   7.321   7.106  1.0677  0.1902  1.5741
  866TIP3    H224234   7.105   7.237   7.043  0.9166  1.6869 -0.1879
  867TIP3   OH224235   7.102   7.197   8.255 -0.0414  0.1392 -0.5939
  867TIP3    H124236   7.087   7.110   8.291 -0.1165 -0.4362 -1.9692
  867TIP3    H224237   7.059   7.195   8.169  0.3674  1.3714 -0.8415
  868TIP3   OH224238   4.342   7.167   6.331 -0.4457 -0.0727 -0.1379
  868TIP3    H124239   4.373   7.221   6.403  1.2343  0.8495 -1.4997
  868TIP3    H224240   4.250   7.149   6.351  0.3039 -0.9067  2.8609
  869TIP3   OH224241   3.615   0.297   6.305  0.1564 -0.1844 -0.2412
  869TIP3    H124242   3.701   0.338   6.293 -1.6438  3.2023 -2.5654
  869TIP3    H224243   3.611   0.229   6.238  1.2112 -0.7262  0.2350
  870TIP3   OH224244   4.041   7.119   6.896  0.2029 -0.3120  0.3169
  870TIP3    H124245   4.002   7.107   6.982 -0.0903 -0.3416  0.1788
  870TIP3    H224246   4.078   7.033   6.874 -0.8675 -0.6553 -0.1612
  871TIP3   OH224247   4.844   6.842   6.715  0.4937 -0.0548 -0.0987
  871TIP3    H124248   4.930   6.869   6.746 -0.0151 -0.2662  1.5326
  871TIP3    H224249   4.795   6.924   6.707  0.9033  0.0905 -1.2642
  872TIP3   OH224250   6.153   7.173   7.472 -0.1474 -0.1270 -0.3753
  872TIP3    H124251   6.118   7.228   7.401 -1.8849  0.6515  1.0341
  872TIP3    H224252   6.187   7.235   7.536 -0.5781 -0.7339  0.4559
  873TIP3   OH224253   2.840   2.024   7.782 -0.2984 -0.0970 -0.2420
  873TIP3    H124254   2.883   1.942   7.759  0.9199  0.0642  1.3697
  873TIP3    H224255   2.805   2.009   7.870 -2.3997  0.2281 -0.9980
  874TIP3   OH224256   7.008   0.507   7.260  0.3011 -0.4792  0.0519
  874TIP3    H124257   7.101   0.513   7.283  0.3357 -0.4950 -0.0845
  874TIP3    H224258   7.005   0.448   7.185  0.2855  0.2796 -0.5498
  875TIP3   OH224259   5.967   2.294   6.708 -0.2217  0.3693  0.2643
  875TIP3    H124260   5.961   2.199   6.718  1.2766 -0.0144 -2.0898
  875TIP3    H224261   6.060   2.314   6.715 -0.5756  1.7546  1.2810
  876TIP3   OH224262   3.580   6.070   7.816 -0.4197 -1.0771  0.7236
  876TIP3    H124263   3.563   6.096   7.726  0.6987 -0.5163  0.6655
  876TIP3    H224264   3.527   6.129   7.869  1.2319  0.6296  0.5470
  877TIP3   OH224265   5.862   7.153   1.251  0.2637 -0.4329  0.5280
  877TIP3    H124266   5.853   7.108   1.335  1.0043 -0.4197  0.6177
  877TIP3    H224267   5.956   7.154   1.234  0.2126  0.5807  0.2515
  878TIP3   OH224268   6.026   6.505   7.422  0.1002 -0.6321  0.0071
  878TIP3    H124269   6.117   6.482   7.401  1.4359  3.3854  0.7616
  878TIP3    H224270   6.011   6.464   7.507  1.3609 -1.1210  0.0108
  879TIP3   OH224271   4.609   1.063   0.917 -0.4735 -0.3830 -0.6746
  879TIP3    H124272   4.598   1.143   0.865  0.4511  0.0964 -0.1485
  879TIP3    H224273   4.545   1.002   0.881 -1.4810  0.7386 -0.8096
  880TIP3   OH224274   6.337   1.271   6.025 -0.5088  0.2359 -0.4120
  880TIP3    H124275   6.348   1.268   5.929 -1.6800  0.9510 -0.5762
  880TIP3    H224276   6.407   1.329   6.055  0.3269 -0.5703 -0.7464
  881TIP3   OH224277   6.787   5.446   7.679 -0.0500 -0.3466  0.4123
  881TIP3    H124278   6.777   5.540   7.660 -0.5604 -0.6353 -0.8166
  881TIP3    H224279   6.760   5.403   7.598 -1.4891 -1.6297  1.5435
  882TIP3   OH224280   5.506   3.011   7.924  0.2852  0.5276 -0.4456
  882TIP3    H124281   5.483   2.933   7.874 -2.0724  1.8735 -1.5450
  882TIP3    H224282   5.522   3.078   7.858  0.5491  1.4378  0.5233
  883TIP3   OH224283   6.742   0.476   7.636  0.2219 -0.3145 -0.0952
  883TIP3    H124284   6.769   0.442   7.550  0.5898 -0.6078  0.1345
  883TIP3    H224285   6.769   0.568   7.634  3.2092 -1.0930  0.9227
  884TIP3   OH224286   6.527   0.140   1.108  0.2854 -0.2256 -0.3225
  884TIP3    H124287   6.511   0.081   1.034  0.5662 -1.0201  0.2460
  884TIP3    H224288   6.441   0.150   1.149  0.2023 -0.0873 -0.5290
  885TIP3   OH224289   6.829   7.325   7.990  0.7162 -0.2336  0.0870
  885TIP3    H124290   6.734   7.339   7.986  0.6167 -0.7414  0.5382
  885TIP3    H224291   6.864   7.408   8.023  0.4817  0.1304 -0.5730
  886TIP3   OH224292   5.698   0.471   0.193 -0.0221 -0.2779 -0.2079
  886TIP3    H124293   5.724   0.545   0.139  0.2471 -1.1166 -1.2276
  886TIP3    H224294   5.648   0.414   0.135  1.9955 -2.1770 -0.1244
  887TIP3   OH224295   6.173   1.122   6.824 -0.0074  0.5224 -0.0139
  887TIP3    H124296   6.145   1.131   6.915  0.9168  1.9611  0.1347
  887TIP3    H224297   6.263   1.090   6.829 -0.2005 -0.1140 -0.4443
  888TIP3   OH224298   7.294   0.837   6.787 -0.0480  0.1084  0.3914
  888TIP3    H124299   7.225   0.862   6.849 -0.5923 -1.8724  0.6221
  888TIP3    H224300   7.353   0.783   6.839  0.6552  0.2340 -0.2851
  889TIP3   OH224301   6.512   0.276   7.764  0.7172  0.0971 -0.5399
  889TIP3    H124302   6.490   0.252   7.853  3.0536  0.2456  0.1024
  889TIP3    H224303   6.486   0.368   7.757  2.9708  0.9013  0.8896
  890TIP3   OH224304   5.998   0.517   5.863  0.5262  0.3423  0.7057
  890TIP3    H124305   5.965   0.602   5.892 -1.3891 -0.1928  0.2179
  890TIP3    H224306   5.993   0.521   5.767  1.3761  0.0518  0.6516
  891TIP3   OH224307   0.934   6.154   6.635  0.3385 -0.5927 -0.1238
  891TIP3    H124308   0.955   6.128   6.725 -0.8253 -0.8761  0.0759
  891TIP3    H224309   0.884   6.235   6.644 -0.2874 -0.9304 -0.4699
  892TIP3   OH224310   6.805   1.951   6.602  0.0063  0.0737  0.4839
  892TIP3    H124311   6.878   2.012   6.588 -0.2065  0.0375 -0.8561
  892TIP3    H224312   6.727   2.005   6.591 -0.1781 -0.2375  0.2670
  893TIP3   OH224313   0.105   0.258   7.523 -0.4632 -0.0926  0.3918
  893TIP3    H124314   0.077   0.250   7.614 -2.0636  1.0307  0.0346
  893TIP3    H224315   0.080   0.176   7.482  0.6244 -0.7608  1.0395
  894TIP3   OH224316   6.684   6.300   8.049  0.2751 -0.4996 -0.5487
  894TIP3    H124317   6.743   6.336   8.115 -0.0348 -0.2146 -0.4265
  894TIP3    H224318   6.652   6.219   8.087 -0.7640  0.2163  0.1244
  895TIP3   OH224319   6.244   1.457   6.906  0.1480 -0.1614 -0.1979
  895TIP3    H124320   6.304   1.531   6.901 -0.4402  0.4109  1.0317
  895TIP3    H224321   6.278   1.403   6.976 -0.8681  0.2671  0.6410
  896TIP3   OH224322   5.278   7.257   8.087 -0.3733 -0.2153 -0.1072
  896TIP3    H124323   5.247   7.166   8.082 -1.2285  0.1096 -0.9599
  896TIP3    H224324   5.272   7.289   7.997 -1.1880  1.0410  0.3848
  897TIP3   OH224325   0.731   6.646   6.650 -0.2583 -0.3208  0.1595
  897TIP3    H124326   0.684   6.619   6.570 -1.2408 -1.9196  1.2398
  897TIP3    H224327   0.665   6.640   6.719  0.8914 -0.1367  1.2887
  898TIP3   OH224328   6.093   1.045   6.416 -0.0001 -0.1411  0.5479
  898TIP3    H124329   6.150   1.104   6.366  0.1870 -0.3905  0.4640
  898TIP3    H224330   6.047   0.994   6.349 -0.9018  0.5942  0.5948
  899TIP3   OH224331   5.209   1.154   7.746  0.1286  0.3723 -0.1336
  899TIP3    H124332   5.113   1.151   7.750  0.1781 -0.7017  0.5061
  899TIP3    H224333   5.234   1.227   7.802 -0.2942  0.2792  0.1748
  900TIP3   OH224334   4.460   2.692   6.537  0.8332  0.2968  0.5577
  900TIP3    H124335   4.495   2.777   6.564  1.5091 -0.0963  0.9287
  900TIP3    H224336   4.393   2.671   6.602  1.8021 -0.2093  1.4002
  901TIP3   OH224337   6.643   5.507   6.649 -0.0924 -0.7557 -0.4618
  901TIP3    H124338   6.651   5.413   6.669  0.1313  0.0302  3.7385
  901TIP3    H224339   6.571   5.512   6.586  0.0063 -3.7781 -0.8896
  902TIP3   OH224340   7.201   0.948   6.563  0.1304  0.0752  0.2722
  902TIP3    H124341   7.218   0.894   6.640  0.9810  1.5430  1.1331
  902TIP3    H224342   7.267   0.921   6.499 -0.7241 -1.3092 -0.0545
  903TIP3   OH224343   1.632   6.017   8.175  0.0440 -0.1738 -0.3347
  903TIP3    H124344   1.635   6.020   8.079  1.4103  0.7549 -0.2811
  903TIP3    H224345   1.684   5.941   8.198 -2.4597 -1.9639 -0.3934
  904TIP3   OH224346   7.287   3.112   6.243 -0.9165 -0.4409 -0.1371
  904TIP3    H124347   7.236   3.114   6.324 -1.4223 -1.4479 -0.4255
  904TIP3    H224348   7.367   3.159   6.264 -0.9281 -0.9292  1.0387
  905TIP3   OH224349   0.904   1.402   6.617 -0.4227 -0.2296  0.1388
  905TIP3    H124350   0.857   1.352   6.684 -1.2878  2.4645  1.6732
  905TIP3    H224351   0.979   1.440   6.664  0.1268  0.0386 -0.9336
  906TIP3   OH224352   4.306   2.678   8.367 -0.0986  0.5333  0.2902
  906TIP3    H124353   4.384   2.717   8.327  0.0633 -0.6670 -0.6232
  906TIP3    H224354   4.341   2.612   8.427 -0.3971  0.6808  0.6300
  907TIP3   OH224355   6.175   0.602   6.473  0.7025 -0.2318  0.1602
  907TIP3    H124356   6.109   0.640   6.415 -0.5123 -1.0417  0.9768
  907TIP3    H224357   6.169   0.508   6.457 -0.7814 -0.6357  2.7057
  908TIP3   OH224358   6.440   1.382   7.332 -0.1025 -0.0833 -0.0526
  908TIP3    H124359   6.396   1.329   7.265 -1.0783  1.1191 -0.3918
  908TIP3    H224360   6.492   1.445   7.282 -1.0340  0.9819  0.2936
  909TIP3   OH224361   0.268   0.398   6.920 -0.3106  0.2151  0.2949
  909TIP3    H124362   0.253   0.304   6.931  1.9206 -0.1742  0.2099
  909TIP3    H224363   0.311   0.406   6.835  2.0558  0.9937  1.5209
  910TIP3   OH224364   6.450   0.963   6.390  0.3275  0.3730  0.3118
  910TIP3    H124365   6.413   0.916   6.465  0.3898  1.2721  0.9074
  910TIP3    H224366   6.531   1.002   6.423 -1.1466  3.2977  0.6423
  911TIP3   OH224367   0.830   7.009   6.675 -0.1115 -0.6537 -0.1158
  911TIP3    H124368   0.876   6.938   6.631  1.6670  0.7879 -0.6166
  911TIP3    H224369   0.761   7.035   6.613  0.0287 -1.0945 -0.4588
  912TIP3   OH224370   5.858   1.106   7.389  0.2465  0.1044  0.3096
  912TIP3    H124371   5.928   1.073   7.332 -0.6567 -0.5463 -0.4445
  912TIP3    H224372   5.904   1.138   7.467  1.3524 -0.7278  0.0229
  913TIP3   OH224373   5.667   3.487   7.617 -0.5269 -0.0915 -0.1387
  913TIP3    H124374   5.588   3.537   7.599 -0.9231 -0.0978  1.5391
  913TIP3    H224375   5.637   3.410   7.665  0.2517 -1.1822 -1.3860
  914TIP3   OH224376   4.883   7.124   0.431  0.0212  0.3649  0.1560
  914TIP3    H124377   4.894   7.169   0.348  0.8820 -2.6105 -1.3968
  914TIP3    H224378   4.948   7.163   0.489  1.5560  0.3232 -1.5126
  915TIP3   OH224379   6.550   0.024   7.201 -0.6719  0.0047  0.0194
  915TIP3    H124380   6.538  -0.047   7.138  1.9221  0.0064 -0.5143
  915TIP3    H224381   6.527  -0.016   7.285 -0.8190 -0.9875 -0.4792
  916TIP3   OH224382   5.723   6.819   7.945 -0.5764 -0.3646  0.0449
  916TIP3    H124383   5.705   6.759   8.018  0.7771 -1.0166 -0.1347
  916TIP3    H224384   5.732   6.761   7.869  0.1660  0.1126 -0.2374
  917TIP3   OH224385   5.375   2.998   7.490  0.0729 -0.1542 -0.2717
  917TIP3    H124386   5.465   2.967   7.488 -0.2007 -0.8996 -1.2463
  917TIP3    H224387   5.356   3.022   7.399 -0.3166  1.1427  0.1406
  918TIP3   OH224388   5.465   0.833   6.363  0.3627  0.4797  0.5039
  918TIP3    H124389   5.554   0.848   6.331 -0.1286  0.5830 -0.8590
  918TIP3    H224390   5.423   0.919   6.355 -0.1473  0.1983  0.1991
  919TIP3   OH224391   5.906   1.167   6.594 -0.0911 -0.0063  0.6291
  919TIP3    H124392   5.956   1.121   6.526 -0.9165  0.8006 -0.5338
  919TIP3    H224393   5.817   1.134   6.583 -0.3215  0.5072  0.9902
  920TIP3   OH224394   6.673   1.395   6.434 -0.2332  0.0192  0.1398
  920TIP3    H124395   6.751   1.370   6.385  0.2989  0.5961  0.6857
  920TIP3    H224396   6.707   1.431   6.516 -1.1191 -1.3322  1.1195
  921TIP3   OH224397   3.767   1.470   0.522 -0.4691 -0.2649 -0.1488
  921TIP3    H124398   3.716   1.548   0.543 -1.9193 -1.0443 -0.7422
  921TIP3    H224399   3.756   1.459   0.428  0.4602 -0.6755 -0.2144
  922TIP3   OH224400   3.350   6.830   1.022  0.0234 -0.0405 -0.1669
  922TIP3    H124401   3.361   6.786   0.938 -0.3844 -1.1977  0.3731
  922TIP3    H224402   3.347   6.923   1.000  0.4408 -0.3017 -1.3749
  923TIP3   OH224403   7.061   2.023   6.397  0.3503  0.4586 -0.3040
  923TIP3    H124404   7.016   2.018   6.313 -0.8268 -2.1885  0.4172
  923TIP3    H224405   7.101   1.937   6.409 -0.3014  0.4460  2.2304
  924TIP3   OH224406   4.734   2.032   6.609  0.1026 -0.4252 -0.0892
  924TIP3    H124407   4.775   1.976   6.675 -2.0409 -2.6229 -0.5838
  924TIP3    H224408   4.730   1.978   6.531 -0.1082  1.1613 -1.1877
  925TIP3   OH224409   0.043   1.969   6.467  0.0421 -0.0354  0.1058
  925TIP3    H124410   0.036   2.054   6.510 -2.9435 -0.3205  0.2752
  925TIP3    H224411   0.018   1.986   6.376 -0.5177 -0.6989  0.1285
  926TIP3   OH224412   6.705   7.176   6.987  0.1116  0.0075  0.0882
  926TIP3    H124413   6.773   7.170   7.055  1.8415 -0.4020 -1.6472
  926TIP3    H224414   6.736   7.120   6.917 -0.8674  1.6743 -1.7265
  927TIP3   OH224415   6.562   1.886   6.989  0.1860  0.0520  0.1420
  927TIP3    H124416   6.644   1.838   6.976 -0.2491 -0.5029 -0.5542
  927TIP3    H224417   6.575   1.968   6.943  0.7025  0.3680  0.8271
  928TIP3   OH224418   0.161   6.506   0.740  0.4711  1.3789  0.3721
  928TIP3    H124419   0.216   6.581   0.763  0.6725  1.9247 -1.8130
  928TIP3    H224420   0.190   6.480   0.653 -0.3256 -0.5839  0.6722
  929TIP3   OH224421   6.537   6.862   6.056 -0.4169 -0.0325 -0.0269
  929TIP3    H124422   6.623   6.837   6.091  0.3800  1.0330 -1.1523
  929TIP3    H224423   6.538   6.828   5.966 -1.3127 -0.2906  0.0593
  930TIP3   OH224424   1.140   0.406   7.069 -0.1402 -0.4025  0.1202
  930TIP3    H124425   1.209   0.421   7.134 -1.7010 -0.6033  1.8650
  930TIP3    H224426   1.091   0.331   7.103 -1.6923  0.2332 -0.6918
  931TIP3   OH224427   6.623   6.890   7.335 -0.6755 -0.0407  0.3773
  931TIP3    H124428   6.650   6.866   7.424  1.1765 -0.9642 -0.3883
  931TIP3    H224429   6.533   6.920   7.344 -0.3328  0.4129  2.6538
  932TIP3   OH224430   5.672   0.238   6.530  0.2263  0.5429  0.0658
  932TIP3    H124431   5.733   0.194   6.471  1.2672 -1.3766  2.4622
  932TIP3    H224432   5.712   0.323   6.548  0.0180  1.0382 -1.7578
  933TIP3   OH224433   1.802   1.644   6.980 -0.1646  0.0642 -0.4403
  933TIP3    H124434   1.719   1.605   6.953 -1.0805  1.6159  0.0974
  933TIP3    H224435   1.846   1.666   6.898 -0.5134 -0.2788 -0.7217
  934TIP3   OH224436   5.464   7.099   7.850 -0.1555 -0.1347 -0.3763
  934TIP3    H124437   5.474   7.171   7.788 -1.6110 -0.1550 -0.6455
  934TIP3    H224438   5.553   7.067   7.864  0.4375  1.3503 -0.6857
  935TIP3   OH224439   6.384   0.463   8.211  0.6910 -0.0515  0.0433
  935TIP3    H124440   6.318   0.530   8.194 -0.1408 -0.5910  1.0497
  935TIP3    H224441   6.468   0.505   8.191 -0.0264  0.3040 -2.2738
  936TIP3   OH224442   4.568   0.636   0.070  0.7601 -0.4907  0.6923
  936TIP3    H124443   4.658   0.659   0.045  0.5713 -0.7949 -0.2622
  936TIP3    H224444   4.565   0.541   0.061  0.4166 -0.5037  0.9753
  937TIP3   OH224445   0.461   6.372   0.152 -0.3660 -0.3545  0.3790
  937TIP3    H124446   0.434   6.291   0.109 -1.1670  0.6084 -0.9896
  937TIP3    H224447   0.554   6.379   0.134 -0.7918  0.2981 -1.6817
  938TIP3   OH224448   5.567   7.320   6.271 -0.0594  0.0655 -0.3794
  938TIP3    H124449   5.631   7.390   6.279 -0.0106 -0.0188 -0.0461
  938TIP3    H224450   5.617   7.244   6.242  0.1963 -0.3156  1.0174
  939TIP3   OH224451   6.522   1.424   6.207 -1.1404  0.5062 -0.4075
  939TIP3    H124452   6.458   1.480   6.251 -1.2931 -0.5195  0.7131
  939TIP3    H224453   6.573   1.386   6.279 -0.4076 -0.0248 -1.2063
  940TIP3   OH224454   5.201   0.395   7.025 -0.1370 -0.6107 -0.0824
  940TIP3    H124455   5.191   0.300   7.022  3.5750 -1.0179 -2.0667
  940TIP3    H224456   5.209   0.422   6.933 -0.7355  1.6163  0.4744
  941TIP3   OH224457   4.765   0.323   6.676 -0.4954 -0.7051  0.3251
  941TIP3    H124458   4.768   0.324   6.771  0.9711  1.4302  0.3077
  941TIP3    H224459   4.707   0.396   6.654  0.3851 -0.2118 -0.4115
  942TIP3   OH224460   0.725   0.672   6.981  0.5481 -0.0163  0.2180
  942TIP3    H124461   0.659   0.603   6.981 -0.3316  0.8224  0.1250
  942TIP3    H224462   0.707   0.723   7.059  2.1210 -0.7540  1.0880
  943TIP3   OH224463   0.401   6.520   8.361  0.1776  0.2317  0.4559
  943TIP3    H124464   0.394   6.615   8.374  0.4812  0.1315  1.3855
  943TIP3    H224465   0.488   6.498   8.394 -0.2311 -0.5049  1.0526
  944TIP3   OH224466   5.988   5.179   0.545 -0.4780 -0.4255 -0.2194
  944TIP3    H124467   6.075   5.217   0.541 -0.1309 -1.3049 -1.6965
  944TIP3    H224468   6.003   5.084   0.546 -1.4104 -0.6096 -1.3664
  945TIP3   OH224469   5.973   2.267   7.058  0.4080  0.4054  0.0043
  945TIP3    H124470   5.899   2.226   7.012  2.0390  0.4640 -2.8203
  945TIP3    H224471   5.947   2.359   7.067 -0.4400  0.1440  0.2831
  946TIP3   OH224472   6.964   0.910   7.376  0.4619  0.2434 -0.1226
  946TIP3    H124473   7.005   0.994   7.359 -0.9829  0.8497 -0.6885
  946TIP3    H224474   6.928   0.884   7.291 -2.2602  0.7949  0.8194
  947TIP3   OH224475   6.234   0.556   6.096  0.1346 -0.1026  0.0476
  947TIP3    H124476   6.316   0.507   6.105 -0.4635 -0.8630  1.4147
  947TIP3    H224477   6.250   0.638   6.142  0.3104 -0.0265 -0.1489
  948TIP3   OH224478   6.843   7.096   0.688 -0.1789  0.5485  0.9743
  948TIP3    H124479   6.895   7.019   0.710  0.5263  1.5711  3.0545
  948TIP3    H224480   6.900   7.148   0.631 -1.1372 -1.0290 -1.4904
  949TIP3   OH224481   0.323   1.129   6.475  0.7300 -0.2083 -0.4605
  949TIP3    H124482   0.389   1.161   6.414  0.0792  1.1245 -0.4807
  949TIP3    H224483   0.319   1.034   6.459  2.0962 -0.1894 -0.9640
  950TIP3   OH224484   0.590   0.367   6.426  0.4391  0.1647 -0.0621
  950TIP3    H124485   0.630   0.296   6.375  0.7211  1.3957 -1.6102
  950TIP3    H224486   0.496   0.357   6.411  0.3444 -1.0101  1.2593
  951TIP3   OH224487   5.930   0.859   7.056 -0.1455  0.4349  0.5998
  951TIP3    H124488   5.900   0.843   6.966 -2.5205 -0.8196  1.5658
  951TIP3    H224489   6.022   0.834   7.055 -0.0599  0.7392 -1.5748
  952TIP3   OH224490   7.294   0.323   5.924 -0.2125  0.4930 -0.0504
  952TIP3    H124491   7.349   0.256   5.885 -0.2103  0.0731  0.6581
  952TIP3    H224492   7.310   0.315   6.018 -1.0280  0.7656  0.1137
  953TIP3   OH224493   6.063   0.696   6.777  0.4162  0.1613 -0.0110
  953TIP3    H124494   6.005   0.651   6.716  2.2318  0.0944 -1.7142
  953TIP3    H224495   6.072   0.784   6.740  0.9601  0.3384  0.5483
  954TIP3   OH224496   5.877   0.460   7.568 -0.5934  0.1405 -0.1936
  954TIP3    H124497   5.816   0.519   7.524 -1.2027 -0.7829 -0.6220
  954TIP3    H224498   5.820   0.396   7.612  0.0132  0.7100  1.4745
  955TIP3   OH224499   5.940   6.688   1.391  0.7534 -0.7055 -0.6685
  955TIP3    H124500   5.890   6.669   1.471  1.6516  0.7104  0.2603
  955TIP3    H224501   6.021   6.638   1.401  0.2891 -1.5985 -1.3405
  956TIP3   OH224502   5.679   1.327   7.205 -0.0764 -0.3851  0.1328
  956TIP3    H124503   5.636   1.356   7.286  0.3388 -0.5012  0.3964
  956TIP3    H224504   5.753   1.274   7.235  1.2648  1.2018 -0.2920
  957TIP3   OH224505   6.629   3.664   7.184  0.5928  0.1141 -0.5174
  957TIP3    H124506   6.555   3.607   7.202  2.4437 -1.9224  0.8285
  957TIP3    H224507   6.659   3.638   7.097 -0.3667  1.0988 -1.1636
  958TIP3   OH224508   3.828   0.749   1.396  0.1887 -0.1254  0.2761
  958TIP3    H124509   3.866   0.661   1.389  2.2373  0.7059  0.7190
  958TIP3    H224510   3.837   0.786   1.308  1.3772  0.4575  0.6389
  959TIP3   OH224511   5.494   0.673   6.975 -1.1278  0.1109 -0.1762
  959TIP3    H124512   5.439   0.621   6.916 -0.4480  1.3548 -1.9467
  959TIP3    H224513   5.438   0.744   7.005 -1.1088  0.2053 -0.3595
  960TIP3   OH224514   4.342   0.219   7.078 -0.2285  0.2506 -0.2121
  960TIP3    H124515   4.331   0.173   7.161  1.5704  0.9591  0.4438
  960TIP3    H224516   4.344   0.150   7.012  0.2690 -0.4508  0.5292
  961TIP3   OH224517   4.883   2.744   8.263 -0.2868 -0.5893 -0.3755
  961TIP3    H124518   4.827   2.692   8.205 -1.1339  0.0667 -0.1480
  961TIP3    H224519   4.890   2.829   8.219  1.3055 -0.9581 -0.8795
  962TIP3   OH224520   6.503   0.791   2.336 -0.2633 -0.0503 -0.8164
  962TIP3    H124521   6.543   0.719   2.287  0.1028 -0.6481  0.3552
  962TIP3    H224522   6.414   0.760   2.355  0.2375 -0.6292  0.5988
  963TIP3   OH224523   6.644   0.662   6.549 -0.1155  0.0777  0.3561
  963TIP3    H124524   6.569   0.611   6.579 -1.0279  0.6514 -0.8710
  963TIP3    H224525   6.697   0.600   6.499  0.9289 -0.6471  2.3295
  964TIP3   OH224526   0.887   7.310   1.557  0.6564 -0.0822  0.0202
  964TIP3    H124527   0.880   7.214   1.559  2.2558 -0.1906  1.1154
  964TIP3    H224528   0.804   7.341   1.594 -0.8220 -0.9867 -2.4604
  965TIP3   OH224529   5.796   6.392   7.316  0.0870  0.2453  0.8958
  965TIP3    H124530   5.858   6.435   7.375  1.2851 -0.8903  0.4780
  965TIP3    H224531   5.815   6.299   7.324 -0.6694 -0.0273 -0.2576
  966TIP3   OH224532   3.680   7.258   8.150  0.3015 -0.0282  0.2556
  966TIP3    H124533   3.763   7.260   8.103  0.9001  0.6885  1.3076
  966TIP3    H224534   3.693   7.190   8.216 -0.5788 -1.1229 -0.6903
  967TIP3   OH224535   6.509   2.393   6.786  0.4900  0.0846  0.2125
  967TIP3    H124536   6.461   2.414   6.705 -0.5965 -2.2554  0.2206
  967TIP3    H224537   6.576   2.330   6.758 -0.1445 -1.0396  1.1929
  968TIP3   OH224538   6.028   0.977   7.654  0.5019 -0.1569 -0.2879
  968TIP3    H124539   6.055   1.066   7.634  0.2279 -0.4306 -1.8943
  968TIP3    H224540   5.935   0.983   7.673  0.5494 -0.0608 -0.0778
  969TIP3   OH224541   0.437   1.491   6.388 -0.2754  0.3552 -0.0159
  969TIP3    H124542   0.362   1.545   6.361  0.3726  1.6702  0.7870
  969TIP3    H224543   0.435   1.493   6.484  0.5092 -0.0052  0.0125
  970TIP3   OH224544   0.152   1.554   6.738  0.4408 -0.6469 -0.3850
  970TIP3    H124545   0.132   1.491   6.669  1.2017 -1.9262  0.5500
  970TIP3    H224546   0.247   1.551   6.747  0.3961 -0.0653  0.3307
  971TIP3   OH224547   6.643   0.523   8.159 -0.4611  0.5229 -0.1557
  971TIP3    H124548   6.694   0.449   8.125 -0.6035 -1.6593  4.0235
  971TIP3    H224549   6.708   0.593   8.171  1.1275 -1.2805  2.3706
  972TIP3   OH224550   5.170   7.280   8.471 -0.0204  0.1551  1.0433
  972TIP3    H124551   5.100   7.260   8.533  0.8488 -1.0384  1.6681
  972TIP3    H224552   5.248   7.292   8.525  1.6045 -4.7608  0.0436
  973TIP3   OH224553   0.644   6.447   6.140  0.2489 -0.0804  0.1951
  973TIP3    H124554   0.609   6.358   6.144  0.4176 -0.2175 -1.2371
  973TIP3    H224555   0.735   6.435   6.114 -0.4535  0.6346 -2.8164
  974TIP3   OH224556   1.578   5.699   8.401 -0.2617  0.0593 -0.1666
  974TIP3    H124557   1.496   5.667   8.438 -1.1342  2.0498 -0.3137
  974TIP3    H224558   1.582   5.661   8.313 -1.8749  1.3039 -0.7952
  975TIP3   OH224559   7.132   1.720   6.391 -0.1760 -0.7635 -0.0645
  975TIP3    H124560   7.092   1.634   6.382 -2.5008  0.0697  1.7104
  975TIP3    H224561   7.182   1.716   6.473 -0.7709 -0.2661  0.3301
  976TIP3   OH224562   6.779   1.649   6.508 -0.3717 -0.5709 -0.0938
  976TIP3    H124563   6.795   1.735   6.547 -0.8400 -0.0565 -1.0078
  976TIP3    H224564   6.787   1.587   6.580  0.3010  0.2094  0.5063
  977TIP3   OH224565   6.821   7.047   7.201 -0.4524 -0.0419 -0.0856
  977TIP3    H124566   6.758   6.975   7.209 -0.9626  0.5640  1.6650
  977TIP3    H224567   6.905   7.007   7.223 -1.1063  0.4232  3.5852
  978TIP3   OH224568   5.348   0.235   6.664  0.1080 -0.1940 -0.1068
  978TIP3    H124569   5.334   0.153   6.616 -0.6391 -0.3967  0.4357
  978TIP3    H224570   5.304   0.302   6.612 -1.5648 -0.5703  0.7594
  979TIP3   OH224571   2.065   0.953   1.063 -0.0328 -0.7494 -0.0478
  979TIP3    H124572   2.065   0.873   1.115 -1.6701 -0.7101  0.0417
  979TIP3    H224573   2.094   1.021   1.124 -1.5935 -0.7661  0.7192
  980TIP3   OH224574   5.728   0.792   8.312 -0.3009  0.1514 -0.0976
  980TIP3    H124575   5.704   0.719   8.256 -0.7257  1.4453 -1.6353
  980TIP3    H224576   5.805   0.830   8.270 -1.0721  1.5807 -0.2343
  981TIP3   OH224577   6.449   7.247   6.913  0.1523 -0.0134  0.0492
  981TIP3    H124578   6.447   7.306   6.837 -0.0372  1.1194  0.9194
  981TIP3    H224579   6.537   7.209   6.911  0.7682  1.3836  0.2878
  982TIP3   OH224580   4.209   5.627   8.227  0.4134 -0.4458 -0.3221
  982TIP3    H124581   4.135   5.637   8.287 -0.1093 -3.3683 -0.3996
  982TIP3    H224582   4.285   5.614   8.284  0.3856 -0.3712 -0.2682
  983TIP3   OH224583   5.564   7.290   8.144 -0.7732  0.5556 -0.0849
  983TIP3    H124584   5.605   7.214   8.103 -0.4033  1.9164 -2.3040
  983TIP3    H224585   5.473   7.286   8.115 -1.1297  0.1008  1.0769
  984TIP3   OH224586   4.931   0.158   8.301 -0.1101 -0.1990  0.1061
  984TIP3    H124587   4.887   0.197   8.226  0.8688 -1.0583 -0.9415
  984TIP3    H224588   4.866   0.100   8.340 -0.0809 -1.0662 -1.1135
  985TIP3   OH224589   4.575   0.507   6.776 -0.0740  0.5129 -0.4261
  985TIP3    H124590   4.573   0.576   6.709  2.1350  0.3756 -0.6751
  985TIP3    H224591   4.630   0.544   6.846  2.1067 -1.3825 -1.0695
  986TIP3   OH224592   6.387   0.231   7.289  0.4002 -0.1243  0.6013
  986TIP3    H124593   6.332   0.256   7.215  0.4733 -1.0839  0.2175
  986TIP3    H224594   6.424   0.147   7.264  0.9175 -0.1600  1.4682
  987TIP3   OH224595   5.493   0.254   8.114 -0.1501 -0.0285 -0.5327
  987TIP3    H124596   5.586   0.244   8.134  0.1086  0.0332 -1.6943
  987TIP3    H224597   5.456   0.167   8.127  0.2801 -0.3082 -1.1438
  988TIP3   OH224598   6.582   0.828   6.771 -0.0925  0.1572  0.4842
  988TIP3    H124599   6.671   0.840   6.739 -0.0924  1.6752  1.0109
  988TIP3    H224600   6.533   0.797   6.694  0.7738 -0.1520  0.0581
  989TIP3   OH224601   4.598   1.869   8.287 -0.4716  0.0048  0.2199
  989TIP3    H124602   4.658   1.795   8.287  0.8152  1.0268  0.2489
  989TIP3    H224603   4.571   1.879   8.378  0.1100  0.1624  0.3772
  990TIP3   OH224604   6.366   0.775   6.568 -0.5236  0.0801  0.3272
  990TIP3    H124605   6.320   0.703   6.525  0.1390  0.0500 -0.3464
  990TIP3    H224606   6.296   0.831   6.603 -1.0591 -0.2062 -0.2778
  991TIP3   OH224607   0.539   0.466   7.017 -0.1813  0.1997  0.1891
  991TIP3    H124608   0.504   0.382   6.988 -1.6238  1.4162 -1.7328
  991TIP3    H224609   0.502   0.478   7.105 -0.1219 -1.0743  0.3960
  992TIP3   OH224610   1.869   1.034   0.716  0.0113 -0.1802  0.3178
  992TIP3    H124611   1.963   1.042   0.733  0.0579 -1.0851  0.5171
  992TIP3    H224612   1.828   1.102   0.769  0.3681 -1.2711  2.0172
  993TIP3   OH224613   7.157   6.078   6.743 -0.4174 -0.5350  0.3559
  993TIP3    H124614   7.171   6.170   6.765  0.3839 -0.4167 -0.5810
  993TIP3    H224615   7.242   6.048   6.709 -1.1700 -1.0997 -1.0946
  994TIP3   OH224616   7.169   5.635   8.041 -0.4086 -0.2681 -0.8144
  994TIP3    H124617   7.225   5.712   8.044 -2.3035  1.0757  1.3969
  994TIP3    H224618   7.101   5.657   7.977 -0.7417 -0.2511 -0.4559
  995TIP3   OH224619   6.537   0.231   0.529  0.1896 -0.1503 -0.1706
  995TIP3    H124620   6.618   0.216   0.480 -0.3267  0.9878 -1.4057
  995TIP3    H224621   6.506   0.317   0.499 -2.0587 -1.0562 -0.5557
  996TIP3   OH224622   7.003   0.046   7.316  0.2393  0.8345  0.0521
  996TIP3    H124623   7.006   0.113   7.248  0.5865  2.4468  1.6148
  996TIP3    H224624   7.052  -0.028   7.280 -1.2175  0.9269 -2.1936
  997TIP3   OH224625   6.471   0.483   7.339 -0.7877  0.1373 -0.1887
  997TIP3    H124626   6.460   0.394   7.304 -2.5134  0.2406  0.0366
  997TIP3    H224627   6.564   0.490   7.359 -0.5471 -1.4417 -0.7003
  998TIP3   OH224628   7.247   0.043   7.615  0.1702 -0.4485 -0.1001
  998TIP3    H124629   7.237   0.043   7.520  1.6453  1.4969 -0.2947
  998TIP3    H224630   7.158   0.055   7.648 -0.1521  0.6603 -1.3048
  999TIP3   OH224631   5.195   5.875   7.261  0.0951 -0.0946  0.0264
  999TIP3    H124632   5.137   5.945   7.229  0.4114 -0.9844 -2.5986
  999TIP3    H224633   5.143   5.829   7.326 -1.9460 -0.4253 -1.7665
 1000TIP3   OH224634   1.725   6.897   7.440 -0.3118 -0.3561 -0.0852
 1000TIP3    H124635   1.742   6.971   7.382  0.4260 -1.3171 -1.1188
 1000TIP3    H224636   1.741   6.820   7.385 -3.2655 -1.3060  0.3132
 1001TIP3   OH224637   5.020   2.037   0.927  0.1223 -0.0830 -0.1660
 1001TIP3    H124638   5.030   2.115   0.981  0.1036 -0.5226  0.4816
 1001TIP3    H224639   5.106   2.024   0.887 -0.5820  1.7511 -2.3231
 1002TIP3   OH224640   4.311   1.258   8.255 -0.3614  0.0091  0.4586
 1002TIP3    H124641   4.268   1.173   8.264 -2.0624  0.7104 -0.8173
 1002TIP3    H224642   4.336   1.263   8.163  3.4052 -0.7877  1.3592
 1003TIP3   OH224643   6.504   6.770   0.651  0.0848  0.3533  0.3190
 1003TIP3    H124644   6.543   6.739   0.733 -1.5387 -1.9346  0.2433
 1003TIP3    H224645   6.569   6.832   0.617  1.2866  0.5139  2.7694
 1004TIP3   OH224646   6.509   6.393   8.491 -0.6895 -0.2223  0.1762
 1004TIP3    H124647   6.563   6.448   8.548 -0.7803 -0.0177  0.0629
 1004TIP3    H224648   6.436   6.365   8.546 -0.9188  0.1901  0.0849
 1005TIP3   OH224649   0.889   6.723   6.864  0.3974  0.2027 -0.2656
 1005TIP3    H124650   0.966   6.773   6.837 -1.1183  1.3163 -2.6912
 1005TIP3    H224651   0.842   6.704   6.782  0.0432 -3.7734  0.7380
 1006TIP3   OH224652   6.117   7.321   0.076  0.9847 -0.3169 -0.1873
 1006TIP3    H124653   6.192   7.350   0.127 -1.1466  0.1676  2.7759
 1006TIP3    H224654   6.104   7.230   0.100  0.7971 -0.4924 -0.9279
 1007TIP3   OH224655   5.236   1.372   7.915  0.3817  0.1445 -0.5291
 1007TIP3    H124656   5.290   1.426   7.857  1.1429  0.6231  0.6001
 1007TIP3    H224657   5.281   1.376   8.000 -0.8505 -0.3326  0.1576
 1008TIP3   OH224658   7.248   1.397   6.121  0.0580 -0.0262  0.5689
 1008TIP3    H124659   7.228   1.443   6.202 -0.8825  0.0793  0.2885
 1008TIP3    H224660   7.194   1.318   6.125  3.6624 -2.5715  2.3316
 1009TIP3   OH224661   1.163   5.611   7.052  0.2053  0.3043 -0.2614
 1009TIP3    H124662   1.136   5.633   6.963 -1.9712 -0.5585  0.1606
 1009TIP3    H224663   1.229   5.676   7.074 -0.8148  1.8669 -1.7118
 1010TIP3   OH224664   6.676   1.482   6.733  0.1124 -0.1178 -0.2699
 1010TIP3    H124665   6.748   1.537   6.766  0.8872 -1.2141 -0.0990
 1010TIP3    H224666   6.599   1.537   6.740  0.7334  0.6390  0.7522
 1011TIP3   OH224667   6.470   6.619   7.111 -0.4784  0.6230 -0.2795
 1011TIP3    H124668   6.549   6.668   7.089  0.0228 -0.3880 -0.7823
 1011TIP3    H224669   6.461   6.556   7.040  0.2925 -1.6725  1.5850
 1012TIP3   OH224670   0.170   1.583   6.319  0.5388  0.0619 -0.2719
 1012TIP3    H124671   0.142   1.674   6.309  1.5177  0.8001  3.0475
 1012TIP3    H224672   0.110   1.546   6.383  0.5316 -1.4977 -1.1412
 1013TIP3   OH224673   5.272   0.526   6.800  0.4315 -0.0945  0.2694
 1013TIP3    H124674   5.341   0.497   6.740  1.0514  0.4001  0.7237
 1013TIP3    H224675   5.224   0.592   6.750 -1.6457 -2.5948 -1.1415
 1014TIP3   OH224676   5.659   6.166   5.965 -0.0790 -0.1028 -0.0277
 1014TIP3    H124677   5.733   6.226   5.951 -0.5712  0.2793 -1.1262
 1014TIP3    H224678   5.699   6.086   6.000  0.8435  0.1223 -0.5359
 1015TIP3   OH224679   0.054   0.793   6.408  0.1214  0.0181 -0.3644
 1015TIP3    H124680   0.130   0.760   6.454  0.7172 -2.3438 -2.9330
 1015TIP3    H224681   0.086   0.868   6.359  0.1102  0.7990  0.7984
 1016TIP3   OH224682   4.465   0.350   1.224  0.0503 -0.5414  0.5590
 1016TIP3    H124683   4.471   0.337   1.129  1.3607  1.2882  0.3526
 1016TIP3    H224684   4.543   0.307   1.259  0.2642 -0.0776  0.6620
 1017TIP3   OH224685   0.051   6.798   0.775  0.1177  0.0402  0.0880
 1017TIP3    H124686   0.020   6.729   0.834 -0.8530 -0.0656 -0.5269
 1017TIP3    H224687   0.025   6.767   0.688  0.6952  0.6415 -0.2966
 1018TIP3   OH224688   5.688   0.891   7.468  0.5558 -0.3731 -0.5030
 1018TIP3    H124689   5.740   0.814   7.444 -0.1434 -0.5557 -1.4692
 1018TIP3    H224690   5.748   0.964   7.457  0.6586 -0.5955 -1.4857
 1019TIP3   OH224691   6.008   0.489   8.413 -0.1091  0.0072 -0.0645
 1019TIP3    H124692   5.979   0.399   8.401 -2.1445  0.4340  1.2725
 1019TIP3    H224693   6.097   0.482   8.448 -0.4576 -1.5041  0.5393
 1020TIP3   OH224694   1.002   7.014   1.004  0.5422 -0.1591 -0.9287
 1020TIP3    H124695   1.087   6.971   1.002  0.5578 -0.0770 -2.2046
 1020TIP3    H224696   1.021   7.104   1.031  0.5744 -0.7609  1.1390
 1021TIP3   OH224697   4.886   3.121   7.765  0.1863  0.0276 -0.5320
 1021TIP3    H124698   4.814   3.181   7.782  0.2541 -0.1567  0.3937
 1021TIP3    H224699   4.939   3.123   7.844  0.5813 -0.7009 -0.7724
 1022TIP3   OH224700   3.703   1.194   0.124  0.6925 -0.3706  0.2313
 1022TIP3    H124701   3.649   1.253   0.071  0.2721 -0.0096  1.0406
 1022TIP3    H224702   3.780   1.176   0.070 -0.5334 -1.4165 -1.2112
 1023TIP3   OH224703   4.804   1.223   1.066 -0.2493  0.7471  0.0566
 1023TIP3    H124704   4.728   1.167   1.049  0.2975  0.3763 -1.2015
 1023TIP3    H224705   4.873   1.162   1.094  0.1077  0.8857 -0.5236
 1024TIP3   OH224706   6.695   0.188   7.015  0.0235 -0.3498 -0.2624
 1024TIP3    H124707   6.663   0.114   7.067  1.0247 -0.1195  0.7183
 1024TIP3    H224708   6.688   0.159   6.924 -1.6396 -0.8189 -0.0017
 1025TIP3   OH224709   6.084   0.022   7.256 -0.0379 -0.1677  0.0410
 1025TIP3    H124710   6.147   0.080   7.213 -0.1488 -0.9872 -1.2742
 1025TIP3    H224711   6.038   0.078   7.318  1.0045  0.7679 -0.0136
 1026TIP3   OH224712   6.484   4.367   0.320 -0.1779 -0.4150  0.1638
 1026TIP3    H124713   6.485   4.463   0.324  0.7849 -0.4912  2.4184
 1026TIP3    H224714   6.570   4.344   0.283 -1.0585 -0.3724 -1.9515
 1027TIP3   OH224715   6.145   2.763   7.143  0.3086  0.2625 -0.7279
 1027TIP3    H124716   6.140   2.855   7.117  0.2286  0.4807  0.0459
 1027TIP3    H224717   6.097   2.759   7.226  0.5453 -0.4215 -0.6216
 1028TIP3   OH224718   4.817   3.053   6.356 -0.1811 -0.1413 -0.2415
 1028TIP3    H124719   4.831   3.122   6.420 -0.9344 -1.3777  1.2949
 1028TIP3    H224720   4.723   3.034   6.361  0.1464 -1.8020 -0.0661
 1029TIP3   OH224721   1.697   0.733   7.158  0.1710 -0.3681 -0.3212
 1029TIP3    H124722   1.699   0.801   7.091 -0.1777  0.1442  0.1884
 1029TIP3    H224723   1.760   0.762   7.224 -1.8410  0.7864  1.1661
 1030TIP3   OH224724   0.663   1.603   6.787  0.7561  0.1398  0.3761
 1030TIP3    H124725   0.692   1.671   6.847  1.2602 -0.0540  0.3520
 1030TIP3    H224726   0.710   1.621   6.705  0.3040  0.2229  0.1320
 1031TIP3   OH224727   5.325   6.473   0.717  0.7549  0.5215 -0.1450
 1031TIP3    H124728   5.257   6.433   0.772  1.5400 -0.6092  0.0140
 1031TIP3    H224729   5.328   6.564   0.745  0.1492  0.2931  0.6920
 1032TIP3   OH224730   5.612   0.381   5.880 -0.2873 -0.2937  0.7997
 1032TIP3    H124731   5.622   0.326   5.802 -2.2062 -0.3966  0.5999
 1032TIP3    H224732   5.540   0.340   5.929  0.1462  0.4187  2.0611
 1033TIP3   OH224733   5.547   7.291   6.562  0.3699 -0.0916 -0.1524
 1033TIP3    H124734   5.581   7.378   6.583 -2.9947  1.3478 -0.4768
 1033TIP3    H224735   5.535   7.292   6.467  1.1916 -1.2818 -0.2850
 1034TIP3   OH224736   7.143   6.905   6.390 -0.1986  0.8552 -0.1638
 1034TIP3    H124737   7.086   6.982   6.395 -1.0311  0.2727 -0.6432
 1034TIP3    H224738   7.093   6.841   6.339 -0.2370 -0.6540  1.7025
 1035TIP3   OH224739   4.757   5.702   7.514  0.0635  0.3525 -0.2588
 1035TIP3    H124740   4.703   5.781   7.526 -1.5611 -0.6605 -0.6762
 1035TIP3    H224741   4.710   5.634   7.561  1.0462 -0.5426 -0.5546
 1036TIP3   OH224742   0.254   6.984   6.835 -0.2104  0.7255  0.5635
 1036TIP3    H124743   0.292   6.974   6.748 -0.6156  0.7872  0.3769
 1036TIP3    H224744   0.324   6.959   6.896  0.3404  1.4978  0.2443
 1037TIP3   OH224745   4.684   0.300   0.662  0.5099 -0.3525  0.6638
 1037TIP3    H124746   4.688   0.395   0.654  1.5556 -0.5132 -0.8948
 1037TIP3    H224747   4.775   0.274   0.681  0.8727 -1.2853 -2.1186
 1038TIP3   OH224748   6.349   0.073   7.568  0.3997 -0.4925 -0.4610
 1038TIP3    H124749   6.399   0.006   7.522  1.1938  0.7009 -1.3717
 1038TIP3    H224750   6.386   0.156   7.538 -0.7011  0.3672  0.4835
 1039TIP3   OH224751   6.856   0.832   6.678  0.5133  0.1785 -0.4916
 1039TIP3    H124752   6.887   0.908   6.627 -0.4600  1.9024  1.4119
 1039TIP3    H224753   6.806   0.780   6.615  0.6361  1.4595 -1.6719
 1040TIP3   OH224754   1.266   4.169   7.720  0.9027 -0.0622  0.0320
 1040TIP3    H124755   1.298   4.082   7.695  0.9968 -0.1860  0.5788
 1040TIP3    H224756   1.338   4.209   7.769  0.6235  0.0686  0.3416
 1041TIP3   OH224757   0.387   6.098   0.063  0.0277 -0.5672  0.4165
 1041TIP3    H124758   0.409   6.113  -0.029  1.5614 -1.6888  0.5821
 1041TIP3    H224759   0.318   6.032   0.061 -1.2081  0.7180  0.0118
 1042TIP3   OH224760   1.506   2.945   1.867 -1.0184 -0.7531  0.4245
 1042TIP3    H124761   1.436   2.991   1.821 -0.1074 -0.2780 -0.5246
 1042TIP3    H224762   1.558   3.015   1.907  0.7643 -0.8536 -1.5909
 1043TIP3   OH224763   1.194   6.919   7.556  0.2904 -0.3488  0.2215
 1043TIP3    H124764   1.280   6.934   7.515 -0.0209  1.9555  0.3239
 1043TIP3    H224765   1.214   6.902   7.648  0.6110  0.9516  0.4030
 1044TIP3   OH224766   7.078   3.447   6.203 -0.0647 -0.4493  0.3627
 1044TIP3    H124767   7.116   3.428   6.117 -0.0146 -0.6803  0.4374
 1044TIP3    H224768   7.066   3.542   6.202  2.1295 -0.1426  1.0050
 1045TIP3   OH224769   1.130   3.462   7.039  0.0921 -0.3748 -0.7023
 1045TIP3    H124770   1.079   3.536   7.073 -0.3752 -1.1214  0.2388
 1045TIP3    H224771   1.217   3.498   7.024  0.1957  0.0736  0.8983
 1046TIP3   OH224772   0.879   5.578   7.345  0.4114  0.2802 -0.2813
 1046TIP3    H124773   0.946   5.538   7.400  0.8396  0.7651 -0.4478
 1046TIP3    H224774   0.803   5.519   7.353  1.3857 -1.1726 -1.4043
 1047TIP3   OH224775   1.919   3.573   6.395  0.1725 -0.0433  0.1148
 1047TIP3    H124776   1.893   3.504   6.457 -0.0588 -0.7400 -0.7544
 1047TIP3    H224777   1.959   3.640   6.450 -1.5140  0.0819  1.2111
 1048TIP3   OH224778   1.718   4.419   8.335  0.0023  0.1291  0.9735
 1048TIP3    H124779   1.642   4.366   8.309  1.8790 -2.2699  0.2388
 1048TIP3    H224780   1.733   4.396   8.426  0.1820  0.2334  0.9701
 1049TIP3   OH224781   2.509   3.527   6.412 -0.2013  0.0261 -0.0363
 1049TIP3    H124782   2.492   3.621   6.401  0.8556  0.2497  0.1999
 1049TIP3    H224783   2.596   3.523   6.453 -0.8141 -1.0110  1.2054
 1050TIP3   OH224784   1.095   3.070   6.168  0.2321  0.3040 -0.3036
 1050TIP3    H124785   1.002   3.060   6.147  0.5783 -0.0928 -1.6565
 1050TIP3    H224786   1.110   3.007   6.239 -0.8847  1.5046  1.0355
 1051TIP3   OH224787   2.569   2.842   6.844 -0.4276 -0.2111  0.0714
 1051TIP3    H124788   2.662   2.818   6.841 -0.9137 -2.0620 -0.6038
 1051TIP3    H224789   2.560   2.889   6.928  0.3462 -3.4643  2.0702
 1052TIP3   OH224790   2.040   1.813   7.100  0.3748 -0.3978 -0.3623
 1052TIP3    H124791   1.974   1.743   7.102 -1.0664  0.9133 -1.3432
 1052TIP3    H224792   2.093   1.797   7.178 -1.7813 -0.8170  1.0778
 1053TIP3   OH224793   1.734   2.670   6.734  0.4853  0.2296  0.0679
 1053TIP3    H124794   1.741   2.741   6.797 -0.3052  0.6571 -0.3054
 1053TIP3    H224795   1.820   2.666   6.692  0.8336  0.3176  0.7782
 1054TIP3   OH224796   6.239   3.575   7.174 -0.3276  0.0454 -0.2054
 1054TIP3    H124797   6.267   3.659   7.212 -0.1849  0.2422 -0.7349
 1054TIP3    H224798   6.321   3.526   7.162 -0.2403  0.4610 -1.3769
 1055TIP3   OH224799   3.725   3.502   0.021 -0.4348  0.5177 -0.1243
 1055TIP3    H124800   3.646   3.513   0.074 -1.7619 -0.1689 -1.9317
 1055TIP3    H224801   3.740   3.408   0.019  0.8242  0.6877  0.7504
 1056TIP3   OH224802   1.720   6.733   6.862 -0.2712  0.2635  0.6393
 1056TIP3    H124803   1.708   6.662   6.926 -0.2680  0.4081  0.8000
 1056TIP3    H224804   1.708   6.690   6.777  0.4185 -0.0709  0.7078
 1057TIP3   OH224805   1.306   4.261   7.241 -0.3790  0.7854  0.1458
 1057TIP3    H124806   1.246   4.309   7.185  0.4834 -0.1124 -1.5923
 1057TIP3    H224807   1.253   4.191   7.280 -1.3660  2.4064  1.7899
 1058TIP3   OH224808   2.643   4.012   6.983 -0.7656 -0.0170 -0.2534
 1058TIP3    H124809   2.608   4.052   7.062 -0.1854 -1.0436  0.5397
 1058TIP3    H224810   2.573   4.021   6.919 -0.9534  1.4999  0.1497
 1059TIP3   OH224811   1.817   0.782   0.623  0.0265 -0.0161 -0.1457
 1059TIP3    H124812   1.907   0.787   0.592 -0.1699  2.7886 -0.3940
 1059TIP3    H224813   1.805   0.862   0.675 -1.8679 -1.0803  1.1408
 1060TIP3   OH224814   2.548   2.242   6.204  0.1164  0.2943  0.6437
 1060TIP3    H124815   2.512   2.288   6.128  0.3592  1.7243  1.3912
 1060TIP3    H224816   2.632   2.208   6.173  0.6073  1.5981  0.5145
 1061TIP3   OH224817   1.805   3.583   7.525  0.0094  0.2808 -0.2834
 1061TIP3    H124818   1.738   3.651   7.530 -0.8923 -0.6354  0.4015
 1061TIP3    H224819   1.795   3.534   7.606  0.7103 -0.6101 -0.7258
 1062TIP3   OH224820   1.203   4.360   6.725  0.1322  0.3823 -0.1925
 1062TIP3    H124821   1.165   4.339   6.640  0.0316  0.1570 -0.0918
 1062TIP3    H224822   1.130   4.395   6.777 -0.1496 -0.9140  0.3046
 1063TIP3   OH224823   2.650   3.012   7.314 -0.2768 -0.0316 -0.8511
 1063TIP3    H124824   2.663   3.002   7.220 -0.4916  1.0499 -1.0057
 1063TIP3    H224825   2.619   3.102   7.325  2.5079  0.8215  0.5203
 1064TIP3   OH224826   2.194   2.440   6.139 -0.2421 -0.0701 -0.3112
 1064TIP3    H124827   2.279   2.485   6.133  0.3913 -1.5223 -2.9253
 1064TIP3    H224828   2.133   2.508   6.166  0.9008  2.1626 -3.0790
 1065TIP3   OH224829   3.682   3.479   7.838 -0.2494 -0.4149 -0.1388
 1065TIP3    H124830   3.592   3.483   7.870 -0.0407 -1.3276  0.5946
 1065TIP3    H224831   3.697   3.386   7.820  0.6030 -0.2994 -0.0791
 1066TIP3   OH224832   0.361   5.127   7.403  0.1315 -0.0601 -0.3880
 1066TIP3    H124833   0.298   5.064   7.440 -2.1260  1.4198 -1.5848
 1066TIP3    H224834   0.369   5.195   7.471 -1.0993  0.7384 -1.0233
 1067TIP3   OH224835   0.751   3.573   6.775  0.4084 -0.2248  0.1908
 1067TIP3    H124836   0.719   3.609   6.692 -1.6852  0.2260  1.1440
 1067TIP3    H224837   0.674   3.573   6.832  1.4892 -1.8317  1.7043
 1068TIP3   OH224838   3.004   3.533   6.907  0.9787  0.1393  0.2835
 1068TIP3    H124839   3.014   3.458   6.965  0.5320  0.3692  0.6598
 1068TIP3    H224840   2.921   3.517   6.861  1.2742  0.0148 -0.2071
 1069TIP3   OH224841   2.068   4.020   0.092 -0.7319  0.0328  0.0746
 1069TIP3    H124842   2.087   4.015  -0.002  0.1051 -0.5685  0.2684
 1069TIP3    H224843   2.096   4.108   0.117 -0.4059 -0.0111 -0.1287
 1070TIP3   OH224844   1.645   2.802   6.416  0.2046  0.3332 -0.7293
 1070TIP3    H124845   1.616   2.893   6.422 -1.0982 -0.0545 -1.0285
 1070TIP3    H224846   1.733   2.807   6.379 -0.1243  1.4262 -1.3755
 1071TIP3   OH224847   1.375   1.683   6.747 -0.2227  0.2698  0.1788
 1071TIP3    H124848   1.445   1.742   6.774 -0.5527  0.2181  1.1739
 1071TIP3    H224849   1.419   1.611   6.702  0.4304 -0.1401  1.4651
 1072TIP3   OH224850   7.284   2.597   6.254 -0.3474 -0.2510 -0.3490
 1072TIP3    H124851   7.212   2.539   6.279  0.6617 -1.5598 -0.4858
 1072TIP3    H224852   7.334   2.548   6.190  0.1115  1.0586 -1.0191
 1073TIP3   OH224853   1.442   5.881   7.389  0.1269 -0.5372 -0.1283
 1073TIP3    H124854   1.455   5.847   7.301 -2.6242 -2.6677  0.1956
 1073TIP3    H224855   1.389   5.814   7.433  0.4329  1.0228  2.7695
 1074TIP3   OH224856   0.826   1.980   6.478  0.1770 -0.4432  0.0690
 1074TIP3    H124857   0.764   2.052   6.489  1.8565  0.9643  0.3409
 1074TIP3    H224858   0.873   1.999   6.397 -0.4810 -2.0980 -0.7446
 1075TIP3   OH224859   2.009   1.949   6.622  0.2975 -0.2581 -0.1987
 1075TIP3    H124860   2.085   1.951   6.681  1.0305 -1.5011 -1.0607
 1075TIP3    H224861   2.003   2.038   6.587  2.1040 -0.4297 -1.0247
 1076TIP3   OH224862   2.024   4.210   7.630 -0.0432  0.0478 -0.2116
 1076TIP3    H124863   1.994   4.123   7.602  2.0923 -1.0181  0.7213
 1076TIP3    H224864   2.027   4.205   7.726  0.2206  1.1127 -0.1562
 1077TIP3   OH224865   6.299   3.482   6.802 -0.2545 -0.3859  0.2023
 1077TIP3    H124866   6.233   3.470   6.734  0.1393  0.6650 -0.3769
 1077TIP3    H224867   6.290   3.573   6.829  1.0493 -0.1804 -0.0060
 1078TIP3   OH224868   1.078   4.456   7.696  0.2952  0.0544 -0.0105
 1078TIP3    H124869   1.136   4.465   7.620  1.2326  0.0387  0.6938
 1078TIP3    H224870   1.124   4.395   7.754  0.6833  1.8188  1.5909
 1079TIP3   OH224871   1.627   6.459   7.408 -0.2417  0.5566  0.1226
 1079TIP3    H124872   1.538   6.477   7.376  0.3544  1.3133 -1.1398
 1079TIP3    H224873   1.662   6.395   7.345 -0.2577 -0.5569  1.2290
 1080TIP3   OH224874   0.799   3.714   6.388  0.0623 -0.1454  0.3924
 1080TIP3    H124875   0.729   3.689   6.449 -0.6040  1.9189  0.5275
 1080TIP3    H224876   0.876   3.725   6.444 -0.0710 -0.1737  0.5837
 1081TIP3   OH224877   5.377   2.066   6.599 -0.2078  0.2609 -0.1765
 1081TIP3    H124878   5.364   2.079   6.505  2.7309  1.4696 -0.4793
 1081TIP3    H224879   5.412   2.149   6.631 -1.3445 -0.0678  2.0393
 1082TIP3   OH224880   0.692   3.853   1.411  0.1065  0.0204  0.1544
 1082TIP3    H124881   0.761   3.807   1.364 -0.7188 -1.8009  0.6565
 1082TIP3    H224882   0.738   3.901   1.480  1.1403  1.2407 -1.3766
 1083TIP3   OH224883   3.196   3.235   0.842 -0.5400  0.2017 -0.2071
 1083TIP3    H124884   3.209   3.205   0.932  0.3800 -1.6789 -0.9385
 1083TIP3    H224885   3.131   3.174   0.805 -0.2268  0.3917 -1.0955
 1084TIP3   OH224886   2.007   3.778   8.099  0.3399  0.0634  0.4681
 1084TIP3    H124887   2.041   3.764   8.187 -0.0473 -1.6547  0.3530
 1084TIP3    H224888   1.920   3.739   8.100  0.3327  0.0361 -0.6716
 1085TIP3   OH224889   1.144   2.905   6.397 -0.1207 -0.5846  0.1049
 1085TIP3    H124890   1.236   2.880   6.410  1.0770  3.4233  0.0594
 1085TIP3    H224891   1.121   2.953   6.476 -1.5938  0.0990 -0.7341
 1086TIP3   OH224892   1.820   6.337   8.056 -0.6896 -0.0100 -0.2470
 1086TIP3    H124893   1.852   6.377   8.137  0.6070 -2.6536  0.6289
 1086TIP3    H224894   1.884   6.361   7.990  1.6769 -2.9263  0.8933
 1087TIP3   OH224895   2.982   0.117   8.498 -0.6903  0.3808  0.2996
 1087TIP3    H124896   3.043   0.128   8.425  0.8955 -3.1416  0.9882
 1087TIP3    H224897   2.916   0.056   8.466 -0.6495 -0.2583  1.4132
 1088TIP3   OH224898   2.329   1.117   6.398  0.5073  0.8043  0.3498
 1088TIP3    H124899   2.311   1.023   6.396  0.2436  0.7572  2.6352
 1088TIP3    H224900   2.258   1.156   6.347  0.5603 -0.2222 -0.5233
 1089TIP3   OH224901   1.968   6.875   7.766  0.2631 -0.3476  0.2098
 1089TIP3    H124902   1.900   6.839   7.822  0.2327 -1.0438 -0.2815
 1089TIP3    H224903   1.991   6.804   7.706  0.7276  0.1982 -0.2661
 1090TIP3   OH224904   2.908   4.178   0.752  0.1563  0.2613  0.3778
 1090TIP3    H124905   2.956   4.219   0.680  0.0422  2.0732  1.3141
 1090TIP3    H224906   2.966   4.108   0.783  1.2317  1.0062  0.0752
 1091TIP3   OH224907   1.210   2.960   1.562  0.6844 -0.1152  0.5811
 1091TIP3    H124908   1.157   3.039   1.571  0.7905 -0.2483  2.6636
 1091TIP3    H224909   1.277   2.984   1.499 -1.8569  0.0215 -2.1513
 1092TIP3   OH224910   6.477   3.823   6.908 -0.3471 -0.5192  0.8086
 1092TIP3    H124911   6.562   3.779   6.905  0.0414  0.2842 -0.2878
 1092TIP3    H224912   6.496   3.909   6.947 -0.5816 -0.1643  0.1415
 1093TIP3   OH224913   0.822   2.497   6.362  0.6164 -0.3593  0.1492
 1093TIP3    H124914   0.769   2.528   6.288  0.3132 -0.1955  0.4336
 1093TIP3    H224915   0.884   2.568   6.378  0.4473 -0.2393  0.2809
 1094TIP3   OH224916   6.967   3.766   6.308  0.2031 -0.3904  0.6192
 1094TIP3    H124917   6.970   3.777   6.213  2.1083 -1.0139  0.5807
 1094TIP3    H224918   7.008   3.845   6.343 -0.7066 -0.0530  0.9427
 1095TIP3   OH224919   0.222   3.927   7.448 -0.2611  0.3904  0.4792
 1095TIP3    H124920   0.272   4.006   7.430  0.2391 -0.2937 -1.3350
 1095TIP3    H224921   0.288   3.861   7.470 -0.4333 -0.2003 -0.7172
 1096TIP3   OH224922   0.970   2.720   6.324 -0.1503  0.0065  0.6746
 1096TIP3    H124923   1.019   2.802   6.336 -0.3267  0.3971 -1.0562
 1096TIP3    H224924   0.879   2.748   6.314 -0.1401 -0.3279 -0.4920
 1097TIP3   OH224925   6.844   4.176   7.618 -0.1001  0.4138 -0.4312
 1097TIP3    H124926   6.826   4.084   7.639 -1.4715  0.8774  0.4596
 1097TIP3    H224927   6.929   4.193   7.658 -0.4047 -0.1284  0.4638
 1098TIP3   OH224928   3.730   4.349   6.500 -0.2343 -0.0354 -0.2274
 1098TIP3    H124929   3.704   4.371   6.411  1.7501 -1.2470 -1.1484
 1098TIP3    H224930   3.825   4.363   6.502 -0.4641  1.6591  2.2226
 1099TIP3   OH224931   1.379   3.071   6.192  0.4402  0.1200  0.0811
 1099TIP3    H124932   1.283   3.073   6.197  0.2150 -0.8016 -2.8948
 1099TIP3    H224933   1.399   2.985   6.155  2.4940 -0.0355  1.4824
 1100TIP3   OH224934   1.257   3.333   6.532  0.1244  0.3727 -0.0716
 1100TIP3    H124935   1.353   3.339   6.536  0.0985  0.7501  0.0178
 1100TIP3    H224936   1.228   3.422   6.514 -0.2360  0.3422  0.3445
 1101TIP3   OH224937   6.413   1.938   6.683 -0.3935  0.0793 -0.0180
 1101TIP3    H124938   6.459   1.997   6.624 -0.0281  0.1344  0.3190
 1101TIP3    H224939   6.322   1.940   6.653  0.0741 -1.0889 -1.5406
 1102TIP3   OH224940   0.453   1.216   6.222 -0.1998 -0.4503  0.6645
 1102TIP3    H124941   0.428   1.139   6.170  0.8410  1.6780 -3.1779
 1102TIP3    H224942   0.373   1.269   6.225  0.2481  0.3136 -0.4762
 1103TIP3   OH224943   2.192   3.406   8.046  0.6071 -0.2346  0.2839
 1103TIP3    H124944   2.150   3.471   7.990 -1.8134 -1.3898  0.6605
 1103TIP3    H224945   2.274   3.446   8.074  0.5170  1.4747 -1.8046
 1104TIP3   OH224946   3.089   3.103   7.134 -0.1119  0.1446 -0.4795
 1104TIP3    H124947   3.183   3.117   7.125 -0.1085 -0.0561 -0.7432
 1104TIP3    H224948   3.056   3.105   7.045 -0.2878 -0.2887 -0.4231
 1105TIP3   OH224949   1.629   2.086   6.647 -0.4882 -0.3178 -0.8211
 1105TIP3    H124950   1.567   2.033   6.696 -1.6507  0.1178 -1.8179
 1105TIP3    H224951   1.712   2.075   6.694 -1.0987 -1.6467 -0.0421
 1106TIP3   OH224952   1.609   1.997   6.170 -0.1948 -0.3101  0.3346
 1106TIP3    H124953   1.661   2.045   6.106  0.4408 -1.0554  0.2780
 1106TIP3    H224954   1.529   1.974   6.123 -0.0256 -0.2606  0.0179
 1107TIP3   OH224955   1.218   2.124   6.353 -0.2343 -0.1131 -0.4846
 1107TIP3    H124956   1.128   2.112   6.324  0.3298 -1.2124 -1.8230
 1107TIP3    H224957   1.217   2.098   6.445 -1.2473 -0.2751 -0.5375
 1108TIP3   OH224958   2.231   4.543   7.030 -0.2230 -0.3516  0.6755
 1108TIP3    H124959   2.240   4.631   6.994  0.8487 -0.4691  0.6291
 1108TIP3    H224960   2.301   4.537   7.095  1.6996 -2.2468 -1.5036
 1109TIP3   OH224961   7.052   3.489   1.653 -0.3605 -0.1765 -0.3361
 1109TIP3    H124962   7.002   3.478   1.734 -0.3979 -2.5320 -0.6551
 1109TIP3    H224963   7.132   3.438   1.667  1.1639  2.0831 -0.5386
 1110TIP3   OH224964   2.603   2.794   0.279 -0.1321 -0.2999 -0.0574
 1110TIP3    H124965   2.584   2.701   0.283  0.4354 -0.4063  0.2986
 1110TIP3    H224966   2.688   2.803   0.322  0.1917  0.2770 -0.8007
 1111TIP3   OH224967   1.407   3.572   6.883 -0.1801  0.7645 -0.6231
 1111TIP3    H124968   1.449   3.486   6.882 -0.0177  0.8397 -2.4237
 1111TIP3    H224969   1.480   3.634   6.884 -0.2975  0.9050  1.3390
 1112TIP3   OH224970   1.534   1.490   6.651 -0.2259 -0.4125  0.2846
 1112TIP3    H124971   1.582   1.507   6.570 -1.1102 -1.0660 -0.3797
 1112TIP3    H224972   1.602   1.473   6.716  0.4704 -0.2630 -0.4030
 1113TIP3   OH224973   6.631   4.007   0.718 -0.2086 -0.1595  0.0347
 1113TIP3    H124974   6.619   4.040   0.807 -0.6998 -1.0532  0.3143
 1113TIP3    H224975   6.613   4.082   0.661  2.8419  1.1774  0.7342
 1114TIP3   OH224976   1.368   4.104   0.657  0.3919  0.7010 -0.1948
 1114TIP3    H124977   1.388   4.012   0.671  0.1282  0.5376 -0.8846
 1114TIP3    H224978   1.272   4.107   0.656  0.3978  0.8018 -1.3157
 1115TIP3   OH224979   0.533   4.851   0.770 -0.1046 -0.5099 -0.4202
 1115TIP3    H124980   0.514   4.929   0.822  0.8642 -1.0112  0.7118
 1115TIP3    H224981   0.451   4.830   0.726 -0.8434  0.1332  0.6466
 1116TIP3   OH224982   1.220   3.999   7.359  0.8152  0.5323  0.1091
 1116TIP3    H124983   1.296   3.964   7.405  2.6434  0.2831 -2.9975
 1116TIP3    H224984   1.219   3.953   7.275 -1.3128  2.3343 -0.9099
 1117TIP3   OH224985   0.726   0.709   5.920 -0.3734  0.5723  0.2016
 1117TIP3    H124986   0.781   0.729   5.995  1.6572  2.3752 -1.6853
 1117TIP3    H224987   0.738   0.615   5.905 -0.2122  0.3569  1.6556
 1118TIP3   OH224988   5.312   2.558   7.865  0.1218 -0.2818  0.0156
 1118TIP3    H124989   5.354   2.509   7.935 -0.3825 -0.9157 -0.1151
 1118TIP3    H224990   5.251   2.616   7.909  1.6227  1.1417  0.2467
 1119TIP3   OH224991   0.412   5.119   7.114 -0.2072  0.1756 -0.1277
 1119TIP3    H124992   0.325   5.086   7.092 -0.8626  1.3840  0.6110
 1119TIP3    H224993   0.409   5.137   7.208  1.1628 -0.7321  0.1062
 1120TIP3   OH224994   1.550   4.507   6.429 -0.5037  0.3758 -0.1205
 1120TIP3    H124995   1.504   4.586   6.458  1.2209  1.3541  0.0736
 1120TIP3    H224996   1.622   4.540   6.375 -0.7272 -1.1736 -1.4093
 1121TIP3   OH224997   0.926   2.445   2.135  0.2521  0.1642 -0.0891
 1121TIP3    H124998   0.865   2.516   2.155  1.1272  0.7108  0.7137
 1121TIP3    H224999   1.000   2.489   2.094  1.4939 -0.0547  1.8535
 1122TIP3   OH225000   2.000   3.646   0.327  0.0603  1.0674 -0.2692
 1122TIP3    H125001   2.034   3.637   0.238 -0.9987 -1.2148 -0.4893
 1122TIP3    H225002   1.956   3.731   0.328 -0.5972  0.7609 -2.1632
 1123TIP3   OH225003   2.114   4.482   7.994 -0.6805 -0.0412  0.1824
 1123TIP3    H125004   2.092   4.391   7.974  0.5909  0.0225 -1.6211
 1123TIP3    H225005   2.177   4.477   8.066 -0.1801 -0.6220 -0.2949
 1124TIP3   OH225006   2.026   3.047   6.256  0.0549  0.1601  0.5521
 1124TIP3    H125007   1.983   2.973   6.300  0.4766 -0.3824  0.0561
 1124TIP3    H225008   2.092   3.006   6.200  0.4288  0.9278  0.4329
 1125TIP3   OH225009   1.904   3.282   6.177  0.0823  0.1634 -0.1431
 1125TIP3    H125010   1.958   3.211   6.213 -0.0463 -1.4780 -3.0485
 1125TIP3    H225011   1.815   3.246   6.176 -0.2260  0.9261 -0.2422
 1126TIP3   OH225012   5.559   3.268   7.352  0.5392 -0.4156  0.1182
 1126TIP3    H125013   5.649   3.300   7.355  0.0065  1.0900  0.6145
 1126TIP3    H225014   5.538   3.261   7.259  0.5703  0.9879  0.0020
 1127TIP3   OH225015   1.446   5.618   6.391  0.2426 -0.6304  0.6160
 1127TIP3    H125016   1.523   5.675   6.386 -1.2706  1.4337  0.1113
 1127TIP3    H225017   1.397   5.637   6.311  0.4633 -3.8438 -0.3696
 1128TIP3   OH225018   1.728   4.884   0.425  0.2343  0.5675  0.0113
 1128TIP3    H125019   1.804   4.942   0.433 -1.1204  2.2657  0.8589
 1128TIP3    H225020   1.702   4.867   0.516 -0.3999 -0.0414 -0.2801
 1129TIP3   OH225021   2.684   3.603   7.042 -0.1871 -0.1596  0.2067
 1129TIP3    H125022   2.714   3.518   7.073 -0.7753  0.2171  1.8660
 1129TIP3    H225023   2.741   3.623   6.968 -0.1938 -2.0798 -0.3307
 1130TIP3   OH225024   1.088   6.856   0.080  0.3940 -0.2511 -0.2232
 1130TIP3    H125025   1.087   6.952   0.077  0.4989 -0.2638 -0.5937
 1130TIP3    H225026   1.000   6.831   0.052  0.4171 -0.2703 -0.2779
 1131TIP3   OH225027   1.617   3.802   7.528 -0.3903 -0.3056  0.1596
 1131TIP3    H125028   1.681   3.866   7.498 -0.8536  0.3430  0.5609
 1131TIP3    H225029   1.550   3.801   7.459  0.5939 -1.8098 -0.8249
 1132TIP3   OH225030   0.749   3.557   6.150 -0.4687 -0.1962 -0.0883
 1132TIP3    H125031   0.771   3.578   6.240  0.3193  0.9061 -0.5262
 1132TIP3    H225032   0.662   3.518   6.155 -0.9575  1.0160  1.0096
 1133TIP3   OH225033   0.524   4.378   6.550 -0.6927 -0.1525 -0.4826
 1133TIP3    H125034   0.588   4.307   6.547 -1.0267 -0.4261 -1.3387
 1133TIP3    H225035   0.469   4.363   6.474 -0.4849  1.3046 -0.9243
 1134TIP3   OH225036   1.490   2.904   6.703  0.0434 -0.2411 -0.0636
 1134TIP3    H125037   1.519   2.814   6.715 -1.1729 -0.5722  0.5074
 1134TIP3    H225038   1.421   2.916   6.768  0.7495  1.3635  0.4296
 1135TIP3   OH225039   0.299   4.708   6.700  0.2529  0.0201  0.2679
 1135TIP3    H125040   0.258   4.707   6.614  0.9100 -0.6043 -0.0441
 1135TIP3    H225041   0.393   4.704   6.682  0.5061  2.0186  0.9458
 1136TIP3   OH225042   1.715   4.979   6.503 -0.3026 -0.6241  0.2359
 1136TIP3    H125043   1.694   4.974   6.410  0.1504  2.2770 -0.0847
 1136TIP3    H225044   1.784   4.914   6.515  0.4339 -0.2590 -1.7211
 1137TIP3   OH225045   2.329   0.289   7.210  0.0034 -0.0413  0.5928
 1137TIP3    H125046   2.288   0.369   7.241  3.3966  1.5774  1.1065
 1137TIP3    H225047   2.300   0.281   7.119 -1.4265  1.0436  0.9420
 1138TIP3   OH225048   0.663   4.002   5.756 -0.3502 -0.0698 -0.3973
 1138TIP3    H125049   0.630   4.085   5.790 -0.5427 -1.1231  2.1225
 1138TIP3    H225050   0.591   3.966   5.705 -0.6672  0.7807 -0.5533
 1139TIP3   OH225051   1.149   3.089   6.598  0.1253  0.4989 -0.0848
 1139TIP3    H125052   1.202   3.164   6.572 -0.4376  0.5477 -1.1109
 1139TIP3    H225053   1.116   3.112   6.685  1.4762  0.6179  0.4118
 1140TIP3   OH225054   7.324   4.241   7.644  0.2487  0.0248 -0.0829
 1140TIP3    H125055   7.418   4.233   7.664  0.2371 -1.8932 -0.6631
 1140TIP3    H225056   7.310   4.180   7.572 -1.5358  0.0082  0.2673
 1141TIP3   OH225057   1.736   2.219   6.000  0.0952  0.7732 -0.2292
 1141TIP3    H125058   1.830   2.213   6.016  0.4013  2.0204 -1.4557
 1141TIP3    H225059   1.727   2.294   5.941 -1.5600  0.0153 -0.9572
 1142TIP3   OH225060   1.461   3.866   7.256 -0.4210 -0.3390  0.1807
 1142TIP3    H125061   1.422   3.813   7.187 -0.6767  0.7888 -0.5456
 1142TIP3    H225062   1.443   3.957   7.231 -1.7847  0.0765  2.4527
 1143TIP3   OH225063   2.476   4.432   6.567  0.0326  0.3246  0.1368
 1143TIP3    H125064   2.553   4.377   6.553 -1.0060 -0.8625 -1.1569
 1143TIP3    H225065   2.505   4.521   6.544  0.5563 -0.3811 -2.0462
 1144TIP3   OH225066   1.443   4.814   7.306 -0.3292 -0.7678  0.1835
 1144TIP3    H125067   1.537   4.829   7.293 -0.3810  0.6402  1.1937
 1144TIP3    H225068   1.401   4.888   7.263 -1.1236 -2.6256 -2.2936
 1145TIP3   OH225069   5.943   2.554   1.188 -0.7191  0.2561  0.0903
 1145TIP3    H125070   5.990   2.470   1.189 -1.9580 -0.4513  1.9620
 1145TIP3    H225071   5.905   2.560   1.101  0.7007 -0.3742 -0.5850
 1146TIP3   OH225072   1.551   5.617   7.868  0.7344  0.2472 -0.6963
 1146TIP3    H125073   1.504   5.573   7.939  0.4756 -0.6242 -1.4054
 1146TIP3    H225074   1.483   5.657   7.815  0.8912  0.3083 -0.8527
 1147TIP3   OH225075   3.006   4.326   7.866  0.6657  0.1572  0.1856
 1147TIP3    H125076   3.092   4.304   7.833  0.9635 -0.8123  1.5702
 1147TIP3    H225077   2.988   4.261   7.934 -0.6985  0.9805  0.6466
 1148TIP3   OH225078   5.133   1.609   6.400  0.1371  0.8840  1.0472
 1148TIP3    H125079   5.114   1.538   6.338 -0.4117  0.1922  1.9953
 1148TIP3    H225080   5.177   1.676   6.347  1.6809 -0.6423  0.3881
 1149TIP3   OH225081   7.114   3.738   6.740  0.3005 -0.4302  0.9001
 1149TIP3    H125082   7.042   3.676   6.735 -1.4260  1.6005 -0.6504
 1149TIP3    H225083   7.179   3.707   6.677  0.9181 -2.3635  2.4351
 1150TIP3   OH225084   3.661   1.143   0.421  0.1195 -0.1210 -0.1111
 1150TIP3    H125085   3.631   1.088   0.349 -1.8676  1.1483 -0.2863
 1150TIP3    H225086   3.711   1.214   0.380 -2.2410  1.4122 -0.3960
 1151TIP3   OH225087   5.197   1.001   0.384  0.8870  0.2004  0.8200
 1151TIP3    H125088   5.143   0.989   0.306 -0.4299  0.2041  1.7187
 1151TIP3    H225089   5.279   0.956   0.364 -0.2074 -1.5469  0.2163
 1152TIP3   OH225090   7.113   0.013   6.509  0.2269  0.0148 -0.0238
 1152TIP3    H125091   7.018   0.013   6.493  0.2418 -0.4111 -0.0994
 1152TIP3    H225092   7.151   0.047   6.428  0.1846 -0.4762 -0.2483
 1153TIP3   OH225093   0.785   3.177   1.998 -0.8742 -0.0223  0.1777
 1153TIP3    H125094   0.725   3.210   2.065 -1.3808  1.4611 -0.9951
 1153TIP3    H225095   0.734   3.112   1.950 -0.4281 -1.2888  1.3562
 1154TIP3   OH225096   2.004   4.593   0.088 -0.0849  1.0379  0.6654
 1154TIP3    H125097   2.033   4.657   0.153  2.0236  3.0820 -2.1376
 1154TIP3    H225098   1.988   4.645   0.009  2.2795 -1.9155 -1.8848
 1155TIP3   OH225099   4.767   2.090   7.962  0.1825  0.7728  0.3497
 1155TIP3    H125100   4.835   2.041   8.009  0.6612 -0.5342 -1.6588
 1155TIP3    H225101   4.768   2.176   8.004  1.6489  0.1286  1.7250
 1156TIP3   OH225102   2.296   3.516   7.713  0.2055 -0.1281 -0.0720
 1156TIP3    H125103   2.249   3.572   7.774  1.5949 -0.4814  1.3430
 1156TIP3    H225104   2.351   3.576   7.662  1.4580 -0.1355  1.2303
 1157TIP3   OH225105   2.223   4.494   0.479  0.3422 -0.0741 -0.1477
 1157TIP3    H125106   2.136   4.453   0.481 -1.1867  2.8977 -1.5171
 1157TIP3    H225107   2.247   4.495   0.386  0.3213  2.0804 -0.1516
 1158TIP3   OH225108   2.557   3.451   1.325  0.3431 -0.1966  0.3205
 1158TIP3    H125109   2.523   3.385   1.385 -0.0952 -0.2441  0.0279
 1158TIP3    H225110   2.632   3.489   1.370 -0.7825  0.6875  1.4410
 1159TIP3   OH225111   1.064   5.442   7.505 -0.4914  0.1010 -0.1622
 1159TIP3    H125112   1.071   5.355   7.467 -0.3433  0.4732 -0.9958
 1159TIP3    H225113   1.043   5.426   7.597 -0.0456 -0.8175 -0.2121
 1160TIP3   OH225114   0.927   4.163   6.768  0.0702  0.0925 -0.2619
 1160TIP3    H125115   0.978   4.120   6.700 -0.7654 -2.3906  0.6184
 1160TIP3    H225116   0.837   4.133   6.753 -0.2473  0.1495  1.4514
 1161TIP3   OH225117   2.687   2.620   7.203 -0.0510  0.1068 -0.1016
 1161TIP3    H125118   2.697   2.566   7.281 -0.0087 -1.3835 -1.1214
 1161TIP3    H225119   2.743   2.696   7.219 -1.8752  0.9784  2.3112
 1162TIP3   OH225120   4.308   1.561   8.181  0.1515  0.5314  0.4257
 1162TIP3    H125121   4.311   1.648   8.221  2.5794  1.4973 -1.7528
 1162TIP3    H225122   4.396   1.525   8.195 -0.8721 -1.6773  1.4437
 1163TIP3   OH225123   1.857   1.672   0.322  0.8018  0.3799  0.6992
 1163TIP3    H125124   1.822   1.689   0.409  0.4174  1.6615  0.2926
 1163TIP3    H225125   1.869   1.577   0.320 -2.3083 -0.0662  0.9677
 1164TIP3   OH225126   3.233   1.957   1.374  0.2719  0.2903 -0.0924
 1164TIP3    H125127   3.271   2.015   1.441  0.5957 -1.0320  0.8807
 1164TIP3    H225128   3.156   2.005   1.343 -0.0541  0.7947  1.4358
 1165TIP3   OH225129   5.615   6.000   0.690 -0.2628  0.1254  0.1318
 1165TIP3    H125130   5.663   5.938   0.745 -2.4833  0.6448  2.7508
 1165TIP3    H225131   5.551   5.946   0.643  1.0934 -0.2049 -1.3755
 1166TIP3   OH225132   6.371   3.177   1.674 -0.7923  0.7149  0.0236
 1166TIP3    H125133   6.441   3.201   1.614 -0.9618  0.2942 -0.3453
 1166TIP3    H225134   6.317   3.255   1.681 -1.3597  0.4450 -1.1926
 1167TIP3   OH225135   1.002   4.023   5.791  0.3376  0.0136  0.2967
 1167TIP3    H125136   1.072   3.963   5.813 -0.8487 -0.9499  1.5559
 1167TIP3    H225137   0.987   4.010   5.698 -0.0780 -1.8541  0.6017
 1168TIP3   OH225138   1.373   4.352   6.270  0.8348  0.5587 -0.1600
 1168TIP3    H125139   1.433   4.424   6.288  0.6079  1.1421 -1.6373
 1168TIP3    H225140   1.419   4.298   6.206 -0.0203  0.7532 -0.9435
 1169TIP3   OH225141   0.803   4.314   6.466  0.1704  0.8624  0.2358
 1169TIP3    H125142   0.766   4.331   6.379  0.6255 -0.1146 -0.1640
 1169TIP3    H225143   0.772   4.226   6.488  0.0685  1.0999  1.0606
 1170TIP3   OH225144   2.054   3.808   6.508  0.5827  0.9189 -0.3765
 1170TIP3    H125145   2.076   3.802   6.415  1.0274  0.9840 -0.2761
 1170TIP3    H225146   2.106   3.881   6.541  2.4100 -0.7256  0.4867
 1171TIP3   OH225147   2.985   3.897   8.262 -0.3627  0.1384  0.0998
 1171TIP3    H125148   3.032   3.864   8.186  1.1529  0.9270  0.6600
 1171TIP3    H225149   3.049   3.893   8.334 -2.1286 -1.7194  1.6186
 1172TIP3   OH225150   0.275   6.517   0.487 -0.0557 -0.0640 -0.3130
 1172TIP3    H125151   0.357   6.546   0.527 -0.2181 -0.4753  0.3132
 1172TIP3    H225152   0.281   6.547   0.396  0.4127  0.6532 -0.0451
 1173TIP3   OH225153   2.421   3.227   6.478  0.4257  0.2276  0.0270
 1173TIP3    H125154   2.454   3.315   6.461 -0.4817  0.7107  0.7238
 1173TIP3    H225155   2.333   3.226   6.440  0.1122 -0.0969  0.7379
 1174TIP3   OH225156   1.977   6.285   6.774  0.3353  0.1724 -0.0484
 1174TIP3    H125157   1.932   6.265   6.856 -0.5510 -0.0243 -0.5785
 1174TIP3    H225158   2.056   6.232   6.776  1.2357  1.5395  1.5137
 1175TIP3   OH225159   6.473   3.573   6.556 -0.1970 -0.0267  0.1769
 1175TIP3    H125160   6.382   3.578   6.524 -0.4844 -0.7085  0.8743
 1175TIP3    H225161   6.486   3.480   6.575 -0.1327  0.4200  2.3523
 1176TIP3   OH225162   1.390   4.053   6.911 -0.3165 -0.6645 -0.1176
 1176TIP3    H125163   1.342   4.134   6.893 -0.2699 -0.5460  0.2697
 1176TIP3    H225164   1.334   4.005   6.972  0.8509  0.2888  1.7773
 1177TIP3   OH225165   2.154   6.422   6.526  0.1030  0.4465 -0.1692
 1177TIP3    H125166   2.104   6.342   6.510 -0.2146  0.5642  0.2321
 1177TIP3    H225167   2.116   6.458   6.606  0.3664  0.9058 -0.2526
 1178TIP3   OH225168   1.944   3.788   6.950 -0.0879  0.0970  0.4517
 1178TIP3    H125169   1.910   3.836   7.025 -1.5036  0.7032 -0.5604
 1178TIP3    H225170   1.988   3.712   6.988 -2.1431 -0.4379  1.8049
 1179TIP3   OH225171   0.132   3.167   6.004 -0.1963  0.0858  0.1218
 1179TIP3    H125172   0.130   3.151   6.098 -3.6799  0.4773  0.1750
 1179TIP3    H225173   0.173   3.088   5.968  1.4010  0.0424  1.9464
 1180TIP3   OH225174   2.465   2.077   7.191  0.7389 -0.4395 -0.1556
 1180TIP3    H125175   2.379   2.063   7.229  1.4991 -2.1529  1.0228
 1180TIP3    H225176   2.520   2.008   7.230  3.2391  2.1113  1.0188
 1181TIP3   OH225177   1.789   3.014   2.061  0.0539 -0.0135  0.3376
 1181TIP3    H125178   1.746   3.027   2.145  2.3751  3.3731  1.1000
 1181TIP3    H225179   1.738   3.066   1.999  0.4863  0.4867  0.3957
 1182TIP3   OH225180   2.162   2.218   6.763 -0.0517 -0.0213  0.1241
 1182TIP3    H125181   2.150   2.133   6.806  1.4229 -0.2614  0.0923
 1182TIP3    H225182   2.250   2.246   6.791  0.2198  0.6170 -1.3536
 1183TIP3   OH225183   1.997   2.224   6.140 -0.3536  0.5194 -0.7354
 1183TIP3    H125184   2.063   2.272   6.189 -0.1739 -1.2863  0.8463
 1183TIP3    H225185   1.961   2.161   6.202 -2.2660  0.2109 -2.0848
 1184TIP3   OH225186   0.906   5.057   6.268 -0.2462 -0.1952  0.4769
 1184TIP3    H125187   0.950   4.994   6.211  2.1188  2.0644 -0.3084
 1184TIP3    H225188   0.849   5.107   6.209 -1.5887 -1.1091  0.9788
 1185TIP3   OH225189   7.103   5.857   0.009 -0.1742 -0.1473  0.0076
 1185TIP3    H125190   7.030   5.896   0.058 -0.8215 -1.4944  0.1465
 1185TIP3    H225191   7.157   5.816   0.076  0.0755 -0.1707 -0.2119
 1186TIP3   OH225192   7.268   7.029   0.684 -0.1662 -0.3435  0.1184
 1186TIP3    H125193   7.322   7.049   0.608 -0.0075  2.0062  0.8174
 1186TIP3    H225194   7.309   6.952   0.724  0.0205 -1.2957 -1.8789
 1187TIP3   OH225195   4.502   1.705   7.656  0.3804 -0.2708 -0.0571
 1187TIP3    H125196   4.550   1.746   7.585  0.8429  1.9156  1.4637
 1187TIP3    H225197   4.533   1.749   7.735 -3.0715  0.2052  1.1196
 1188TIP3   OH225198   5.087   3.543   8.247  0.5206  0.8196  0.3421
 1188TIP3    H125199   5.176   3.516   8.269  0.3171  1.4069  1.9619
 1188TIP3    H225200   5.092   3.639   8.244 -0.6931  1.0152  3.4007
 1189TIP3   OH225201   1.962   1.420   0.327 -0.1799  0.2199 -0.3064
 1189TIP3    H125202   2.037   1.378   0.286  0.6779  0.0054  1.4782
 1189TIP3    H225203   1.921   1.352   0.380  0.0799  1.1066  1.0507
 1190TIP3   OH225204   5.504   4.278   7.073  0.2358 -0.7115  0.2119
 1190TIP3    H125205   5.597   4.296   7.056 -0.2804  1.3468 -0.5790
 1190TIP3    H225206   5.466   4.267   6.986 -0.8192  1.4564  0.3654
 1191TIP3   OH225207   1.239   3.873   5.868  0.4019 -0.5608  0.1505
 1191TIP3    H125208   1.319   3.909   5.907 -1.8761  0.9509  3.7947
 1191TIP3    H225209   1.251   3.778   5.870  1.6820 -0.3852  1.6891
 1192TIP3   OH225210   5.973   0.747   1.461 -0.2882  0.0450  0.1114
 1192TIP3    H125211   5.921   0.755   1.541 -1.5901 -1.9240 -0.5150
 1192TIP3    H225212   5.995   0.838   1.439 -0.1955  0.6435  2.4921
 1193TIP3   OH225213   5.661   3.794   0.026  0.2981  0.1735  0.3418
 1193TIP3    H125214   5.579   3.748   0.043  0.9496 -1.0809  0.1856
 1193TIP3    H225215   5.674   3.786  -0.069 -0.3729  2.0615  0.0783
 1194TIP3   OH225216   2.914   5.023   6.536 -0.3058  0.4794 -0.6185
 1194TIP3    H125217   2.933   4.947   6.592  2.0347 -0.0576 -2.0340
 1194TIP3    H225218   2.918   4.988   6.447  0.5587  2.2015 -1.2780
 1195TIP3   OH225219   1.576   3.642   6.595  0.3749 -0.7573  0.1526
 1195TIP3    H125220   1.502   3.700   6.609 -0.0209 -1.0304 -0.7266
 1195TIP3    H225221   1.644   3.698   6.558 -0.0029 -0.8376 -0.6840
 1196TIP3   OH225222   2.496   3.702   8.331 -0.1947  0.3141  0.7229
 1196TIP3    H125223   2.541   3.643   8.391  0.6610 -0.0622 -0.2913
 1196TIP3    H225224   2.561   3.768   8.308  0.0308 -0.5452 -1.1848
 1197TIP3   OH225225   3.730   3.835   1.349 -0.4684 -0.0394 -0.2215
 1197TIP3    H125226   3.690   3.751   1.368  0.2352 -0.0379  1.3074
 1197TIP3    H225227   3.662   3.900   1.370 -1.3504 -0.2329 -2.3122
 1198TIP3   OH225228   0.134   4.303   6.129  0.7240 -0.6383 -0.0909
 1198TIP3    H125229   0.172   4.338   6.049 -0.6735 -1.3096 -1.0896
 1198TIP3    H225230   0.054   4.354   6.143  0.3674 -1.2660  0.2385
 1199TIP3   OH225231   1.468   3.644   1.169 -0.2893 -0.0643 -0.4124
 1199TIP3    H125232   1.468   3.728   1.123  1.0077 -0.2712 -0.7935
 1199TIP3    H225233   1.543   3.596   1.133  1.2105  0.0708  2.4116
 1200TIP3   OH225234   1.356   4.838   7.806 -0.9274 -0.0257 -0.2939
 1200TIP3    H125235   1.360   4.932   7.823 -0.7332 -0.3265  1.4564
 1200TIP3    H225236   1.280   4.827   7.750  0.2241  1.4038 -2.2067
 1201TIP3   OH225237   1.203   4.476   8.322  0.3558  0.4632 -0.4398
 1201TIP3    H125238   1.278   4.535   8.315  0.0356  0.7006 -2.0916
 1201TIP3    H225239   1.178   4.459   8.232 -0.5906 -0.8949  0.0653
 1202TIP3   OH225240   3.629   4.461   6.822 -0.0055  0.0620 -0.0225
 1202TIP3    H125241   3.703   4.433   6.768 -0.1722 -1.1118  0.3417
 1202TIP3    H225242   3.668   4.486   6.906  0.0000 -0.3677  0.1031
 1203TIP3   OH225243   4.737   2.810   6.986  0.1592 -0.3968 -0.1680
 1203TIP3    H125244   4.653   2.770   6.965 -0.4491 -0.3410  2.0922
 1203TIP3    H225245   4.802   2.743   6.965 -0.4698 -0.6934 -1.2257
 1204TIP3   OH225246   6.379   3.854   7.201 -0.1186  0.2142  0.8546
 1204TIP3    H125247   6.471   3.836   7.186 -0.3623 -0.5740  0.3263
 1204TIP3    H225248   6.374   3.950   7.208  0.5254  0.3408 -0.4414
 1205TIP3   OH225249   2.206   3.999   6.605  0.2465  0.1484  0.2125
 1205TIP3    H125250   2.299   3.984   6.585  0.0065 -1.3433  0.1606
 1205TIP3    H225251   2.204   4.086   6.643  1.7375  0.0434  0.5923
 1206TIP3   OH225252   6.879   2.963   1.407 -0.8366 -0.0135  0.5304
 1206TIP3    H125253   6.841   2.977   1.320 -0.1389  0.1874  0.2506
 1206TIP3    H225254   6.804   2.959   1.466 -1.2273  1.6927  0.1664
 1207TIP3   OH225255   1.220   0.336   7.687 -0.4385  0.1676 -0.2720
 1207TIP3    H125256   1.171   0.288   7.620 -0.3159 -0.8579  0.3532
 1207TIP3    H225257   1.253   0.268   7.745 -3.1407  1.1865  2.6286
 1208TIP3   OH225258   1.858   3.212   6.846  0.5987  0.2852 -0.2363
 1208TIP3    H125259   1.817   3.154   6.782  0.9572 -1.2029  0.8328
 1208TIP3    H225260   1.784   3.253   6.892  0.3312  0.2160 -0.6030
 1209TIP3   OH225261   2.146   1.182   0.090 -0.3643 -0.3690 -0.3498
 1209TIP3    H125262   2.111   1.102   0.128 -2.0862  0.6991  0.3695
 1209TIP3    H225263   2.181   1.231   0.165 -1.9953  0.8551 -0.3471
 1210TIP3   OH225264   0.454   1.478   6.675  0.4116 -0.4737  0.6093
 1210TIP3    H125265   0.449   1.394   6.719  1.8530 -2.0758 -2.1075
 1210TIP3    H225266   0.525   1.524   6.719 -0.4079 -0.6511  2.1354
 1211TIP3   OH225267   0.227   4.777   7.743  0.2219  0.3288 -0.3299
 1211TIP3    H125268   0.172   4.796   7.819 -0.5220 -0.4617 -0.6567
 1211TIP3    H225269   0.213   4.684   7.726  2.7449 -0.2168  0.4218
 1212TIP3   OH225270   1.206   4.469   7.082 -0.6575 -0.0139  0.7894
 1212TIP3    H125271   1.287   4.518   7.067 -0.4190 -0.8972 -0.7942
 1212TIP3    H225272   1.136   4.535   7.073 -0.3144  0.1347 -0.9604
 1213TIP3   OH225273   7.239   4.054   6.538  0.0718 -0.2457 -0.3481
 1213TIP3    H125274   7.281   4.015   6.462 -1.0016 -1.9690 -0.0800
 1213TIP3    H225275   7.236   4.148   6.519  2.0804 -0.3550 -1.2999
 1214TIP3   OH225276   1.698   4.464   7.332 -0.2043  0.0857  0.5347
 1214TIP3    H125277   1.721   4.450   7.424  0.9595 -0.3365  0.1880
 1214TIP3    H225278   1.780   4.449   7.284 -0.8776 -0.0294 -0.5963
 1215TIP3   OH225279   3.755   3.054   0.434 -0.3344 -0.0318  0.1885
 1215TIP3    H125280   3.736   2.982   0.494 -0.9728 -0.6866 -0.7780
 1215TIP3    H225281   3.764   3.131   0.490 -1.6135 -0.5007  1.0664
 1216TIP3   OH225282   1.377   4.675   8.030  0.3461  0.3441 -0.4299
 1216TIP3    H125283   1.316   4.606   8.056  0.0087  1.2710  1.2415
 1216TIP3    H225284   1.336   4.714   7.952 -0.9403  0.6186  0.3650
 1217TIP3   OH225285   3.949   4.847   1.140 -0.4888  0.6145 -0.3824
 1217TIP3    H125286   4.040   4.819   1.126 -0.9232 -0.9953 -0.0766
 1217TIP3    H225287   3.939   4.849   1.235 -1.5079 -1.7481 -0.4059
 1218TIP3   OH225288   3.435   4.768   0.782  0.1313  0.2085  0.0404
 1218TIP3    H125289   3.483   4.705   0.729  0.1851 -1.1619  1.6782
 1218TIP3    H225290   3.380   4.715   0.839 -0.2947  1.6521  1.0200
 1219TIP3   OH225291   6.038   2.016   6.783 -0.4918 -0.0155 -0.2743
 1219TIP3    H125292   6.022   1.923   6.766  0.8903 -0.4992  0.9622
 1219TIP3    H225293   6.033   2.024   6.878 -1.5110  1.3638 -0.4273
 1220TIP3   OH225294   3.721   3.374   6.280  0.2096 -0.0238 -0.2921
 1220TIP3    H125295   3.661   3.302   6.262 -0.1956 -0.6159  3.0469
 1220TIP3    H225296   3.807   3.333   6.286  0.1564 -0.0466  0.3593
 1221TIP3   OH225297   3.058   4.617   7.385 -0.5051 -0.0899 -0.1954
 1221TIP3    H125298   3.078   4.678   7.456 -0.6514 -0.4448  0.1495
 1221TIP3    H225299   2.990   4.662   7.335 -0.1288  0.3270 -0.3337
 1222TIP3   OH225300   3.245   2.737   6.295  0.1654  0.2154  0.6815
 1222TIP3    H125301   3.299   2.762   6.220 -0.4705  0.5917  0.3413
 1222TIP3    H225302   3.254   2.642   6.301  0.4219  0.2134  0.2806
 1223TIP3   OH225303   0.972   3.688   6.604  1.0076  0.1058 -0.3789
 1223TIP3    H125304   0.935   3.670   6.690  1.4605 -0.9431 -0.4031
 1223TIP3    H225305   1.064   3.664   6.611  1.0082 -0.1675 -1.2178
 1224TIP3   OH225306   2.281   2.932   6.511 -0.6026 -0.2624  0.1726
 1224TIP3    H125307   2.186   2.916   6.510 -0.7196  0.4492 -1.4676
 1224TIP3    H225308   2.317   2.862   6.456 -0.2123 -0.2651  0.4306
 1225TIP3   OH225309   2.438   3.744   5.820 -0.2649 -0.3445  0.0125
 1225TIP3    H125310   2.461   3.752   5.727  1.5199 -0.9000  0.3844
 1225TIP3    H225311   2.459   3.830   5.857 -1.3356 -0.0017 -0.1648
 1226TIP3   OH225312   6.036   1.238   7.560  0.3452 -0.2876  0.8403
 1226TIP3    H125313   5.984   1.293   7.618 -0.1412 -0.0501  0.1897
 1226TIP3    H225314   6.101   1.297   7.522 -0.5938  0.0081 -0.3646
 1227TIP3   OH225315   4.745   1.836   6.431 -0.4452  0.5189  0.0866
 1227TIP3    H125316   4.744   1.778   6.508 -0.2434  0.7628  0.2766
 1227TIP3    H225317   4.739   1.778   6.356  2.0272  0.0731  0.1854
 1228TIP3   OH225318   2.943   0.387   7.182 -0.3979 -0.2236 -0.1247
 1228TIP3    H125319   2.932   0.293   7.200  1.7527 -0.5540 -0.4536
 1228TIP3    H225320   3.018   0.413   7.236  0.6471  0.7248 -2.0005
 1229TIP3   OH225321   2.740   1.964   7.001  0.4853  0.0140 -0.3002
 1229TIP3    H125322   2.760   1.878   7.037 -1.9334 -0.5682 -0.2679
 1229TIP3    H225323   2.694   2.009   7.072 -0.0294  0.6027 -0.9960
 1230TIP3   OH225324   3.915   2.317   8.348 -0.2085 -0.2602  0.0583
 1230TIP3    H125325   3.938   2.410   8.336 -0.8696 -0.1177 -0.0949
 1230TIP3    H225326   3.985   2.283   8.405 -0.4901  0.5686  0.9140
 1231TIP3   OH225327   3.884   1.967   1.275 -0.5231 -0.4429 -0.3092
 1231TIP3    H125328   3.798   1.969   1.316  0.7599  2.8832  2.5111
 1231TIP3    H225329   3.937   1.914   1.335  0.4044  1.1601  0.3214
 1232TIP3   OH225330   2.024   2.672   6.714  0.6627 -0.1725 -0.5508
 1232TIP3    H125331   2.015   2.670   6.809 -0.3837 -2.4888 -0.6682
 1232TIP3    H225332   2.039   2.581   6.689  2.1157  0.5549 -2.5120
 1233TIP3   OH225333   1.365   3.845   6.671 -0.1261  0.1316  0.2828
 1233TIP3    H125334   1.377   3.852   6.766  1.7952 -1.6342  0.1965
 1233TIP3    H225335   1.281   3.800   6.661  0.0854 -0.4803  1.1709
 1234TIP3   OH225336   3.065   1.591   8.355  0.7120 -0.2150 -0.6509
 1234TIP3    H125337   3.084   1.583   8.262 -1.1953  0.4901 -1.1150
 1234TIP3    H225338   2.983   1.641   8.359  1.1872  0.4587  1.4175
 1235TIP3   OH225339   2.280   2.764   7.088  0.1260 -0.5202  0.2355
 1235TIP3    H125340   2.304   2.671   7.092  1.8777 -0.2352 -2.3971
 1235TIP3    H225341   2.348   2.808   7.139  1.0775 -0.4106 -1.1058
 1236TIP3   OH225342   3.069   2.191   6.392  0.0256  0.6636  0.0273
 1236TIP3    H125343   2.992   2.199   6.449  0.5533  2.0787  0.5703
 1236TIP3    H225344   3.143   2.203   6.451  0.7805 -2.9973 -0.0841
 1237TIP3   OH225345   3.996   2.597   7.997  0.5524 -0.1695  0.1009
 1237TIP3    H125346   4.035   2.518   8.035  2.7582  1.1672  0.7176
 1237TIP3    H225347   3.992   2.578   7.903  0.1041 -1.4024  0.3578
 1238TIP3   OH225348   2.375   2.031   0.475  0.2047 -0.2604  0.2744
 1238TIP3    H125349   2.330   1.947   0.465 -0.1660 -0.5243  3.4365
 1238TIP3    H225350   2.326   2.076   0.544  0.0629  2.8213 -1.7599
 1239TIP3   OH225351   2.643   2.959   6.565  0.5075 -0.0056  0.5640
 1239TIP3    H125352   2.694   3.037   6.588  1.7685 -0.8875  0.7971
 1239TIP3    H225353   2.598   2.935   6.646 -0.3969  0.8342  0.3310
 1240TIP3   OH225354   2.618   1.869   7.274 -0.8969 -0.1183 -0.0090
 1240TIP3    H125355   2.612   1.774   7.270 -0.9640 -0.0840 -0.6837
 1240TIP3    H225356   2.647   1.887   7.364  3.4388 -0.9893 -1.1302
 1241TIP3   OH225357   3.848   3.801   7.908 -0.6940  0.2651  0.0362
 1241TIP3    H125358   3.858   3.813   8.003 -0.3576  0.2682  0.0000
 1241TIP3    H225359   3.754   3.789   7.895 -0.5909 -1.1891  0.5327
 1242TIP3   OH225360   5.929   3.574   7.120  0.6060  0.0936  0.8838
 1242TIP3    H125361   6.006   3.519   7.107  0.4107 -0.1317  0.6772
 1242TIP3    H225362   5.939   3.609   7.208 -0.8640 -2.8006  2.2737
 1243TIP3   OH225363   2.306   0.706   6.563  0.6870 -0.3596  0.8485
 1243TIP3    H125364   2.392   0.749   6.564  0.9726 -0.8339 -1.2380
 1243TIP3    H225365   2.268   0.727   6.649  2.4558  0.7125  1.4042
 1244TIP3   OH225366   4.446   3.202   6.697  0.3948 -0.1915 -0.1108
 1244TIP3    H125367   4.497   3.279   6.720  0.2201  0.4770 -1.9188
 1244TIP3    H225368   4.355   3.227   6.715  0.4487 -0.4504  0.5539
 1245TIP3   OH225369   5.740   3.327   6.706 -0.7957  0.0403  0.0732
 1245TIP3    H125370   5.725   3.366   6.792 -0.4792  0.6711 -0.1498
 1245TIP3    H225371   5.693   3.384   6.646  1.3699  1.3020 -0.4887
 1246TIP3   OH225372   4.330   2.485   7.405 -0.3370 -0.3713 -0.1175
 1246TIP3    H125373   4.372   2.532   7.477  0.1246  0.1309 -0.7140
 1246TIP3    H225374   4.236   2.489   7.425 -0.3953  1.7255 -0.7216
 1247TIP3   OH225375   4.896   0.488   0.596  0.1526  0.0115  0.3274
 1247TIP3    H125376   4.921   0.557   0.534  0.3899 -2.0389 -1.9678
 1247TIP3    H225377   4.977   0.439   0.610  0.3848  1.1199  3.2430
 1248TIP3   OH225378   2.613   1.660   7.824  0.1600  0.5257 -0.5104
 1248TIP3    H125379   2.658   1.601   7.884  0.3385  0.4861 -0.6830
 1248TIP3    H225380   2.663   1.654   7.743 -0.2455  0.3658 -0.7495
 1249TIP3   OH225381   5.695   4.507   6.852 -0.1012  0.2713 -0.0919
 1249TIP3    H125382   5.775   4.484   6.898 -0.1415 -0.6597 -0.4897
 1249TIP3    H225383   5.644   4.426   6.849  0.4260  0.0079 -2.8626
 1250TIP3   OH225384   3.021   3.317   8.352  0.1787 -0.5585 -0.5196
 1250TIP3    H125385   2.952   3.341   8.290 -0.3467 -0.8733 -0.0567
 1250TIP3    H225386   2.984   3.336   8.438  1.5411  1.5118 -0.3590
 1251TIP3   OH225387   1.940   2.202   6.524  0.8203  0.0444 -0.2789
 1251TIP3    H125388   1.948   2.265   6.596 -0.0052  1.3944 -1.3553
 1251TIP3    H225389   2.011   2.227   6.464 -0.6809  1.1693 -1.6140
 1252TIP3   OH225390   2.463   2.665   8.230 -0.0684 -0.1260 -0.1372
 1252TIP3    H125391   2.556   2.687   8.241  0.0517  0.4847 -2.1474
 1252TIP3    H225392   2.429   2.735   8.174 -2.0840  0.4237  1.7068
 1253TIP3   OH225393   3.143   3.249   6.642  0.3094  0.3527  0.5047
 1253TIP3    H125394   3.208   3.319   6.642  0.2249  0.4750  2.4188
 1253TIP3    H225395   3.193   3.168   6.647  0.3610  0.3440 -0.1088
 1254TIP3   OH225396   2.791   3.492   6.471  0.0026 -0.2160  0.0281
 1254TIP3    H125397   2.845   3.538   6.407  1.2240 -0.8440  0.5924
 1254TIP3    H225398   2.796   3.400   6.446 -2.1845 -0.0990 -0.9118
 1255TIP3   OH225399   3.920   3.667   6.855 -0.3529 -0.5136 -0.1417
 1255TIP3    H125400   3.955   3.611   6.785 -1.3465 -1.3702  0.0526
 1255TIP3    H225401   3.938   3.620   6.936  0.4437  0.3005  0.1678
 1256TIP3   OH225402   3.803   3.207   7.291 -0.0508 -0.2135 -0.0856
 1256TIP3    H125403   3.765   3.182   7.206 -2.0408 -0.5082  0.8630
 1256TIP3    H225404   3.818   3.123   7.335 -1.6022  0.0160  0.9233
 1257TIP3   OH225405   2.421   2.297   6.432 -0.6141  0.3078  0.2979
 1257TIP3    H125406   2.444   2.390   6.428 -0.9899  0.3714 -0.5920
 1257TIP3    H225407   2.473   2.257   6.361 -0.5569 -0.1349  0.5916
 1258TIP3   OH225408   2.858   1.838   6.769 -0.1063  0.2762 -0.0991
 1258TIP3    H125409   2.812   1.859   6.851 -1.3404  0.7324 -0.8888
 1258TIP3    H225410   2.788   1.810   6.709  1.1022 -3.0338 -0.0879
 1259TIP3   OH225411   3.445   4.338   0.675 -0.2042  0.2195  0.1364
 1259TIP3    H125412   3.362   4.357   0.720  1.0712  2.3257  1.7036
 1259TIP3    H225413   3.469   4.250   0.704 -3.3449 -1.7120 -2.6899
 1260TIP3   OH225414   7.009   3.647   7.035  0.1169 -0.0663 -0.5263
 1260TIP3    H125415   7.064   3.698   6.976  0.3002 -0.2426 -0.5059
 1260TIP3    H225416   7.059   3.567   7.052  0.2071  0.1235  0.1209
 1261TIP3   OH225417   3.517   2.890   6.456  0.1657  1.0686  0.2618
 1261TIP3    H125418   3.534   2.818   6.517 -1.4105  1.4471  1.1597
 1261TIP3    H225419   3.458   2.949   6.503 -0.4758  1.7500 -1.3538
 1262TIP3   OH225420   1.207   3.623   6.714  0.3804  0.2472  0.1918
 1262TIP3    H125421   1.246   3.598   6.630  0.4493 -1.0172  0.5876
 1262TIP3    H225422   1.272   3.597   6.779 -0.6319 -0.8258  0.7784
 1263TIP3   OH225423   5.277   4.556   8.295  0.3027 -0.3826  0.1466
 1263TIP3    H125424   5.250   4.523   8.210  0.7282 -1.5061  0.4506
 1263TIP3    H225425   5.207   4.529   8.355  0.6400 -0.7174  0.3896
 1264TIP3   OH225426   4.653   5.135   0.369  0.4096  0.0203 -0.4445
 1264TIP3    H125427   4.593   5.209   0.353  0.4163  0.3051  0.8170
 1264TIP3    H225428   4.740   5.175   0.369  0.7555 -0.6230 -3.7857
 1265TIP3   OH225429   4.543   3.600   7.364  0.1108 -0.4613 -0.2126
 1265TIP3    H125430   4.637   3.613   7.352 -0.0222  0.6350 -0.1163
 1265TIP3    H225431   4.531   3.506   7.354  1.6201 -1.0178  2.4469
 1266TIP3   OH225432   4.089   1.618   6.752 -0.1892  0.0625 -0.0644
 1266TIP3    H125433   4.146   1.586   6.822 -1.2036 -0.2099  0.6382
 1266TIP3    H225434   4.056   1.539   6.710  0.7018  0.2207 -1.1067
 1267TIP3   OH225435   2.822   4.124   8.409  0.7820 -0.1418  0.0841
 1267TIP3    H125436   2.853   4.213   8.422  0.8423 -0.4000  1.7849
 1267TIP3    H225437   2.898   4.069   8.426  1.1004 -0.4838 -2.2647
 1268TIP3   OH225438   3.100   5.300   7.013 -0.1293  0.6617  0.1030
 1268TIP3    H125439   3.070   5.238   7.080 -2.0379  1.6526  0.2164
 1268TIP3    H225440   3.032   5.298   6.946  1.0063  0.8323 -1.0809
 1269TIP3   OH225441   3.340   3.239   7.135  0.2960 -0.4941  0.1256
 1269TIP3    H125442   3.327   3.229   7.040  0.5826  2.8953 -0.3196
 1269TIP3    H225443   3.379   3.326   7.145  3.0596 -1.9666  3.1452
 1270TIP3   OH225444   3.123   1.686   7.699  0.5569 -0.1600 -0.3057
 1270TIP3    H125445   3.217   1.676   7.714  0.1325 -2.1889  1.2950
 1270TIP3    H225446   3.115   1.764   7.644  3.1456  0.1879 -0.2384
 1271TIP3   OH225447   3.453   5.024   7.100  0.5307  0.1429  0.0990
 1271TIP3    H125448   3.542   5.011   7.066  0.1617 -0.4661 -0.6483
 1271TIP3    H225449   3.400   5.041   7.023 -0.1153 -0.1302  0.4775
 1272TIP3   OH225450   3.965   0.853   7.830 -0.2833 -0.2394 -0.2991
 1272TIP3    H125451   3.979   0.842   7.736  0.4118  0.3480 -0.2652
 1272TIP3    H225452   3.870   0.860   7.839 -0.2444  1.8445 -1.2079
 1273TIP3   OH225453   3.932   1.143   8.407 -0.3703  0.9359  0.0282
 1273TIP3    H125454   3.971   1.057   8.425  1.0598  1.0086 -2.5428
 1273TIP3    H225455   4.006   1.198   8.380 -1.7313  2.1259 -1.3464
 1274TIP3   OH225456   2.899   2.446   6.994  0.4399  0.0783 -0.5979
 1274TIP3    H125457   2.894   2.359   7.034  1.7026 -0.5298 -1.6954
 1274TIP3    H225458   2.853   2.437   6.911  2.4968 -0.2017 -1.7548
 1275TIP3   OH225459   3.750   2.629   7.027  0.8933 -0.3548 -0.2787
 1275TIP3    H125460   3.668   2.584   7.009  0.2402  0.4242  0.6888
 1275TIP3    H225461   3.769   2.678   6.947 -0.5449  0.9122  0.1362
 1276TIP3   OH225462   2.780   3.495   6.754 -0.3305  0.3495  0.3385
 1276TIP3    H125463   2.688   3.471   6.765  0.2819 -2.5218 -0.3935
 1276TIP3    H225464   2.790   3.512   6.661  0.1707 -0.6735  0.2019
 1277TIP3   OH225465   2.143   1.705   6.580 -0.4192  0.1324 -0.6490
 1277TIP3    H125466   2.113   1.794   6.600  1.6966  0.5743  0.7393
 1277TIP3    H225467   2.074   1.668   6.526 -1.8008  2.2883 -0.4200
 1278TIP3   OH225468   2.888   0.741   0.170  0.3048 -0.0234  0.5810
 1278TIP3    H125469   2.982   0.743   0.149  0.4281  0.4796  1.1566
 1278TIP3    H225470   2.884   0.764   0.263 -0.4752  1.1332  0.2745
 1279TIP3   OH225471   2.267   3.067   6.765 -0.0136 -0.9812 -0.3672
 1279TIP3    H125472   2.238   3.154   6.739  3.1475  0.1014 -0.5818
 1279TIP3    H225473   2.259   3.014   6.686 -1.0751 -0.6493 -0.4865
 1280TIP3   OH225474   2.701   2.441   6.774  0.2721  0.2413  0.3454
 1280TIP3    H125475   2.681   2.347   6.769  1.6568 -0.2305  2.6982
 1280TIP3    H225476   2.616   2.484   6.771 -0.5010 -1.2158  0.9942
 1281TIP3   OH225477   1.845   3.379   6.570 -0.0215  0.4483 -0.1452
 1281TIP3    H125478   1.868   3.412   6.657  0.5007  1.6709 -0.7346
 1281TIP3    H225479   1.902   3.304   6.556  0.4656  0.7510  0.2360
 1282TIP3   OH225480   3.372   3.058   6.654 -0.4899  0.0736  0.2474
 1282TIP3    H125481   3.438   3.116   6.694  2.4087 -1.4008 -2.2084
 1282TIP3    H225482   3.377   2.977   6.705 -0.8135  0.1745  0.4364
 1283TIP3   OH225483   0.682   4.051   6.725 -0.4965  0.5225 -0.3278
 1283TIP3    H125484   0.680   4.039   6.630  0.4264  1.5369 -0.4870
 1283TIP3    H225485   0.590   4.065   6.749 -0.8387 -0.6156 -0.9462
 1284TIP3   OH225486   2.978   0.652   1.642  0.0895 -0.2737 -0.4076
 1284TIP3    H125487   3.003   0.597   1.716  0.9925  0.4437 -0.1747
 1284TIP3    H225488   2.994   0.742   1.671 -0.2831  0.0583 -1.1942
 1285TIP3   OH225489   3.206   3.151   7.910 -0.1963 -0.4802  0.2584
 1285TIP3    H125490   3.209   3.150   7.814  2.5322  0.6983  0.2621
 1285TIP3    H225491   3.207   3.059   7.935  1.8949 -0.8032 -0.8735
 1286TIP3   OH225492   3.557   1.556   6.661  0.4640 -0.0192 -0.0503
 1286TIP3    H125493   3.566   1.484   6.723  2.0520 -0.4131 -0.7140
 1286TIP3    H225494   3.625   1.540   6.595  1.8885  2.9002  0.6030
 1287TIP3   OH225495   2.444   3.392   6.192  0.6732 -0.1081  0.1490
 1287TIP3    H125496   2.480   3.438   6.268  1.2219  0.2904 -0.3494
 1287TIP3    H225497   2.519   3.344   6.155 -0.4661 -3.8135  2.3668
 1288TIP3   OH225498   3.316   2.115   1.586  0.3145 -0.1172  0.2508
 1288TIP3    H125499   3.285   2.073   1.666 -0.4039  1.3015  0.7411
 1288TIP3    H225500   3.379   2.180   1.616  0.1784  0.2943 -0.3435
 1289TIP3   OH225501   4.018   3.431   0.172  0.0203 -0.0872  0.5523
 1289TIP3    H125502   4.082   3.499   0.192 -1.1740  1.3292 -0.2901
 1289TIP3    H225503   4.017   3.375   0.249  2.1313 -0.0160  0.6425
 1290TIP3   OH225504   2.433   3.805   6.841  0.1808 -0.3892 -0.2571
 1290TIP3    H125505   2.502   3.738   6.850  1.1878  0.5020 -1.1464
 1290TIP3    H225506   2.431   3.824   6.747  0.4083  1.3447  0.0751
 1291TIP3   OH225507   2.338   1.706   7.943  0.2294 -0.0798 -0.1775
 1291TIP3    H125508   2.276   1.778   7.939  0.1718 -0.0726  0.6901
 1291TIP3    H225509   2.409   1.732   7.884 -0.0885  0.4007 -0.3482
 1292TIP3   OH225510   2.809   2.664   8.005 -0.0987 -0.0894 -0.1673
 1292TIP3    H125511   2.758   2.730   8.051 -0.4214  1.0438 -2.0697
 1292TIP3    H225512   2.832   2.705   7.922  0.8757 -1.8773 -0.8237
 1293TIP3   OH225513   1.523   3.042   6.472  0.2760  0.1288 -0.2439
 1293TIP3    H125514   1.495   3.003   6.555  1.2850 -1.7511 -0.7882
 1293TIP3    H225515   1.460   3.113   6.458  0.3453  0.7615  2.3393
 1294TIP3   OH225516   3.408   2.906   6.166 -0.3526  0.2842  0.5077
 1294TIP3    H125517   3.441   2.993   6.144 -2.0861  0.4251 -1.7872
 1294TIP3    H225518   3.486   2.851   6.170  0.6267  1.6593  0.5716
 1295TIP3   OH225519   3.452   1.018   6.563 -0.1982  0.2219  0.3922
 1295TIP3    H125520   3.517   0.961   6.521  0.6544  1.2745  0.2682
 1295TIP3    H225521   3.393   0.957   6.609  0.5286 -0.7740  0.0198
 1296TIP3   OH225522   3.484   2.393   7.786  0.7070  0.0421  0.2867
 1296TIP3    H125523   3.456   2.482   7.763 -1.4921 -0.7530 -0.2556
 1296TIP3    H225524   3.579   2.399   7.796  0.5447  2.5314  0.6199
 1297TIP3   OH225525   2.843   2.190   7.104 -0.4951 -0.4363  0.3308
 1297TIP3    H125526   2.840   2.119   7.040  0.9532 -0.7635  0.5987
 1297TIP3    H225527   2.856   2.146   7.188  0.6010  0.1450  0.4757
 1298TIP3   OH225528   4.839   3.472   6.711  0.9288  0.8551  0.2144
 1298TIP3    H125529   4.903   3.497   6.644  0.9592  1.7963  0.5857
 1298TIP3    H225530   4.798   3.555   6.737 -0.2322  0.3006  0.1888
 1299TIP3   OH225531   4.810   6.844   7.761  0.4847  0.5875  0.5848
 1299TIP3    H125532   4.825   6.806   7.847  0.4517 -0.8732 -0.0418
 1299TIP3    H225533   4.716   6.842   7.749  0.4275  1.5429  0.8436
 1300TIP3   OH225534   3.701   3.664   6.295 -0.0886 -0.2518  0.6670
 1300TIP3    H125535   3.637   3.593   6.291  0.4751 -0.9419  2.8686
 1300TIP3    H225536   3.786   3.621   6.287  0.1720  0.5073 -0.8271
 1301TIP3   OH225537   4.362   2.062   6.693 -0.3026 -0.2589  0.0258
 1301TIP3    H125538   4.448   2.042   6.730 -0.5465 -2.1772 -0.4315
 1301TIP3    H225539   4.378   2.073   6.599 -0.5175 -0.3362 -0.0189
 1302TIP3   OH225540   4.137   1.451   6.988 -0.0638  0.5212 -0.3337
 1302TIP3    H125541   4.084   1.477   7.063 -1.3733  0.9622 -1.3797
 1302TIP3    H225542   4.154   1.358   7.001  0.0776  0.6944  0.7178
 1303TIP3   OH225543   3.255   4.833   6.400 -0.0676  0.4664 -0.2252
 1303TIP3    H125544   3.341   4.813   6.437 -0.4355 -0.1957  0.2840
 1303TIP3    H225545   3.200   4.759   6.427 -0.6919  0.6873 -0.8878
 1304TIP3   OH225546   3.886   4.279   6.797  0.5761 -0.1695  0.2218
 1304TIP3    H125547   3.852   4.189   6.792 -0.3998  0.2123 -0.2175
 1304TIP3    H225548   3.901   4.303   6.705  1.4539 -0.1123  0.3797
 1305TIP3   OH225549   2.566   2.316   7.058  0.3474  0.1008 -0.3441
 1305TIP3    H125550   2.661   2.326   7.053  0.7067 -2.9636 -0.6764
 1305TIP3    H225551   2.552   2.250   7.126 -1.4025 -0.8463 -1.5601
 1306TIP3   OH225552   5.490   5.313   6.937 -0.0721 -0.6156 -0.2981
 1306TIP3    H125553   5.442   5.377   6.884 -0.4658 -0.6670 -0.0062
 1306TIP3    H225554   5.457   5.326   7.026  0.6351 -0.4902 -0.0528
 1307TIP3   OH225555   2.196   3.474   6.245 -0.0069  0.3603 -0.2689
 1307TIP3    H125556   2.279   3.459   6.199 -0.0741 -0.9484  0.0138
 1307TIP3    H225557   2.212   3.443   6.334 -0.9783 -0.4700 -0.3724
 1308TIP3   OH225558   2.256   3.494   6.787 -0.7538 -0.5658 -0.2843
 1308TIP3    H125559   2.221   3.492   6.876 -2.2659  1.4308 -0.7961
 1308TIP3    H225560   2.189   3.540   6.736  1.1008  0.3119 -1.9895
 1309TIP3   OH225561   2.087   2.440   6.634  0.0478  0.1762 -0.3192
 1309TIP3    H125562   2.147   2.456   6.561  0.8098 -0.2151  0.2219
 1309TIP3    H225563   2.124   2.366   6.681 -1.6095 -0.9694 -0.7772
 1310TIP3   OH225564   1.585   4.509   8.056  0.6429  0.0919  0.1623
 1310TIP3    H125565   1.550   4.436   8.106  1.3567 -2.0369 -2.3246
 1310TIP3    H225566   1.517   4.576   8.060 -0.2004 -0.8487  2.1191
 1311TIP3   OH225567   4.535   6.324   7.760  0.7001 -0.6600 -0.4473
 1311TIP3    H125568   4.616   6.341   7.809 -0.8579  1.3276  1.5036
 1311TIP3    H225569   4.522   6.229   7.768  1.4163 -0.6198  1.5091
 1312TIP3   OH225570   3.757   4.035   6.698 -0.3305  0.0148  0.9538
 1312TIP3    H125571   3.795   4.055   6.612 -0.2709 -1.8138  0.5454
 1312TIP3    H225572   3.668   4.069   6.693  0.2536  1.5665  0.8339
 1313TIP3   OH225573   2.635   3.160   7.753 -0.1153  0.0214  0.3953
 1313TIP3    H125574   2.623   3.254   7.741 -0.6520  0.0419  1.0781
 1313TIP3    H225575   2.664   3.150   7.843 -0.9339 -0.5407  0.5964
 1314TIP3   OH225576   2.156   2.315   6.382 -0.0325  0.0626 -0.2142
 1314TIP3    H125577   2.171   2.382   6.316  1.0404  0.9498  0.8920
 1314TIP3    H225578   2.243   2.280   6.400 -0.4304 -0.7729  0.1077
 1315TIP3   OH225579   4.863   2.684   1.998 -0.5886 -0.1249  0.3483
 1315TIP3    H125580   4.793   2.749   1.989  0.4425  0.7696 -1.2449
 1315TIP3    H225581   4.938   2.734   2.030  0.1893 -0.5322 -0.8186
 1316TIP3   OH225582   3.223   2.629   0.703 -0.2070  0.1993 -0.9834
 1316TIP3    H125583   3.147   2.688   0.698 -3.3336 -3.5214  0.0795
 1316TIP3    H225584   3.233   2.596   0.613 -0.9011 -0.4716 -0.8279
 1317TIP3   OH225585   4.713   3.019   6.767  0.2161  0.5383 -0.1141
 1317TIP3    H125586   4.621   3.010   6.744  0.1267  0.8997  0.0920
 1317TIP3    H225587   4.714   3.028   6.862  0.6521 -1.7650  0.1132
 1318TIP3   OH225588   3.477   3.720   7.570  0.5591 -0.0527 -0.5820
 1318TIP3    H125589   3.412   3.748   7.635  1.9005 -2.5230  1.9549
 1318TIP3    H225590   3.434   3.648   7.523  0.7231 -0.3346 -0.3000
 1319TIP3   OH225591   2.137   3.500   5.952  0.5885  0.3206 -0.2428
 1319TIP3    H125592   2.193   3.531   5.881  1.0494  0.6121  0.2427
 1319TIP3    H225593   2.177   3.418   5.980  1.4763  1.1143  0.8946
 1320TIP3   OH225594   1.928   1.548   7.186 -0.4544 -0.4796 -0.0241
 1320TIP3    H125595   1.918   1.453   7.181  1.0664 -0.6114 -0.6624
 1320TIP3    H225596   1.864   1.583   7.124 -1.7876 -1.0251  1.0058
 1321TIP3   OH225597   3.151   2.447   6.801 -0.0344 -0.1194 -0.0435
 1321TIP3    H125598   3.093   2.383   6.758  0.7510 -1.1213  0.3534
 1321TIP3    H225599   3.230   2.447   6.747 -0.5591  1.6035 -0.8578
 1322TIP3   OH225600   2.695   4.160   8.027  0.2201  0.1909  1.2662
 1322TIP3    H125601   2.680   4.234   8.086 -0.3200  0.1914  1.1259
 1322TIP3    H225602   2.627   4.167   7.960 -0.0480 -0.6275  1.4402
 1323TIP3   OH225603   2.390   2.327   6.849 -0.5309  0.4607 -0.4839
 1323TIP3    H125604   2.432   2.306   6.933 -1.0013  0.9411 -0.1251
 1323TIP3    H225605   2.416   2.417   6.831  0.1905  0.1155 -1.2408
 1324TIP3   OH225606   4.828   2.522   0.260 -0.1696  0.4910 -0.2018
 1324TIP3    H125607   4.775   2.521   0.180 -1.7540 -0.8166  0.8255
 1324TIP3    H225608   4.780   2.579   0.320  1.8524  2.7809 -0.6933
 1325TIP3   OH225609   2.260   4.171   6.271 -0.7427  0.1948 -0.5523
 1325TIP3    H125610   2.322   4.124   6.326 -0.9919 -0.6631 -0.9952
 1325TIP3    H225611   2.241   4.252   6.319 -0.4316 -0.2270  0.2833
 1326TIP3   OH225612   3.340   2.072   0.241  0.2422 -0.5835  0.1803
 1326TIP3    H125613   3.406   2.069   0.171  0.2607  1.2814  0.0981
 1326TIP3    H225614   3.261   2.104   0.197  0.0913  0.0334  0.9062
 1327TIP3   OH225615   3.494   3.244   6.902 -0.2586  0.0831 -0.0694
 1327TIP3    H125616   3.569   3.186   6.904 -0.2682  0.0939  0.5880
 1327TIP3    H225617   3.528   3.327   6.867 -0.3421 -0.4386 -1.4446
 1328TIP3   OH225618   2.487   3.862   5.564 -0.5473 -0.1439  0.4938
 1328TIP3    H125619   2.401   3.904   5.565 -0.1350  0.7648 -0.7952
 1328TIP3    H225620   2.546   3.926   5.604 -0.7869 -1.5575  3.2320
 1329TIP3   OH225621   3.949   3.719   0.370  0.4351 -0.1104 -0.7882
 1329TIP3    H125622   4.025   3.776   0.365  2.2190 -1.9393  2.8230
 1329TIP3    H225623   3.921   3.706   0.280  1.5088  4.3213 -1.8502
 1330TIP3   OH225624   3.634   2.462   6.746 -0.0305 -0.3382 -0.2150
 1330TIP3    H125625   3.689   2.412   6.806  1.4263 -0.5052 -1.6262
 1330TIP3    H225626   3.544   2.442   6.771  0.5504  0.3810  2.5341
 1331TIP3   OH225627   2.035   2.695   7.181  0.5291  0.1884 -0.3044
 1331TIP3    H125628   1.994   2.752   7.247 -0.6261 -1.2348  0.2409
 1331TIP3    H225629   2.104   2.748   7.143 -0.7930  2.1042 -0.0938
 1332TIP3   OH225630   1.701   2.282   1.770 -0.3540  0.3322 -0.5467
 1332TIP3    H125631   1.663   2.195   1.773  0.8353 -0.1660  1.5201
 1332TIP3    H225632   1.796   2.266   1.769 -0.1555  1.5685 -2.4553
 1333TIP3   OH225633   3.104   4.598   6.598 -0.2398  0.1242 -0.1147
 1333TIP3    H125634   3.075   4.533   6.534 -0.3315 -1.0969  1.1423
 1333TIP3    H225635   3.022   4.635   6.633 -0.2270 -0.5755  0.6647
 1334TIP3   OH225636   4.691   3.144   0.558 -0.0262  0.7925  0.1555
 1334TIP3    H125637   4.609   3.130   0.510  0.3594  1.4904 -0.7099
 1334TIP3    H225638   4.724   3.056   0.575 -0.6291  0.5190 -0.0646
 1335TIP3   OH225639   4.041   3.696   6.241 -0.0003 -0.0533 -0.7339
 1335TIP3    H125640   4.040   3.635   6.167  1.9388  0.9240 -1.5983
 1335TIP3    H225641   4.105   3.763   6.217 -0.7920  1.3805  0.9696
 1336TIP3   OH225642   1.662   4.620   0.152  0.1007  0.4004  0.7487
 1336TIP3    H125643   1.722   4.555   0.116 -1.5113  0.6816 -2.6436
 1336TIP3    H225644   1.607   4.571   0.214  1.1545 -0.7088  0.8159
 1337TIP3   OH225645   3.537   3.174   6.243 -0.1628 -0.0987  0.1222
 1337TIP3    H125646   3.603   3.119   6.285  0.3575  0.4487  0.0285
 1337TIP3    H225647   3.476   3.196   6.314 -0.5063 -0.9714  0.1137
 1338TIP3   OH225648   4.296   3.402   7.882 -0.1720  0.2525 -0.2250
 1338TIP3    H125649   4.201   3.409   7.892 -0.1867  1.6986 -1.2299
 1338TIP3    H225650   4.332   3.435   7.964 -0.5295 -0.1035  0.0756
 1339TIP3   OH225651   2.625   3.590   0.952 -0.0287  0.0451  0.2772
 1339TIP3    H125652   2.699   3.571   0.894 -1.3974 -0.4037 -1.3640
 1339TIP3    H225653   2.630   3.684   0.968  1.6381 -0.1848  1.2400
 1340TIP3   OH225654   3.189   1.348   6.790  0.6842  0.3333  0.4514
 1340TIP3    H125655   3.139   1.266   6.793  0.1375  0.6911  1.5803
 1340TIP3    H225656   3.268   1.326   6.741  0.2823 -0.7252  0.2513
 1341TIP3   OH225657   7.269   3.639   6.536 -0.4862  0.4055  0.1792
 1341TIP3    H125658   7.310   3.668   6.454  1.3179  1.0026  1.2685
 1341TIP3    H225659   7.203   3.575   6.508  1.1872 -0.5886 -1.6207
 1342TIP3   OH225660   4.627   3.510   7.847 -0.0096  0.0237  0.5654
 1342TIP3    H125661   4.700   3.509   7.908 -1.8976 -1.4659  2.8851
 1342TIP3    H225662   4.573   3.583   7.876 -1.1048 -0.9117  0.9106
 1343TIP3   OH225663   4.829   1.153   0.164  0.4435  0.2974 -0.9788
 1343TIP3    H125664   4.895   1.084   0.173  0.3231  0.1818 -0.9954
 1343TIP3    H225665   4.817   1.187   0.253  0.1708 -0.0042 -0.9032
 1344TIP3   OH225666   3.671   1.706   0.584  0.2518  0.5320  0.8216
 1344TIP3    H125667   3.667   1.791   0.540 -0.5826  0.1688  0.1770
 1344TIP3    H225668   3.630   1.720   0.669  0.2513  0.8156  0.7737
 1345TIP3   OH225669   1.987   3.126   7.093  0.3093  0.0956  0.2433
 1345TIP3    H125670   1.926   3.154   7.024 -0.7396 -0.4969  0.9156
 1345TIP3    H225671   2.037   3.055   7.054  1.5604  1.5223 -0.7886
 1346TIP3   OH225672   3.124   2.791   6.553 -0.5258  0.6041  0.5114
 1346TIP3    H125673   3.169   2.776   6.470 -0.8675  2.3699 -0.0210
 1346TIP3    H225674   3.192   2.779   6.620  0.1619  0.8481 -0.1311
 1347TIP3   OH225675   3.339   3.224   6.417 -0.0954 -0.4043  0.2407
 1347TIP3    H125676   3.338   3.319   6.427 -1.1769 -0.5381  1.5748
 1347TIP3    H225677   3.363   3.191   6.503  0.3019 -1.3505 -0.2194
 1348TIP3   OH225678   2.611   0.261   7.518  0.5897  0.8942 -0.5619
 1348TIP3    H125679   2.670   0.194   7.484  1.1240  1.3871 -0.6140
 1348TIP3    H225680   2.641   0.342   7.478 -0.0609  1.1647 -0.5055
 1349TIP3   OH225681   4.276   1.471   7.904  0.3725  0.3652  0.3312
 1349TIP3    H125682   4.350   1.472   7.966 -0.5402  0.7939  1.4460
 1349TIP3    H225683   4.200   1.493   7.958 -0.6149 -0.3477 -0.7570
 1350TIP3   OH225684   2.588   2.528   0.253  0.6352  0.0707  0.0833
 1350TIP3    H125685   2.649   2.457   0.273  1.2032  0.2292 -1.0648
 1350TIP3    H225686   2.570   2.520   0.160 -2.2566 -0.8581  0.6776
 1351TIP3   OH225687   2.504   3.742   7.896 -0.2075 -0.7051  0.3987
 1351TIP3    H125688   2.411   3.750   7.877 -0.2223 -1.5329  0.1087
 1351TIP3    H225689   2.522   3.813   7.958 -0.8348  0.0266 -0.2366
 1352TIP3   OH225690   5.629   5.558   0.005 -0.3005 -0.1595 -0.2483
 1352TIP3    H125691   5.612   5.505  -0.073  0.3705 -0.8412  0.0567
 1352TIP3    H225692   5.725   5.568   0.006 -0.4566  1.5710 -0.6251
 1353TIP3   OH225693   3.908   2.221   7.471  0.2300  0.2517 -0.8672
 1353TIP3    H125694   3.867   2.253   7.551  0.6228  1.2528 -1.0531
 1353TIP3    H225695   3.992   2.184   7.500 -0.4301 -1.0309 -0.5939
 1354TIP3   OH225696   3.051   1.454   7.779 -0.2888  0.1316 -0.6260
 1354TIP3    H125697   3.090   1.448   7.866  0.6149 -0.9683 -1.0999
 1354TIP3    H225698   3.073   1.543   7.750  2.0113 -0.5032 -0.9360
 1355TIP3   OH225699   3.961   2.502   0.544  0.8909  0.3857 -0.0489
 1355TIP3    H125700   3.970   2.597   0.555 -0.2685  0.4047  0.7384
 1355TIP3    H225701   3.885   2.491   0.488 -0.4201 -0.1452  1.7850
 1356TIP3   OH225702   3.884   1.945   6.932 -0.1006  0.1436  0.8586
 1356TIP3    H125703   3.949   1.953   7.001 -0.0867 -0.5296  0.9244
 1356TIP3    H225704   3.857   1.853   6.934 -0.9073  0.3658  0.7052
 1357TIP3   OH225705   2.117   2.926   6.961  0.1184 -0.1595 -0.2070
 1357TIP3    H125706   2.160   2.864   7.021  1.1444  0.3015 -0.4491
 1357TIP3    H225707   2.187   2.955   6.902 -0.5892  0.4125 -0.7828
 1358TIP3   OH225708   4.331   3.865   7.139  0.5323  0.0240  0.2340
 1358TIP3    H125709   4.268   3.877   7.067  0.3977  1.2653  0.5441
 1358TIP3    H225710   4.299   3.787   7.185  1.3323 -1.5437 -1.7560
 1359TIP3   OH225711   4.022   3.212   8.135 -0.1352  0.2186 -0.5481
 1359TIP3    H125712   4.057   3.176   8.216  0.2828  4.3852  1.2655
 1359TIP3    H225713   3.928   3.217   8.149 -0.3185 -1.1072 -1.2298
 1360TIP3   OH225714   4.838   3.459   8.356  0.0907  0.1894 -0.3149
 1360TIP3    H125715   4.836   3.448   8.451 -0.1408  0.9438 -0.2344
 1360TIP3    H225716   4.930   3.476   8.336  0.0563  0.5238 -0.1771
 1361TIP3   OH225717   2.421   4.512   7.227 -1.0972  0.0929  0.2331
 1361TIP3    H125718   2.480   4.465   7.169 -1.2994 -0.6452  0.6263
 1361TIP3    H225719   2.464   4.509   7.313 -0.8059  1.1687  0.1369
 1362TIP3   OH225720   6.330   5.621   0.563  0.3738 -0.0333 -0.2647
 1362TIP3    H125721   6.314   5.527   0.574  0.7448 -0.3347 -2.1161
 1362TIP3    H225722   6.424   5.631   0.575  0.1894  0.2775  0.9971
 1363TIP3   OH225723   5.498   0.850   7.254  0.5808 -0.5227 -0.6518
 1363TIP3    H125724   5.428   0.794   7.285  0.4775  0.3434  0.7004
 1363TIP3    H225725   5.552   0.867   7.331 -0.0311  2.1351 -0.7501
 1364TIP3   OH225726   2.526   3.428   7.787  0.3497  0.2283 -0.4486
 1364TIP3    H125727   2.438   3.458   7.764 -0.0255  0.1996  0.8850
 1364TIP3    H225728   2.585   3.486   7.739 -0.3983  1.0166 -0.4215
 1365TIP3   OH225729   4.196   3.197   5.974  0.1827 -0.5567 -0.2155
 1365TIP3    H125730   4.182   3.153   6.058 -0.8901  1.2933  0.5823
 1365TIP3    H225731   4.290   3.216   5.973 -0.3001  2.1188  1.9352
 1366TIP3   OH225732   3.476   2.094   7.047 -0.1222  0.1495  0.2057
 1366TIP3    H125733   3.537   2.059   7.111 -0.9717 -1.4398  0.1949
 1366TIP3    H225734   3.529   2.108   6.968  0.1583 -1.7290  0.0237
 1367TIP3   OH225735   3.383   1.020   6.855 -0.0648  0.2758  0.4893
 1367TIP3    H125736   3.471   1.016   6.818 -0.1020  1.4706  0.2676
 1367TIP3    H225737   3.369   0.933   6.893  1.5859  0.3834  1.3814
 1368TIP3   OH225738   3.750   3.231   0.042  0.3714 -0.9461  0.1797
 1368TIP3    H125739   3.726   3.211   0.132  0.9142 -0.4111  0.4472
 1368TIP3    H225740   3.818   3.167   0.021  1.8172  0.3285  0.8966
 1369TIP3   OH225741   3.741   2.955   7.993 -0.3257  0.6176  0.0640
 1369TIP3    H125742   3.700   2.874   7.963  1.2639 -0.2603  0.2149
 1369TIP3    H225743   3.827   2.956   7.950  0.3186  1.3970  1.3396
 1370TIP3   OH225744   3.599   2.816   7.378 -0.0218  0.3051 -0.6369
 1370TIP3    H125745   3.567   2.726   7.385 -1.2674  0.7861 -0.0272
 1370TIP3    H225746   3.521   2.868   7.358  0.6280  1.2989 -0.6278
 1371TIP3   OH225747   4.573   0.500   7.833 -0.5478  0.3813  0.4235
 1371TIP3    H125748   4.621   0.581   7.815 -0.4355  0.3767  0.6931
 1371TIP3    H225749   4.573   0.453   7.750  0.6706 -0.0084  0.6309
 1372TIP3   OH225750   3.369   3.375   7.823 -0.0006  0.3349  0.0020
 1372TIP3    H125751   3.315   3.302   7.854  0.9579 -0.0931  0.6834
 1372TIP3    H225752   3.400   3.348   7.737 -1.8444  1.0995 -0.9460
 1373TIP3   OH225753   2.655   3.118   8.391  0.2513 -0.1503  0.5905
 1373TIP3    H125754   2.707   3.144   8.466 -1.9042  3.2685  0.9929
 1373TIP3    H225755   2.598   3.048   8.424  0.7563 -0.0977  1.5752
 1374TIP3   OH225756   4.303   2.934   0.960 -0.4033 -0.0101 -0.1260
 1374TIP3    H125757   4.246   2.944   1.037 -1.4901  1.3759 -1.0779
 1374TIP3    H225758   4.324   2.841   0.958 -3.8638 -0.8629 -0.5763
 1375TIP3   OH225759   4.395   3.484   7.594 -0.4200 -0.1406 -0.1303
 1375TIP3    H125760   4.300   3.484   7.594 -0.4580  0.8650 -2.4370
 1375TIP3    H225761   4.419   3.529   7.512  2.0065  1.5226  1.4104
 1376TIP3   OH225762   1.932   1.279   7.195  0.1111 -0.4197 -0.7487
 1376TIP3    H125763   2.010   1.232   7.226 -0.2772  0.3074  1.3894
 1376TIP3    H225764   1.864   1.212   7.191  0.3247 -0.6446 -0.6417
 1377TIP3   OH225765   1.483   4.566   7.095  0.2599 -0.3367  0.0259
 1377TIP3    H125766   1.521   4.486   7.131  1.3944  0.0901 -0.1989
 1377TIP3    H225767   1.493   4.631   7.164 -0.7533 -0.4032  0.2445
 1378TIP3   OH225768   4.967   1.663   0.568 -0.2975 -0.0851  0.3023
 1378TIP3    H125769   4.968   1.651   0.663 -0.6701  0.5940  0.3976
 1378TIP3    H225770   4.891   1.612   0.538 -1.5169  1.4888  0.6357
 1379TIP3   OH225771   3.277   3.985   6.127  0.8461  0.4382  0.0362
 1379TIP3    H125772   3.349   3.967   6.188  1.9865  0.3944 -1.2947
 1379TIP3    H225773   3.198   3.957   6.174  1.4779  2.1669  2.2467
 1380TIP3   OH225774   3.120   2.897   8.006  0.1917  0.1711  0.2448
 1380TIP3    H125775   3.037   2.855   7.984  1.4019 -1.6280 -1.0510
 1380TIP3    H225776   3.113   2.918   8.099 -0.7265 -2.2686  0.7649
 1381TIP3   OH225777   4.467   3.014   7.090 -0.4314  0.1222  0.3514
 1381TIP3    H125778   4.457   3.104   7.061 -0.3415 -0.6148 -2.0834
 1381TIP3    H225779   4.377   2.979   7.092 -0.3093 -0.2731 -0.6016
 1382TIP3   OH225780   2.865   4.422   6.246 -0.2964 -0.8916  0.4726
 1382TIP3    H125781   2.849   4.402   6.153 -3.0158 -1.2055  0.9629
 1382TIP3    H225782   2.823   4.507   6.259 -0.0359 -0.9148  1.4620
 1383TIP3   OH225783   6.971   4.097   8.007 -0.6702  0.7039 -0.2403
 1383TIP3    H125784   7.002   4.017   7.966 -3.8307 -2.2110  2.6737
 1383TIP3    H225785   6.894   4.122   7.955 -0.7560  0.8110 -0.0638
 1384TIP3   OH225786   3.218   4.526   7.151  0.3463  0.0213 -0.1699
 1384TIP3    H125787   3.292   4.581   7.176 -0.3950  0.6874  0.5969
 1384TIP3    H225788   3.146   4.555   7.207 -0.3190 -1.0813 -0.4217
 1385TIP3   OH225789   5.278   2.176   8.044  0.1717 -0.0899  0.4869
 1385TIP3    H125790   5.235   2.105   7.997 -0.7707  2.4992 -2.7852
 1385TIP3    H225791   5.286   2.144   8.134 -1.2670 -3.8148 -0.6114
 1386TIP3   OH225792   1.794   4.499   6.935  0.0388  0.1417  0.3642
 1386TIP3    H125793   1.824   4.413   6.962  2.7492  1.0714  0.4674
 1386TIP3    H225794   1.819   4.557   7.007  0.3400  1.3701 -0.7130
 1387TIP3   OH225795   2.363   1.713   7.604  0.8755 -0.1988  0.1261
 1387TIP3    H125796   2.455   1.694   7.585  0.4259 -1.2342 -1.0534
 1387TIP3    H225797   2.364   1.804   7.633  2.0789  0.3157 -1.4240
 1388TIP3   OH225798   4.009   3.467   7.948 -0.1257  0.1602 -0.1541
 1388TIP3    H125799   3.918   3.495   7.939 -0.4419 -0.6327  0.4719
 1388TIP3    H225800   4.012   3.425   8.034  0.7820 -0.0273 -0.2744
 1389TIP3   OH225801   4.452   3.271   6.983 -0.6154 -0.4917  0.7292
 1389TIP3    H125802   4.394   3.344   7.006 -2.1182 -1.0714 -1.0716
 1389TIP3    H225803   4.485   3.294   6.896 -0.9435 -1.8557  0.2327
 1390TIP3   OH225804   4.863   4.557   8.161  0.5178 -0.1918 -0.1526
 1390TIP3    H125805   4.799   4.578   8.229  0.2577 -0.7486 -0.2265
 1390TIP3    H225806   4.811   4.527   8.087  0.7789  0.8148 -0.7526
 1391TIP3   OH225807   1.485   5.943   6.482  0.4081  0.3773 -0.3562
 1391TIP3    H125808   1.424   5.999   6.435  2.0092  0.9864 -1.7916
 1391TIP3    H225809   1.569   5.957   6.437  1.4609 -0.8916  1.1636
 1392TIP3   OH225810   3.638   4.405   7.829 -0.2672  0.0043  0.8671
 1392TIP3    H125811   3.598   4.344   7.767  0.4109  0.3818  0.0504
 1392TIP3    H225812   3.564   4.445   7.875 -0.8718  0.9330 -0.8574
 1393TIP3   OH225813   3.855   3.218   7.780 -0.0410 -0.6234  0.2266
 1393TIP3    H125814   3.926   3.225   7.844  1.2035 -0.0342 -1.1914
 1393TIP3    H225815   3.860   3.128   7.749 -0.5029 -0.8453  0.7867
 1394TIP3   OH225816   3.641   3.179   6.626 -0.5722  0.1601  0.2406
 1394TIP3    H125817   3.679   3.147   6.544  0.7870 -0.5772  1.1390
 1394TIP3    H225818   3.668   3.270   6.632  0.5087 -0.1644  0.5216
 1395TIP3   OH225819   2.679   3.054   7.031  0.4370  0.4969  0.5966
 1395TIP3    H125820   2.586   3.075   7.026  0.4486  0.3142 -0.3998
 1395TIP3    H225821   2.715   3.082   6.947  1.1568 -0.0615  0.7129
 1396TIP3   OH225822   6.651   7.113   7.632  0.3292  0.5390 -0.1001
 1396TIP3    H125823   6.642   7.164   7.713  0.0838 -0.2169  0.3578
 1396TIP3    H225824   6.699   7.170   7.573  0.6726  1.0374  0.6457
 1397TIP3   OH225825   3.755   2.529   7.805 -0.2499  0.8623  0.0361
 1397TIP3    H125826   3.704   2.600   7.845 -0.8157  0.8744 -0.6972
 1397TIP3    H225827   3.759   2.552   7.712  2.4037  1.6593  0.3120
 1398TIP3   OH225828   1.451   0.844   7.502 -0.1699  0.1051  0.1784
 1398TIP3    H125829   1.507   0.908   7.458  0.7822 -0.4744  0.5562
 1398TIP3    H225830   1.414   0.792   7.431  0.4127 -0.0464 -0.0104
 1399TIP3   OH225831   2.105   0.750   7.161  0.6639  0.0886 -0.0710
 1399TIP3    H125832   2.055   0.826   7.131 -0.2442  0.0482  1.2879
 1399TIP3    H225833   2.192   0.784   7.179  0.2725  0.8054  0.4945
 1400TIP3   OH225834   4.199   3.473   6.941 -0.7880  0.2333  0.3333
 1400TIP3    H125835   4.178   3.408   6.874 -1.5080  0.9217 -0.1229
 1400TIP3    H225836   4.252   3.538   6.894 -2.0165  1.1611  0.2058
 1401TIP3   OH225837   2.145   3.717   7.211  0.4384  0.2479  0.1622
 1401TIP3    H125838   2.104   3.798   7.241 -0.9711  1.0841 -3.6151
 1401TIP3    H225839   2.237   3.739   7.199  0.1412  1.2241 -0.4428
 1402TIP3   OH225840   3.497   2.290   6.009  0.7067 -0.0777 -0.0648
 1402TIP3    H125841   3.475   2.264   6.099  0.9145  2.2593  0.7035
 1402TIP3    H225842   3.422   2.341   5.980  0.6464 -0.8277 -1.2275
 1403TIP3   OH225843   4.026   5.167   6.685  0.5269  0.1648 -0.7116
 1403TIP3    H125844   4.040   5.193   6.594  1.2117 -0.0629 -0.6704
 1403TIP3    H225845   4.034   5.072   6.685  1.6920  0.2496 -0.2134
 1404TIP3   OH225846   2.090   3.412   7.115 -0.1296  0.1427  0.2699
 1404TIP3    H125847   2.038   3.337   7.143  0.7891 -0.7232 -0.3368
 1404TIP3    H225848   2.062   3.483   7.174 -0.0076 -1.0182  1.7488
 1405TIP3   OH225849   4.130   0.389   7.785 -0.1385 -0.3017 -0.2448
 1405TIP3    H125850   4.183   0.441   7.726 -1.1417  2.0358  0.8459
 1405TIP3    H225851   4.041   0.422   7.774 -0.6895 -1.2916  1.0021
 1406TIP3   OH225852   1.466   2.614   6.709 -0.2940  0.2207  0.5009
 1406TIP3    H125853   1.460   2.536   6.764 -0.9388  0.8773  1.3704
 1406TIP3    H225854   1.560   2.627   6.696 -0.0861  0.6653  2.3232
 1407TIP3   OH225855   5.516   0.819   0.061 -0.3539  0.6850  0.4206
 1407TIP3    H125856   5.575   0.812  -0.015 -0.7874  1.2141  0.0362
 1407TIP3    H225857   5.533   0.907   0.096 -1.3673  1.0747 -0.0631
 1408TIP3   OH225858   4.285   3.625   8.409 -0.1673  0.0803 -0.0275
 1408TIP3    H125859   4.228   3.548   8.412 -0.8100  0.5657  0.3523
 1408TIP3    H225860   4.373   3.590   8.424 -0.5655 -0.4634  1.0681
 1409TIP3   OH225861   6.673   4.324   7.266  0.4542 -0.6710 -0.2584
 1409TIP3    H125862   6.666   4.255   7.331 -0.2533  1.2555  1.7733
 1409TIP3    H225863   6.756   4.367   7.284  0.6755 -0.6752 -1.2133
 1410TIP3   OH225864   5.763   2.757   6.788  0.1124 -0.6453  0.3521
 1410TIP3    H125865   5.760   2.665   6.813 -1.4323 -0.8271 -0.4353
 1410TIP3    H225866   5.719   2.761   6.703  2.0552  0.5131 -0.6328
 1411TIP3   OH225867   4.437   2.142   6.417 -0.1401  0.2179  0.2979
 1411TIP3    H125868   4.352   2.156   6.377 -0.0732  1.0204  0.4314
 1411TIP3    H225869   4.483   2.082   6.358 -0.5996  0.2037 -0.0388
 1412TIP3   OH225870   5.352   0.748   7.666 -0.2680  0.7698  0.0359
 1412TIP3    H125871   5.291   0.799   7.719  1.5910 -0.8368  3.8709
 1412TIP3    H225872   5.348   0.660   7.702  2.1926 -0.0409 -1.5557
 1413TIP3   OH225873   4.950   2.734   5.946  0.1493  0.5454  0.0461
 1413TIP3    H125874   4.998   2.758   5.866 -2.2138 -0.2775 -1.7053
 1413TIP3    H225875   4.914   2.817   5.978 -0.6975  0.6193 -1.0283
 1414TIP3   OH225876   5.389   3.547   7.525 -0.2234 -0.2540  0.3906
 1414TIP3    H125877   5.361   3.474   7.469  1.1101 -1.5264  1.3507
 1414TIP3    H225878   5.327   3.546   7.598 -0.2778 -0.3339  0.3437
 1415TIP3   OH225879   5.108   0.726   0.750 -0.0787 -0.6521  0.3086
 1415TIP3    H125880   5.015   0.747   0.744  0.0384 -0.1911  0.0776
 1415TIP3    H225881   5.127   0.727   0.844  0.0230  0.7340  0.2893
 1416TIP3   OH225882   5.073   2.106   6.608 -0.0214  0.2800 -0.1780
 1416TIP3    H125883   5.147   2.077   6.554 -0.0273  0.8359 -0.5005
 1416TIP3    H225884   5.101   2.093   6.698 -0.5038 -1.8748 -0.3153
 1417TIP3   OH225885   4.616   2.487   6.178  0.8549 -0.5384 -0.4086
 1417TIP3    H125886   4.702   2.520   6.153  0.8135 -0.4707 -0.4627
 1417TIP3    H225887   4.633   2.402   6.218  1.0134 -0.2187  0.2151
 1418TIP3   OH225888   5.800   2.947   7.323  0.1492 -0.1144  0.4035
 1418TIP3    H125889   5.856   3.024   7.310 -0.3839  0.4850  1.5298
 1418TIP3    H225890   5.729   2.958   7.259  0.6843 -0.2646 -0.2183
 1419TIP3   OH225891   5.259   4.158   7.462  0.3364 -0.8676  0.3972
 1419TIP3    H125892   5.225   4.161   7.551  1.0114  0.0366  0.6391
 1419TIP3    H225893   5.326   4.090   7.464  1.5979  0.3572  1.0540
 1420TIP3   OH225894   6.186   3.825   6.808 -0.0313 -0.0554 -0.1375
 1420TIP3    H125895   6.275   3.840   6.842 -0.7767  1.2395  1.2833
 1420TIP3    H225896   6.145   3.911   6.807 -1.1661 -0.5924 -1.1361
 1421TIP3   OH225897   3.026   2.238   6.666 -0.4561 -0.0873 -0.1394
 1421TIP3    H125898   3.077   2.186   6.728 -1.0028  0.1218  0.4890
 1421TIP3    H225899   2.938   2.202   6.670 -0.6495  0.3611 -0.3069
 1422TIP3   OH225900   4.937   2.354   8.464  0.5716 -0.2806 -0.4322
 1422TIP3    H125901   4.927   2.331   8.372 -0.4851 -1.8124  0.0448
 1422TIP3    H225902   4.873   2.423   8.479 -0.8961 -1.6376 -0.3092
 1423TIP3   OH225903   4.313   3.654   6.749  0.3371 -0.2043 -0.0273
 1423TIP3    H125904   4.403   3.679   6.730  0.1874  1.9182  1.8584
 1423TIP3    H225905   4.260   3.728   6.719 -0.7746 -1.2971 -0.8432
 1424TIP3   OH225906   6.884   1.687   6.770  0.1519 -0.0416  1.0565
 1424TIP3    H125907   6.951   1.662   6.706 -1.4530  1.5308 -1.3511
 1424TIP3    H225908   6.904   1.778   6.792 -0.4948  0.0736  1.1887
 1425TIP3   OH225909   5.278   1.372   0.937 -0.5015 -0.6548  0.2510
 1425TIP3    H125910   5.350   1.397   0.995 -0.4701 -0.2170  0.0247
 1425TIP3    H225911   5.203   1.362   0.995 -1.0034  1.9728  0.0958
 1426TIP3   OH225912   1.113   5.361   7.119  0.1121 -0.3660 -0.7520
 1426TIP3    H125913   1.098   5.455   7.133 -0.0655 -0.4086 -0.6546
 1426TIP3    H225914   1.122   5.352   7.024  2.0586  0.0360 -0.6227
 1427TIP3   OH225915   0.974   4.451   0.425 -0.0578 -0.2627  0.3223
 1427TIP3    H125916   0.966   4.546   0.433  0.5273 -0.3229  1.6583
 1427TIP3    H225917   0.891   4.423   0.385  0.4782  0.9965 -1.7293
 1428TIP3   OH225918   5.444   3.082   6.474 -0.0793  0.7880  0.3575
 1428TIP3    H125919   5.407   3.164   6.507  0.7943  0.9051  1.0479
 1428TIP3    H225920   5.531   3.107   6.442 -1.2102  0.8642 -2.8384
 1429TIP3   OH225921   3.154   4.152   6.509 -0.2519 -0.3085 -0.0504
 1429TIP3    H125922   3.125   4.223   6.566  1.6526 -1.5371  2.5850
 1429TIP3    H225923   3.119   4.174   6.423 -1.1669  2.9009  1.0676
 1430TIP3   OH225924   3.157   3.014   6.258  0.6528  0.1595 -0.4710
 1430TIP3    H125925   3.208   3.081   6.303  0.1417 -0.6727  1.4220
 1430TIP3    H225926   3.220   2.945   6.237  0.5370 -0.3689  0.8626
 1431TIP3   OH225927   4.852   2.579   6.152  0.5520  0.7414  0.0692
 1431TIP3    H125928   4.900   2.604   6.072 -0.2886  0.6982 -0.4481
 1431TIP3    H225929   4.882   2.642   6.217  1.4028  0.6528 -0.2174
 1432TIP3   OH225930   5.805   1.169   0.818 -0.0068  0.6473  0.0263
 1432TIP3    H125931   5.760   1.152   0.735 -1.4164  0.2005  0.8497
 1432TIP3    H225932   5.883   1.114   0.816 -0.6130 -0.1992 -0.5399
 1433TIP3   OH225933   5.072   1.522   7.275  0.4481 -0.1404  0.4223
 1433TIP3    H125934   5.057   1.615   7.255 -0.4251 -0.4528 -0.4048
 1433TIP3    H225935   5.145   1.497   7.218  0.2431 -0.1351  0.1568
 1434TIP3   OH225936   4.031   3.012   1.554  0.4393 -0.1989  0.4049
 1434TIP3    H125937   4.058   3.021   1.645  1.5218  0.0922  0.0650
 1434TIP3    H225938   3.999   3.099   1.529 -0.3303 -0.4094  0.6551
 1435TIP3   OH225939   3.421   3.658   6.503 -0.0792  0.5131  0.3812
 1435TIP3    H125940   3.391   3.590   6.564 -0.2913  0.8124  0.6087
 1435TIP3    H225941   3.499   3.695   6.545 -0.1149  0.5904  0.3778
 1436TIP3   OH225942   5.162   2.545   6.754 -0.3289  0.2300 -0.4439
 1436TIP3    H125943   5.145   2.634   6.784 -0.9005 -0.8622  2.5357
 1436TIP3    H225944   5.258   2.541   6.745 -0.2810  1.0345 -0.3374
 1437TIP3   OH225945   5.099   4.103   6.467 -0.0173 -0.1002 -0.3667
 1437TIP3    H125946   5.166   4.162   6.434  0.8542 -0.3321  0.9772
 1437TIP3    H225947   5.126   4.016   6.438 -1.1368  0.0840 -2.0754
 1438TIP3   OH225948   6.343   3.143   6.714  0.1076 -0.6535 -0.1636
 1438TIP3    H125949   6.287   3.137   6.637  1.2975  0.2351 -1.0945
 1438TIP3    H225950   6.405   3.071   6.705  1.9979  1.0935 -1.4595
 1439TIP3   OH225951   5.416   2.491   7.304 -0.0858  0.1660  0.3753
 1439TIP3    H125952   5.465   2.551   7.361 -0.9390  2.4792 -1.2690
 1439TIP3    H225953   5.482   2.428   7.274  1.3854  1.8413  0.0394
 1440TIP3   OH225954   3.618   3.404   7.385 -0.3223  0.3469  0.3062
 1440TIP3    H125955   3.612   3.454   7.303  2.0380 -1.3012 -0.9231
 1440TIP3    H225956   3.692   3.346   7.372 -0.7250 -0.8707  3.1555
 1441TIP3   OH225957   3.697   5.349   7.316  0.8428  0.0847  0.3187
 1441TIP3    H125958   3.730   5.289   7.384 -1.5714 -0.0501  1.4242
 1441TIP3    H225959   3.615   5.309   7.287 -0.5827  2.5840  0.7534
 1442TIP3   OH225960   5.058   3.298   6.853 -0.2610 -0.2708  0.6766
 1442TIP3    H125961   5.123   3.357   6.814 -1.6297 -1.1761 -3.1621
 1442TIP3    H225962   5.016   3.351   6.921  0.4920  2.2679 -0.7749
 1443TIP3   OH225963   6.049   3.036   6.193 -0.1801  0.5400  0.0324
 1443TIP3    H125964   6.051   3.113   6.250  2.1620  0.1129  0.5739
 1443TIP3    H225965   6.112   3.056   6.123  0.0254 -0.6432 -0.1331
 1444TIP3   OH225966   5.200   4.703   7.637 -0.7915  0.1989  0.0073
 1444TIP3    H125967   5.289   4.725   7.663  0.5375 -1.2406 -3.0488
 1444TIP3    H225968   5.175   4.772   7.575 -1.9745  0.8456  1.1952
 1445TIP3   OH225969   4.815   2.264   0.197 -1.1621  0.3344 -0.5270
 1445TIP3    H125970   4.791   2.352   0.227 -1.7514 -0.0298  0.0879
 1445TIP3    H225971   4.880   2.279   0.129 -0.8904  1.2343 -0.0785
 1446TIP3   OH225972   5.594   3.323   6.298  0.3105 -0.1590  0.6921
 1446TIP3    H125973   5.685   3.324   6.268  0.3072 -0.8526  0.6570
 1446TIP3    H225974   5.550   3.261   6.241 -0.1843  0.1630  0.7228
 1447TIP3   OH225975   4.495   3.878   1.098 -0.0670 -0.3736 -0.3303
 1447TIP3    H125976   4.482   3.850   1.189  1.0493  1.4831  0.4210
 1447TIP3    H225977   4.495   3.796   1.048 -0.0257 -1.4688  1.4169
 1448TIP3   OH225978   4.878   3.889   7.447 -0.0933 -0.0525  0.1177
 1448TIP3    H125979   4.907   3.976   7.418 -2.4694  0.2695 -1.4272
 1448TIP3    H225980   4.842   3.905   7.535  0.2597  0.3589  0.1931
 1449TIP3   OH225981   5.502   4.738   6.702  0.0192  0.0133  0.3303
 1449TIP3    H125982   5.515   4.678   6.628 -3.5464 -0.1095 -0.2841
 1449TIP3    H225983   5.590   4.750   6.738  1.7345 -0.6775 -3.3212
 1450TIP3   OH225984   6.374   2.062   7.185  0.0747  0.1737 -0.2625
 1450TIP3    H125985   6.348   2.140   7.136 -0.0469 -0.4246 -1.1723
 1450TIP3    H225986   6.458   2.036   7.146  0.2325 -0.0091  0.1986
 1451TIP3   OH225987   4.805   2.973   6.023 -0.3260 -0.2924 -0.5751
 1451TIP3    H125988   4.760   2.997   5.942 -0.4657  0.0183 -0.4033
 1451TIP3    H225989   4.752   3.012   6.093  1.0918  1.4531 -0.4545
 1452TIP3   OH225990   3.324   0.319   0.489  0.3483 -0.2873  0.2514
 1452TIP3    H125991   3.239   0.278   0.472  0.5101 -0.0106 -1.3306
 1452TIP3    H225992   3.345   0.363   0.407  1.0303  1.4284  1.3427
 1453TIP3   OH225993   5.805   2.344   0.254 -0.0668  0.0491 -0.1931
 1453TIP3    H125994   5.716   2.370   0.230  0.5326  1.3355 -1.0880
 1453TIP3    H225995   5.804   2.341   0.350 -0.6200  1.8178 -0.1221
 1454TIP3   OH225996   5.673   3.025   0.678  0.0567  0.1078  0.5892
 1454TIP3    H125997   5.639   2.986   0.598  0.3156  1.6001 -0.2632
 1454TIP3    H225998   5.739   2.963   0.709  0.4646 -0.1320 -0.7360
 1455TIP3   OH225999   4.980   5.405   1.558 -0.5607 -0.5348  0.4256
 1455TIP3    H126000   5.002   5.468   1.627  0.3061  1.0638 -1.2576
 1455TIP3    H226001   5.023   5.324   1.586  2.3865  0.8992  0.3097
 1456TIP3   OH226002   4.140   2.012   7.072  0.1502 -0.3289  0.0888
 1456TIP3    H126003   4.186   1.954   7.134  0.1911 -1.2546 -0.7988
 1456TIP3    H226004   4.089   2.070   7.128 -2.5866 -3.4348  0.9700
 1457TIP3   OH226005   6.202   3.930   7.798 -0.0967 -0.2972  0.4486
 1457TIP3    H126006   6.157   3.944   7.881  0.1860 -0.4389  0.6259
 1457TIP3    H226007   6.144   3.871   7.749 -0.6350  0.4108  0.2331
 1458TIP3   OH226008   5.744   3.839   7.064 -0.1818  0.2627 -0.1981
 1458TIP3    H126009   5.775   3.894   7.136 -0.2768  0.6036 -0.4144
 1458TIP3    H226010   5.770   3.750   7.089 -1.2461  0.2174  0.8240
 1459TIP3   OH226011   5.065   2.896   0.507 -0.1235  0.2020 -0.2410
 1459TIP3    H126012   4.974   2.881   0.533  0.0233 -1.2911 -0.5364
 1459TIP3    H226013   5.091   2.816   0.462  0.7720  1.3472 -1.8084
 1460TIP3   OH226014   3.277   4.248   8.114 -0.6616  0.5176 -0.2221
 1460TIP3    H126015   3.181   4.246   8.106 -0.7102 -2.8431  0.1989
 1460TIP3    H226016   3.308   4.278   8.029 -2.0620 -0.0369 -0.9427
 1461TIP3   OH226017   3.497   1.704   7.040 -0.1642  0.4919  0.1848
 1461TIP3    H126018   3.460   1.618   7.018  0.7169  0.0339  0.4563
 1461TIP3    H226019   3.499   1.705   7.135  1.8418 -0.0764  0.1666
 1462TIP3   OH226020   3.772   2.801   6.739 -0.1918  0.3052 -0.1217
 1462TIP3    H126021   3.780   2.717   6.694  0.1525 -0.4735  1.3708
 1462TIP3    H226022   3.857   2.843   6.726  0.0923 -0.1492  0.2531
 1463TIP3   OH226023   4.256   3.873   8.245 -0.0350 -0.3305  0.2097
 1463TIP3    H126024   4.275   3.816   8.319  0.0792 -0.4729  0.0714
 1463TIP3    H226025   4.328   3.857   8.183  0.1130  0.1161  0.2624
 1464TIP3   OH226026   4.208   3.077   7.694 -0.3440 -1.0984  0.7609
 1464TIP3    H126027   4.212   3.171   7.679 -1.5615 -1.1160  0.2743
 1464TIP3    H226028   4.178   3.068   7.785 -0.3232 -1.0128  0.7757
 1465TIP3   OH226029   4.687   1.764   6.865  0.0825 -0.2987 -0.5150
 1465TIP3    H126030   4.676   1.709   6.943  0.9223  0.6473  0.2870
 1465TIP3    H226031   4.616   1.829   6.872  0.2538 -0.1171 -0.4471
 1466TIP3   OH226032   5.190   1.023   8.087  0.1643  0.5950 -0.4264
 1466TIP3    H126033   5.122   1.088   8.104 -0.1519  0.5588 -1.5285
 1466TIP3    H226034   5.170   0.951   8.147 -0.0915  1.0665  0.0600
 1467TIP3   OH226035   3.752   1.362   0.807 -0.1974 -0.0451 -0.1598
 1467TIP3    H126036   3.745   1.342   0.713 -1.0348  1.6023 -0.4729
 1467TIP3    H226037   3.824   1.425   0.813  0.6235 -1.0397  0.4559
 1468TIP3   OH226038   5.457   3.741   0.315  0.5224  0.2915  0.9138
 1468TIP3    H126039   5.396   3.763   0.385  0.4625 -1.5903  1.4668
 1468TIP3    H226040   5.543   3.766   0.349  0.2823  1.2553  0.8426
 1469TIP3   OH226041   3.664   0.248   6.693  0.3699  0.2605 -0.0792
 1469TIP3    H126042   3.715   0.184   6.644 -2.3623 -1.8921 -0.2193
 1469TIP3    H226043   3.673   0.222   6.785  1.6107  1.4486  0.1543
 1470TIP3   OH226044   5.040   4.973   7.532  0.2549  0.4266 -0.0366
 1470TIP3    H126045   5.082   5.050   7.570 -0.6599  1.5431 -1.2374
 1470TIP3    H226046   4.979   5.009   7.468 -2.0175 -1.1952  1.1654
 1471TIP3   OH226047   2.065   2.167   7.150  0.1550 -0.2776 -0.1384
 1471TIP3    H126048   2.061   2.113   7.229 -1.5472  0.0525  0.0191
 1471TIP3    H226049   2.099   2.251   7.180 -1.8622  0.3203  0.5288
 1472TIP3   OH226050   6.176   2.747   0.423 -0.0668 -0.5142 -0.5010
 1472TIP3    H126051   6.108   2.783   0.481  1.2321  1.5767 -0.2171
 1472TIP3    H226052   6.203   2.666   0.465  0.7655  0.9024  1.7980
 1473TIP3   OH226053   3.798   1.534   6.533 -0.3369 -0.0163 -0.4827
 1473TIP3    H126054   3.880   1.491   6.558  0.9093  1.3019 -2.2017
 1473TIP3    H226055   3.812   1.561   6.442 -1.8864  2.1702 -0.0943
 1474TIP3   OH226056   4.495   2.220   5.803 -0.3665 -0.2121 -0.0248
 1474TIP3    H126057   4.493   2.189   5.894  0.7263 -1.3522 -0.3853
 1474TIP3    H226058   4.555   2.295   5.805 -0.8610  0.1805  0.3138
 1475TIP3   OH226059   5.272   0.807   8.446 -0.0657 -0.1422 -0.4896
 1475TIP3    H126060   5.207   0.855   8.498  0.1014  0.5676 -0.9250
 1475TIP3    H226061   5.354   0.819   8.493 -0.0510 -0.1298 -0.5189
 1476TIP3   OH226062   0.184   4.814   7.215 -0.1538  0.3230 -0.0584
 1476TIP3    H126063   0.191   4.843   7.306 -1.3279  0.0896  0.1067
 1476TIP3    H226064   0.111   4.752   7.214  0.7229 -0.7318 -0.8922
 1477TIP3   OH226065   4.293   0.972   7.945 -0.0891  1.0503  0.0295
 1477TIP3    H126066   4.367   0.914   7.924 -0.1143  0.5507  1.2527
 1477TIP3    H226067   4.334   1.055   7.969 -0.0382  1.4659 -1.4455
 1478TIP3   OH226068   3.039   4.646   0.610 -0.1661 -0.2014  0.2593
 1478TIP3    H126069   3.026   4.571   0.553  0.2688 -0.8116  0.9500
 1478TIP3    H226070   3.102   4.702   0.564 -1.9974  0.7217 -1.1712
 1479TIP3   OH226071   4.644   1.830   7.443  0.7538  0.3987 -0.3880
 1479TIP3    H126072   4.697   1.909   7.447  2.2653 -0.6234 -0.0357
 1479TIP3    H226073   4.702   1.762   7.407 -0.7966 -0.3386 -1.5915
 1480TIP3   OH226074   5.075   1.424   6.172  0.3150  0.1515  0.6499
 1480TIP3    H126075   5.089   1.337   6.209 -1.0723 -0.1847  0.4074
 1480TIP3    H226076   5.114   1.420   6.084  0.0346 -0.2940  0.5483
 1481TIP3   OH226077   4.407   2.923   6.730  0.2627 -0.4059  0.2183
 1481TIP3    H126078   4.360   2.840   6.724 -0.3086 -0.1877  1.5520
 1481TIP3    H226079   4.360   2.973   6.796  0.5365  1.0322 -0.6488
 1482TIP3   OH226080   4.056   4.351   7.403 -0.0590 -0.3717  0.0300
 1482TIP3    H126081   4.075   4.302   7.323 -0.5111  0.4399 -0.5812
 1482TIP3    H226082   4.011   4.430   7.373 -1.3745 -0.6497  1.1767
 1483TIP3   OH226083   5.410   3.284   8.049 -0.3861  0.0774 -0.4553
 1483TIP3    H126084   5.444   3.355   7.994  3.5649  0.3078  2.0835
 1483TIP3    H226085   5.473   3.213   8.039 -0.7531 -0.6605  2.1053
 1484TIP3   OH226086   3.714   3.024   7.110 -0.0174 -0.0803  0.2252
 1484TIP3    H126087   3.714   3.035   7.015  1.0714  1.2432  0.3633
 1484TIP3    H226088   3.731   2.930   7.123  0.1646 -0.2120 -0.8803
 1485TIP3   OH226089   5.200   5.822   0.859 -0.5313  0.0411  0.1772
 1485TIP3    H126090   5.224   5.738   0.898 -0.5408 -0.6312 -1.2165
 1485TIP3    H226091   5.282   5.855   0.822 -0.4430  0.8522  1.0609
 1486TIP3   OH226092   5.019   3.453   7.285  0.5015 -0.1490 -0.0010
 1486TIP3    H126093   5.005   3.534   7.334 -1.7075 -0.3040 -0.2966
 1486TIP3    H226094   5.110   3.457   7.256  0.5165  2.0746  0.2901
 1487TIP3   OH226095   4.417   2.713   7.978 -0.7350 -0.3646  0.6187
 1487TIP3    H126096   4.490   2.675   7.928 -0.4373 -0.5158  1.1686
 1487TIP3    H226097   4.411   2.804   7.946  1.9124  0.7010  2.9856
 1488TIP3   OH226098   5.488   3.903   7.121 -0.6409  0.3871 -0.1203
 1488TIP3    H126099   5.492   3.864   7.208 -2.3164  0.8653  0.1816
 1488TIP3    H226100   5.575   3.889   7.085 -0.4786 -1.4420  0.9259
 1489TIP3   OH226101   4.132   3.496   7.575  0.1749  0.2444  0.7677
 1489TIP3    H126102   4.089   3.440   7.511  0.7941  0.8063 -0.1568
 1489TIP3    H226103   4.062   3.527   7.632 -0.3872 -0.2014  0.3183
 1490TIP3   OH226104   4.872   2.853   1.323  0.8836  0.7464 -0.0421
 1490TIP3    H126105   4.825   2.905   1.389  0.4264  0.5610 -0.2231
 1490TIP3    H226106   4.835   2.766   1.330  2.8294 -0.0094  1.4457
 1491TIP3   OH226107   4.347   4.872   7.173  0.3087  0.7963 -0.1164
 1491TIP3    H126108   4.421   4.818   7.146 -0.0368  1.0290 -1.5938
 1491TIP3    H226109   4.386   4.942   7.225  0.9930  0.2591  0.1026
 1492TIP3   OH226110   4.393   2.257   7.057 -0.3368  0.4430  0.0253
 1492TIP3    H126111   4.305   2.239   7.091  0.9157  1.0324  3.8461
 1492TIP3    H226112   4.413   2.345   7.089  1.4900  0.5019 -1.1942
 1493TIP3   OH226113   4.868   4.294   7.390  0.8230  0.5944  0.6026
 1493TIP3    H126114   4.905   4.215   7.351  0.2866  0.9309 -0.6066
 1493TIP3    H226115   4.864   4.275   7.483 -1.5120 -1.7115  0.0667
 1494TIP3   OH226116   5.468   2.553   6.567 -0.1071 -0.4950 -0.0569
 1494TIP3    H126117   5.486   2.604   6.646  3.0703 -1.8152  0.1654
 1494TIP3    H226118   5.439   2.617   6.502  1.0168  1.1666  1.0571
 1495TIP3   OH226119   4.523   4.067   6.845 -0.0689 -0.1656 -0.2467
 1495TIP3    H126120   4.605   4.109   6.870  0.4680 -1.6929  0.5875
 1495TIP3    H226121   4.547   3.978   6.823 -1.5116 -0.6443  0.0581
 1496TIP3   OH226122   3.415   5.205   7.623 -0.0747 -0.2270  0.2168
 1496TIP3    H126123   3.407   5.132   7.685 -1.3002  1.5277  2.1837
 1496TIP3    H226124   3.340   5.195   7.565 -1.7366  0.9331  2.1133
 1497TIP3   OH226125   4.720   2.310   6.570  0.0735  0.0500 -0.3384
 1497TIP3    H126126   4.714   2.214   6.570 -0.5175  0.0786  0.7161
 1497TIP3    H226127   4.702   2.335   6.480  1.6075 -0.9162 -0.9393
 1498TIP3   OH226128   4.205   3.724   7.820  0.0221  0.4350  0.2670
 1498TIP3    H126129   4.137   3.657   7.816  0.5529 -0.2071  1.6838
 1498TIP3    H226130   4.286   3.675   7.833  0.5711  1.2731  0.0265
 1499TIP3   OH226131   5.051   5.690   6.542  0.4582  0.0453 -0.2077
 1499TIP3    H126132   5.100   5.691   6.460 -0.9120 -0.0168 -1.0494
 1499TIP3    H226133   5.004   5.773   6.542 -0.5144 -0.5000 -0.0862
 1500TIP3   OH226134   6.863   2.783   6.713 -0.6017 -0.4581 -0.0529
 1500TIP3    H126135   6.772   2.753   6.713 -0.5925 -0.5133 -1.2276
 1500TIP3    H226136   6.911   2.715   6.760 -1.5771  0.9125  3.0530
 1501TIP3   OH226137   3.841   2.096   1.754 -0.2802 -0.5735  0.0188
 1501TIP3    H126138   3.782   2.112   1.827 -0.6663  2.0353 -0.8145
 1501TIP3    H226139   3.786   2.102   1.676  0.4576 -1.5263 -0.5867
 1502TIP3   OH226140   3.122   2.647   1.475 -0.8520 -0.7304 -0.8126
 1502TIP3    H126141   3.048   2.651   1.537  1.2433  0.2560  1.7160
 1502TIP3    H226142   3.096   2.706   1.404 -1.1052  2.3231  1.7012
 1503TIP3   OH226143   4.374   3.072   6.311 -0.2249 -0.5144  0.0763
 1503TIP3    H126144   4.285   3.054   6.280 -0.6639  0.6255  0.6549
 1503TIP3    H226145   4.431   3.040   6.241 -1.1446  0.3710 -1.0920
 1504TIP3   OH226146   5.577   2.404   6.998  0.0589  0.0462  0.1496
 1504TIP3    H126147   5.600   2.372   7.085 -0.1470 -1.6137 -0.3745
 1504TIP3    H226148   5.484   2.386   6.990  0.7259 -3.0300 -1.6620
 1505TIP3   OH226149   5.894   1.465   6.518 -0.4176 -0.3739 -0.1774
 1505TIP3    H126150   5.877   1.444   6.426 -1.8213  2.1326 -0.5134
 1505TIP3    H226151   5.888   1.560   6.523  0.4327 -0.4200  2.3698
 1506TIP3   OH226152   5.220   2.730   5.844 -0.1133  0.5712  0.4287
 1506TIP3    H126153   5.315   2.745   5.839  0.0616  0.3027  2.5802
 1506TIP3    H226154   5.211   2.652   5.898 -1.5595  0.3739 -0.0902
 1507TIP3   OH226155   5.078   5.281   6.629  0.0989  0.0157 -0.2172
 1507TIP3    H126156   5.095   5.266   6.536  0.5479  2.3001 -0.5322
 1507TIP3    H226157   5.033   5.365   6.633 -1.7753 -1.0260  1.4854
 1508TIP3   OH226158   5.125   2.552   6.416  0.2784  0.6773 -0.0964
 1508TIP3    H126159   5.167   2.489   6.475 -0.9072 -1.2433 -1.2576
 1508TIP3    H226160   5.070   2.606   6.474  0.5221 -0.0133  0.7941
 1509TIP3   OH226161   4.548   1.947   6.206 -0.1459 -0.5615 -0.2034
 1509TIP3    H126162   4.608   1.879   6.176  0.2239 -0.7398  0.9187
 1509TIP3    H226163   4.469   1.900   6.232 -0.2553 -0.4617 -0.3547
 1510TIP3   OH226164   5.944   4.558   7.488  0.5683  0.3707  0.4411
 1510TIP3    H126165   5.979   4.642   7.516  0.1401  0.8612 -0.4969
 1510TIP3    H226166   5.986   4.541   7.404 -1.1545  0.7888 -0.5221
 1511TIP3   OH226167   3.706   2.528   7.482  0.0403  0.1473  0.4079
 1511TIP3    H126168   3.611   2.518   7.472 -0.2918  1.5220  2.0355
 1511TIP3    H226169   3.738   2.541   7.392 -1.4425  0.7981 -0.0381
 1512TIP3   OH226170   4.314   4.653   8.261 -0.2301  0.3126  0.4208
 1512TIP3    H126171   4.244   4.702   8.305 -0.6133  2.2332 -2.1730
 1512TIP3    H226172   4.272   4.573   8.230 -1.0616  1.0035 -0.2718
 1513TIP3   OH226173   5.712   4.329   8.330 -0.2225  0.4825 -0.0954
 1513TIP3    H126174   5.720   4.424   8.334  1.3857  0.3579 -0.2665
 1513TIP3    H226175   5.801   4.296   8.338 -0.7553 -1.0161 -0.0879
 1514TIP3   OH226176   4.838   2.304   7.132 -0.4730 -0.0785  0.0505
 1514TIP3    H126177   4.744   2.283   7.133 -0.6082  0.5576  1.5953
 1514TIP3    H226178   4.879   2.226   7.096 -1.3106 -1.6296  2.3479
 1515TIP3   OH226179   2.892   3.157   2.027 -0.1431  0.3455  0.6292
 1515TIP3    H126180   2.977   3.116   2.008 -0.8378 -0.6130 -0.4968
 1515TIP3    H226181   2.834   3.084   2.049 -0.4282  1.0898  2.4600
 1516TIP3   OH226182   4.046   2.846   7.341  0.4437  0.6370  0.1138
 1516TIP3    H126183   4.002   2.924   7.373 -2.8190 -1.8312  1.9244
 1516TIP3    H226184   4.121   2.834   7.399 -1.9626 -0.3893  3.1040
 1517TIP3   OH226185   5.030   3.496   0.907  0.2664 -0.0353 -0.2189
 1517TIP3    H126186   4.942   3.460   0.919  0.0541  0.4341 -0.3398
 1517TIP3    H226187   5.059   3.518   0.995  0.0576  0.2759 -0.2249
 1518TIP3   OH226188   5.032   3.757   7.922  0.3303  0.1231  0.1634
 1518TIP3    H126189   4.968   3.816   7.883  1.0427  0.7265 -0.1168
 1518TIP3    H226190   5.038   3.785   8.013  2.3496  2.0167 -0.5039
 1519TIP3   OH226191   4.375   2.491   0.042 -0.1418  0.5461 -0.0023
 1519TIP3    H126192   4.403   2.399   0.046 -0.5363  0.4395  0.3582
 1519TIP3    H226193   4.309   2.499   0.111  1.3981  1.6008  1.4238
 1520TIP3   OH226194   2.708   3.184   6.772 -0.0110 -0.1548 -0.9055
 1520TIP3    H126195   2.772   3.255   6.778  0.7409 -1.0107  2.0572
 1520TIP3    H226196   2.624   3.229   6.767  0.6135  0.9569 -1.7898
 1521TIP3   OH226197   2.376   0.176   0.199 -0.1998  0.2526  0.1161
 1521TIP3    H126198   2.383   0.088   0.234 -0.4691 -0.0859 -0.6687
 1521TIP3    H226199   2.351   0.164   0.107 -1.6997  1.1672  0.3697
 1522TIP3   OH226200   4.536   2.006   6.936  0.4488 -0.2411  0.0716
 1522TIP3    H126201   4.600   2.042   6.997  0.1766  1.7025 -0.7436
 1522TIP3    H226202   4.475   2.078   6.920  0.0618 -0.9547 -1.8382
 1523TIP3   OH226203   5.558   0.916   1.728 -0.0820  0.1676 -0.4455
 1523TIP3    H126204   5.527   1.003   1.703 -2.1743 -0.6015 -0.6935
 1523TIP3    H226205   5.533   0.860   1.654 -0.4249 -0.9512  0.4915
 1524TIP3   OH226206   5.733   4.697   0.705  0.2358 -0.2573  0.6923
 1524TIP3    H126207   5.667   4.631   0.684  1.5406 -0.9907 -1.2970
 1524TIP3    H226208   5.687   4.781   0.696 -1.3009 -0.8546  2.7359
 1525TIP3   OH226209   4.972   1.363   8.000 -0.0609 -0.7528  0.0832
 1525TIP3    H126210   4.930   1.344   7.916 -1.2483  3.8771 -0.5212
 1525TIP3    H226211   5.065   1.353   7.983 -0.3594 -1.0084 -1.5080
 1526TIP3   OH226212   4.491   6.613   7.945 -0.6398 -0.4551 -0.0998
 1526TIP3    H126213   4.465   6.525   7.920  2.9033 -1.7168  0.3935
 1526TIP3    H226214   4.520   6.606   8.036 -2.4649  1.7162  0.7077
 1527TIP3   OH226215   3.915   2.224   6.864  0.4070  0.6787 -0.2222
 1527TIP3    H126216   4.010   2.217   6.862  0.4239 -0.1094  2.6178
 1527TIP3    H226217   3.884   2.134   6.873 -0.8254  0.4504 -5.1351
 1528TIP3   OH226218   5.502   1.201   6.983 -0.1825 -0.2981 -0.1588
 1528TIP3    H126219   5.531   1.240   7.065  1.6786 -0.8743 -0.5188
 1528TIP3    H226220   5.568   1.227   6.919 -1.7105  0.2958 -1.5384
 1529TIP3   OH226221   3.271   2.655   6.976  0.4311  0.2021 -0.0146
 1529TIP3    H126222   3.239   2.705   7.051 -0.4187 -0.8595  0.3480
 1529TIP3    H226223   3.196   2.600   6.950  1.8639 -2.1319  0.6678
 1530TIP3   OH226224   3.135   1.530   8.020  0.0908 -0.1887 -0.9063
 1530TIP3    H126225   3.064   1.589   7.997  0.6395  0.4482 -0.9804
 1530TIP3    H226226   3.212   1.587   8.029  0.5805 -0.8597 -0.7850
 1531TIP3   OH226227   4.342   5.366   7.799  0.6296 -0.4220 -0.3053
 1531TIP3    H126228   4.282   5.435   7.827  0.8852 -1.0824  1.9624
 1531TIP3    H226229   4.424   5.386   7.844  0.5566 -2.4394  0.7762
 1532TIP3   OH226230   2.734   0.599   8.133  0.0573  0.2054  0.2133
 1532TIP3    H126231   2.651   0.560   8.158  0.2575 -0.6326 -0.3980
 1532TIP3    H226232   2.772   0.631   8.215 -0.9551  0.7901  0.4636
 1533TIP3   OH226233   3.809   3.598   7.324 -0.4172 -0.1631 -0.5373
 1533TIP3    H126234   3.878   3.574   7.262 -1.1604 -0.5572 -1.2218
 1533TIP3    H226235   3.823   3.540   7.399  0.3157  0.1189 -0.4526
 1534TIP3   OH226236   4.542   0.455   0.405  0.6164 -0.3151  0.6211
 1534TIP3    H126237   4.556   0.520   0.474  0.3818 -1.6692  1.9753
 1534TIP3    H226238   4.451   0.468   0.379  0.4914 -0.2571  1.0730
 1535TIP3   OH226239   2.851   1.865   0.230 -0.5680 -0.6400 -0.0469
 1535TIP3    H126240   2.856   1.786   0.283 -2.5908 -0.5229  0.3768
 1535TIP3    H226241   2.760   1.894   0.240  0.2576  1.9377  0.0927
 1536TIP3   OH226242   3.087   1.225   1.726  0.0886 -0.0077 -0.6605
 1536TIP3    H126243   3.183   1.231   1.724  0.0514  0.3675 -1.6814
 1536TIP3    H226244   3.064   1.243   1.817  1.2340 -4.2452  0.5946
 1537TIP3   OH226245   3.518   0.251   8.184 -0.4852  0.0646 -0.4979
 1537TIP3    H126246   3.532   0.214   8.271 -0.2542 -0.5674 -0.8067
 1537TIP3    H226247   3.569   0.195   8.125 -1.2213  0.0594 -1.1301
 1538TIP3   OH226248   7.177   4.924   7.024  0.1429  0.0057 -0.2009
 1538TIP3    H126249   7.134   5.004   6.995 -0.0907 -0.0900 -0.1188
 1538TIP3    H226250   7.106   4.867   7.053  0.3108 -0.2114 -0.2087
 1539TIP3   OH226251   5.592   2.991   7.116  0.3956 -0.1175  0.0909
 1539TIP3    H126252   5.542   2.986   7.034  0.0097 -1.2871  0.3786
 1539TIP3    H226253   5.528   2.974   7.185  0.6395  1.2895  0.6683
 1540TIP3   OH226254   3.981   1.817   8.326 -0.1087  0.0769 -0.0756
 1540TIP3    H126255   3.932   1.856   8.254 -0.9104 -0.2278  0.3010
 1540TIP3    H226256   3.927   1.744   8.356 -0.1421  0.6531  1.3287
 1541TIP3   OH226257   4.738   3.594   6.259  0.2100 -0.2449 -0.0281
 1541TIP3    H126258   4.694   3.510   6.243  0.1760 -0.3692  0.6906
 1541TIP3    H226259   4.831   3.575   6.246  0.2817 -0.6094  1.0053
 1542TIP3   OH226260   4.539   1.163   1.200 -0.1360  0.2074  0.3555
 1542TIP3    H126261   4.454   1.154   1.244  1.1098  0.2235  2.8738
 1542TIP3    H226262   4.591   1.089   1.232  0.7241  0.0536 -1.3537
 1543TIP3   OH226263   6.852   2.199   1.396  0.3777  0.0001  0.3282
 1543TIP3    H126264   6.855   2.168   1.486  0.8030  0.0401  0.3287
 1543TIP3    H226265   6.934   2.246   1.383  0.1098  0.4081  0.0662
 1544TIP3   OH226266   6.253   2.821   1.144 -0.6345  0.8035  0.5121
 1544TIP3    H126267   6.216   2.881   1.208 -1.0676 -0.1661  1.1766
 1544TIP3    H226268   6.325   2.778   1.190 -0.3975  0.7292  0.0773
 1545TIP3   OH226269   0.419   4.064   6.765  0.2680  0.3743  0.0589
 1545TIP3    H126270   0.407   4.102   6.852 -0.1327  0.1292  0.1131
 1545TIP3    H226271   0.348   4.101   6.713  0.3432  0.3076 -0.0918
 1546TIP3   OH226272   5.916   2.485   7.611 -0.1241 -0.1214 -0.2166
 1546TIP3    H126273   5.980   2.482   7.683  0.2237  3.0029 -0.3128
 1546TIP3    H226274   5.831   2.480   7.655  0.1263 -1.3004  0.1541
 1547TIP3   OH226275   6.225   4.683   7.615 -0.3512 -0.1270 -0.3041
 1547TIP3    H126276   6.213   4.599   7.660 -1.5244  0.5770  0.7327
 1547TIP3    H226277   6.215   4.748   7.685  2.1438  0.8219 -0.7841
 1548TIP3   OH226278   5.450   1.906   7.798  0.0021  0.2912  0.2316
 1548TIP3    H126279   5.471   1.906   7.705 -2.0562  2.2022 -0.2754
 1548TIP3    H226280   5.532   1.930   7.841  1.1066 -1.1169 -1.0165
 1549TIP3   OH226281   4.089   1.835   7.498 -0.0648  0.4008  0.3698
 1549TIP3    H126282   4.064   1.766   7.559 -1.2869  1.6093  1.2743
 1549TIP3    H226283   4.019   1.838   7.434  2.3404 -2.4636 -2.5865
 1550TIP3   OH226284   4.086   2.960   8.268  0.0021  0.3558 -0.2359
 1550TIP3    H126285   4.144   2.907   8.213  1.8657  1.8070  0.2645
 1550TIP3    H226286   4.053   2.899   8.333  0.9376 -0.5244 -0.5713
 1551TIP3   OH226287   5.202   2.975   5.994 -0.2480  0.2608 -0.1956
 1551TIP3    H126288   5.288   3.006   5.966  0.4747 -1.9715 -0.5925
 1551TIP3    H226289   5.186   2.898   5.939 -1.9910 -0.0263  0.6790
 1552TIP3   OH226290   6.223   3.148   6.009  0.1122  0.0753  0.4634
 1552TIP3    H126291   6.197   3.223   5.956 -0.8577 -1.2961 -1.0628
 1552TIP3    H226292   6.317   3.158   6.021 -0.0453  1.6473  0.4740
 1553TIP3   OH226293   5.145   4.387   7.267  0.1235  0.1593 -0.0062
 1553TIP3    H126294   5.098   4.373   7.349  2.5437  1.4240  1.6482
 1553TIP3    H226295   5.237   4.379   7.290  0.8338 -0.3563 -2.7984
 1554TIP3   OH226296   4.425   1.467   6.947 -0.4894 -0.0684 -0.3828
 1554TIP3    H126297   4.338   1.496   6.975 -0.0041 -0.0209  1.1568
 1554TIP3    H226298   4.475   1.459   7.029  0.4193 -1.8654 -1.0779
 1555TIP3   OH226299   5.533   1.885   7.027 -0.1097  0.9907  0.0317
 1555TIP3    H126300   5.473   1.853   7.095  0.1634 -0.5125 -0.4116
 1555TIP3    H226301   5.480   1.887   6.948 -0.9608  4.5437  0.5897
 1556TIP3   OH226302   5.213   4.530   6.974 -0.0859  0.2420 -0.5210
 1556TIP3    H126303   5.277   4.522   7.045 -3.0540  1.9607  2.4953
 1556TIP3    H226304   5.156   4.454   6.985 -1.1768  1.0699 -0.3880
 1557TIP3   OH226305   5.306   1.601   7.658 -0.0279  0.9931  0.3068
 1557TIP3    H126306   5.337   1.537   7.593 -1.6565 -0.4576  0.9199
 1557TIP3    H226307   5.382   1.619   7.712  0.5289 -0.2203 -0.0532
 1558TIP3   OH226308   5.136   1.119   6.573  0.1530  0.4290 -0.3007
 1558TIP3    H126309   5.146   1.140   6.666  0.4616  0.2114 -0.2839
 1558TIP3    H226310   5.197   1.178   6.529  0.0709  0.4719 -0.3550
 1559TIP3   OH226311   4.247   1.814   8.365 -0.1178  0.5853 -0.3559
 1559TIP3    H126312   4.279   1.876   8.300  0.8654 -0.1559 -0.5920
 1559TIP3    H226313   4.152   1.811   8.351  0.0709  0.5173 -1.6662
 1560TIP3   OH226314   4.101   6.368   8.150  0.4566 -0.2444  0.1359
 1560TIP3    H126315   4.083   6.328   8.065 -1.9555  0.8559  0.0712
 1560TIP3    H226316   4.076   6.301   8.214  0.0933 -0.2531 -0.0130
 1561TIP3   OH226317   4.796   3.627   7.578  0.2515  0.3978 -0.6573
 1561TIP3    H126318   4.854   3.552   7.568  0.4485  0.3741  0.5817
 1561TIP3    H226319   4.718   3.592   7.620 -0.0410  0.7117 -0.9333
 1562TIP3   OH226320   3.896   2.609   7.248 -0.0400 -0.0813 -0.1726
 1562TIP3    H126321   3.926   2.695   7.276 -2.6696  0.6324  0.6449
 1562TIP3    H226322   3.842   2.626   7.171  0.5430 -1.1708 -0.8379
 1563TIP3   OH226323   4.759   4.686   6.776 -0.4857  0.2652  0.4983
 1563TIP3    H126324   4.761   4.724   6.864 -0.2516 -0.5298  0.8398
 1563TIP3    H226325   4.791   4.756   6.719  1.6920  0.0255  1.3455
 1564TIP3   OH226326   3.631   1.501   6.192 -0.0917 -0.2210 -0.4825
 1564TIP3    H126327   3.708   1.541   6.232 -0.7215 -0.8739  1.4200
 1564TIP3    H226328   3.581   1.575   6.158  0.4596  0.3470 -0.0721
 1565TIP3   OH226329   5.045   1.795   7.192 -0.0880 -0.8289 -0.5221
 1565TIP3    H126330   4.971   1.793   7.252  0.4954 -2.1171  0.1754
 1565TIP3    H226331   5.011   1.757   7.111 -1.2880  2.2466 -1.5366
 1566TIP3   OH226332   4.792   2.029   0.534 -0.5136  0.2765  0.2069
 1566TIP3    H126333   4.731   1.994   0.469 -0.8172 -0.9098  1.1030
 1566TIP3    H226334   4.743   2.027   0.616 -0.3860  2.4495  0.3644
 1567TIP3   OH226335   2.902   2.879   0.180 -0.5239  0.9936  0.1324
 1567TIP3    H126336   2.886   2.860   0.272 -2.8551 -1.7316 -0.7469
 1567TIP3    H226337   2.826   2.932   0.154 -0.8724  0.1299 -0.6452
 1568TIP3   OH226338   5.862   2.957   6.950  0.5471  0.5725  0.5117
 1568TIP3    H126339   5.778   3.000   6.962 -0.0455 -0.9988  2.2278
 1568TIP3    H226340   5.847   2.889   6.885  0.7708  0.9962  0.0090
 1569TIP3   OH226341   5.718   0.065   0.330  0.1367  0.1779 -0.5391
 1569TIP3    H126342   5.636   0.057   0.379 -0.2039  0.7305 -1.0138
 1569TIP3    H226343   5.774   0.119   0.386 -0.2872  0.8925 -0.7961
 1570TIP3   OH226344   3.459   4.846   7.437 -0.3348  0.1869  0.1785
 1570TIP3    H126345   3.550   4.870   7.424 -1.1862  3.3948 -0.2523
 1570TIP3    H226346   3.458   4.796   7.519  1.5260  1.8700  1.2570
 1571TIP3   OH226347   3.512   4.679   8.212  0.3044  0.2485  0.6364
 1571TIP3    H126348   3.585   4.731   8.178  0.6085 -0.8463 -0.4303
 1571TIP3    H226349   3.553   4.604   8.255 -0.1759 -1.0661 -1.1064
 1572TIP3   OH226350   3.882   5.443   7.118  0.1748 -0.1654  0.0667
 1572TIP3    H126351   3.816   5.435   7.186  0.6219  0.5394  0.6011
 1572TIP3    H226352   3.858   5.378   7.053 -1.7699  0.9290 -0.3464
 1573TIP3   OH226353   5.972   3.671   6.851  0.1219 -0.3040 -0.4737
 1573TIP3    H126354   5.961   3.662   6.946 -0.9438  1.2515 -0.4275
 1573TIP3    H226355   6.056   3.716   6.842 -0.4885  0.9238 -0.1841
 1574TIP3   OH226356   5.292   2.327   6.927 -0.0020  0.1736  0.2222
 1574TIP3    H126357   5.277   2.249   6.873  0.7632  0.1019  0.0964
 1574TIP3    H226358   5.205   2.361   6.947 -0.3453 -0.9503  0.6217
 1575TIP3   OH226359   4.923   2.030   6.350  0.4828 -0.3614 -0.6046
 1575TIP3    H126360   4.877   1.950   6.376  1.4474 -0.5601  0.5552
 1575TIP3    H226361   4.945   2.073   6.433 -0.0745  1.1433 -1.2223
 1576TIP3   OH226362   3.280   5.001   6.891  0.0317  0.0342  0.4155
 1576TIP3    H126363   3.231   5.032   6.815  0.7159  1.2120  0.4353
 1576TIP3    H226364   3.271   4.906   6.889  1.0709 -0.0268 -1.8236
 1577TIP3   OH226365   4.938   2.620   7.540  0.0170 -0.1799  0.2607
 1577TIP3    H126366   5.005   2.640   7.474 -0.1677 -1.4766 -0.3182
 1577TIP3    H226367   4.948   2.690   7.605  0.4061  0.9357 -0.9759
 1578TIP3   OH226368   5.338   0.916   6.860  0.2495  0.0121  0.2044
 1578TIP3    H126369   5.295   0.992   6.821 -1.9711 -1.5709 -0.5396
 1578TIP3    H226370   5.356   0.858   6.785  2.9298  0.2626  0.6100
 1579TIP3   OH226371   6.268   0.810   6.198 -0.0394 -0.1339  0.1365
 1579TIP3    H126372   6.189   0.863   6.196 -0.7729 -1.1729  0.9630
 1579TIP3    H226373   6.335   0.866   6.238 -0.6013  0.4062  0.3145
 1580TIP3   OH226374   5.563   2.644   7.472  0.4776 -0.9672 -0.0173
 1580TIP3    H126375   5.636   2.620   7.414  1.0988  0.2206  0.2523
 1580TIP3    H226376   5.585   2.733   7.502 -1.2062 -0.5139 -0.1192
 1581TIP3   OH226377   4.708   2.574   6.640  0.2138  0.0440  0.4935
 1581TIP3    H126378   4.713   2.479   6.634 -1.3232 -0.0843  0.9339
 1581TIP3    H226379   4.617   2.595   6.615  1.0497  1.5532 -1.4129
 1582TIP3   OH226380   5.188   1.336   5.953  0.1326 -0.1739 -0.1544
 1582TIP3    H126381   5.201   1.311   5.861 -1.1161 -0.1278 -0.3509
 1582TIP3    H226382   5.195   1.253   6.001 -1.9453 -0.6166 -0.5883
 1583TIP3   OH226383   4.820   0.442   8.291  0.0483  0.6351  0.4281
 1583TIP3    H126384   4.843   0.445   8.198  1.1163  2.2272  0.7187
 1583TIP3    H226385   4.755   0.512   8.303  0.0647  0.5739  0.9096
 1584TIP3   OH226386   5.287   6.799   6.857 -0.0314  0.4111  0.1493
 1584TIP3    H126387   5.271   6.765   6.769  2.2968  0.2901 -0.2587
 1584TIP3    H226388   5.367   6.754   6.886 -0.5443  0.7444  2.1590
 1585TIP3   OH226389   4.827   1.491   6.241  0.3920  0.2476  0.5742
 1585TIP3    H126390   4.920   1.473   6.231  0.2366  0.0103 -0.5382
 1585TIP3    H226391   4.787   1.404   6.251  0.0803  0.2226 -0.8546
 1586TIP3   OH226392   5.698   3.445   5.985 -0.0697  0.0708 -0.0808
 1586TIP3    H126393   5.726   3.533   6.010 -0.4275  0.0607  0.3751
 1586TIP3    H226394   5.756   3.387   6.033 -1.9629  0.0301  2.2461
 1587TIP3   OH226395   5.747   0.630   7.414  0.4694  0.2714  0.1602
 1587TIP3    H126396   5.752   0.647   7.320  4.4615 -2.4518 -0.2768
 1587TIP3    H226397   5.685   0.558   7.422  0.5556  0.1157 -0.5029
 1588TIP3   OH226398   5.220   2.030   7.670  0.1334  0.0039 -0.7891
 1588TIP3    H126399   5.276   1.976   7.726 -1.5095 -1.0156 -0.1020
 1588TIP3    H226400   5.135   1.986   7.671 -0.7975  1.7386 -1.5089
 1589TIP3   OH226401   5.016   0.838   6.844  0.4520  0.0519 -0.1435
 1589TIP3    H126402   5.056   0.790   6.916  1.5072  0.0169 -0.7450
 1589TIP3    H226403   5.013   0.775   6.772 -0.9429 -0.0315 -0.0347
 1590TIP3   OH226404   4.468   4.327   1.825  0.4707 -0.4343  0.3684
 1590TIP3    H126405   4.458   4.262   1.894 -0.5893 -0.0975  0.5490
 1590TIP3    H226406   4.531   4.390   1.860 -0.4221 -0.0021  1.2462
 1591TIP3   OH226407   5.408   3.316   6.669 -0.0614 -0.1533  0.3066
 1591TIP3    H126408   5.359   3.390   6.704  0.5190 -0.1415  1.0947
 1591TIP3    H226409   5.470   3.354   6.608 -1.2597 -0.1976 -0.9765
 1592TIP3   OH226410   5.611   3.549   6.631 -0.2729 -1.2631  0.1003
 1592TIP3    H126411   5.667   3.614   6.674 -1.1291 -1.7255  1.9908
 1592TIP3    H226412   5.564   3.598   6.563  0.4518 -0.3047  0.2869
 1593TIP3   OH226413   5.977   3.157   7.294  0.0438  0.0517  0.5830
 1593TIP3    H126414   5.959   3.237   7.345  0.3050  0.3937  0.1401
 1593TIP3    H226415   6.072   3.155   7.287 -0.0357  0.4845 -0.6556
 1594TIP3   OH226416   0.973   3.378   6.801  0.2319  0.6921  0.3547
 1594TIP3    H126417   0.920   3.455   6.784  1.0091  1.3777  1.0070
 1594TIP3    H226418   1.058   3.412   6.827  0.8249 -0.3898 -0.1062
 1595TIP3   OH226419   6.526   3.291   6.519 -0.2277  0.1814 -0.0128
 1595TIP3    H126420   6.478   3.230   6.573 -1.1611 -0.8789 -1.9955
 1595TIP3    H226421   6.618   3.269   6.533 -0.5428 -1.3801 -0.3500
 1596TIP3   OH226422   5.491   4.632   7.436 -0.2293 -0.1492  0.1235
 1596TIP3    H126423   5.466   4.701   7.498 -0.5407 -0.8927  0.8331
 1596TIP3    H226424   5.556   4.674   7.379 -1.1155  1.0097 -0.0602
 1597TIP3   OH226425   6.250   4.769   0.066  0.1106  0.3953  0.1572
 1597TIP3    H126426   6.204   4.755  -0.017 -2.1449 -0.5262  1.4939
 1597TIP3    H226427   6.312   4.696   0.072 -0.7530 -0.3673 -0.0510
 1598TIP3   OH226428   5.665   3.692   7.333 -0.3787 -0.4808 -0.3044
 1598TIP3    H126429   5.585   3.660   7.291 -0.7108 -0.0218 -0.0153
 1598TIP3    H226430   5.685   3.625   7.399 -0.6028 -0.5236 -0.2779
 1599TIP3   OH226431   6.499   0.625   0.943  0.0323 -0.4750 -0.2923
 1599TIP3    H126432   6.493   0.627   0.847  0.2208 -0.2589 -0.3003
 1599TIP3    H226433   6.579   0.575   0.961  1.2877  1.4678 -0.2970
 1600TIP3   OH226434   1.340   0.075   1.611  0.0951 -0.0958 -0.0752
 1600TIP3    H126435   1.256   0.044   1.644 -0.6246  0.0037 -1.7848
 1600TIP3    H226436   1.323   0.165   1.583  1.1504  0.4528  0.9795
 1601TIP3   OH226437   5.502   2.804   8.134 -0.3877  0.1666  0.3655
 1601TIP3    H126438   5.512   2.866   8.062 -1.7861  1.2333  1.0689
 1601TIP3    H226439   5.551   2.727   8.106 -1.1070  0.4747 -1.8384
 1602TIP3   OH226440   0.932   6.099   7.520  0.0961  0.0228  0.2654
 1602TIP3    H126441   0.985   6.177   7.503  0.9665 -0.9034 -1.4077
 1602TIP3    H226442   0.843   6.131   7.530  0.1903  1.0476 -2.0672
 1603TIP3   OH226443   6.718   4.137   7.930 -0.4722 -0.2397  0.0105
 1603TIP3    H126444   6.702   4.060   7.877  0.6158 -0.2575 -0.3083
 1603TIP3    H226445   6.631   4.169   7.953 -0.9858  0.2663 -2.4948
 1604TIP3   OH226446   5.211   1.779   7.857  0.2872 -0.2638 -0.1192
 1604TIP3    H126447   5.226   1.712   7.790  0.7295  0.3359 -0.6258
 1604TIP3    H226448   5.298   1.795   7.895  0.0845 -0.3947  0.4097
 1605TIP3   OH226449   6.378   7.203   6.538  0.2279  0.2492  0.6498
 1605TIP3    H126450   6.452   7.262   6.549  0.5946 -0.0396 -0.2387
 1605TIP3    H226451   6.340   7.226   6.454  0.8912 -1.3226 -0.1117
 1606TIP3   OH226452   5.515   4.583   8.419 -0.0077 -0.5555  0.4732
 1606TIP3    H126453   5.439   4.574   8.363 -0.4392 -0.1836  0.9861
 1606TIP3    H226454   5.583   4.620   8.363 -0.2625 -0.7171  0.0610
 1607TIP3   OH226455   6.878   3.777   7.247  0.0184  0.3582  0.1256
 1607TIP3    H126456   6.929   3.755   7.169 -0.4022 -0.7076  0.1398
 1607TIP3    H226457   6.788   3.781   7.215 -0.2105 -0.5598  0.6410
 1608TIP3   OH226458   4.272   0.732   6.900 -1.2333  0.0149  0.3349
 1608TIP3    H126459   4.345   0.758   6.844  0.1113 -1.3774  1.4046
 1608TIP3    H226460   4.294   0.643   6.929 -3.0872 -0.2181  1.1167
 1609TIP3   OH226461   0.341   7.156   0.200  0.0152 -0.2805  0.7483
 1609TIP3    H126462   0.431   7.182   0.179  0.4674 -1.6084  0.9931
 1609TIP3    H226463   0.310   7.224   0.260  0.8693  0.1575  0.7027
 1610TIP3   OH226464   6.029   3.123   0.313  0.2912  0.4186  0.3493
 1610TIP3    H126465   6.112   3.159   0.345  0.0593 -0.0337  1.4791
 1610TIP3    H226466   5.987   3.087   0.391  0.3587 -2.0023 -0.6807
 1611TIP3   OH226467   4.419   3.446   8.136 -0.8423 -0.9327 -0.0400
 1611TIP3    H126468   4.497   3.393   8.149 -0.3731 -0.1642  0.2692
 1611TIP3    H226469   4.366   3.431   8.215 -0.3946 -0.4020  0.3637
 1612TIP3   OH226470   4.678   2.643   1.004 -0.0840  0.4255  0.4877
 1612TIP3    H126471   4.770   2.638   1.032 -0.6312  2.5084  2.9021
 1612TIP3    H226472   4.652   2.552   0.993  1.9607 -0.2413  0.8342
 1613TIP3   OH226473   4.571   4.462   8.402 -0.4496 -0.7097  0.2299
 1613TIP3    H126474   4.538   4.378   8.371  1.7749 -1.5676  0.0986
 1613TIP3    H226475   4.575   4.516   8.323  0.4126 -1.2584 -0.1021
 1614TIP3   OH226476   6.667   0.941   7.139 -0.2235  0.0161 -0.1748
 1614TIP3    H126477   6.611   0.889   7.197  0.5813 -0.2688  0.3608
 1614TIP3    H226478   6.607   0.990   7.084 -0.9934  0.2453  0.8701
 1615TIP3   OH226479   6.444   2.487   7.053  0.2198  0.0738 -0.1104
 1615TIP3    H126480   6.473   2.444   6.972  0.9241 -0.4110  0.3913
 1615TIP3    H226481   6.491   2.570   7.055 -1.0236  0.8206 -1.0033
 1616TIP3   OH226482   5.366   1.865   6.788 -0.3861 -0.1667 -0.1526
 1616TIP3    H126483   5.407   1.782   6.766  0.0957 -0.1161  0.5603
 1616TIP3    H226484   5.365   1.914   6.706 -2.2784 -1.5531 -0.9819
 1617TIP3   OH226485   5.208   0.926   7.409 -0.0499 -0.1048 -0.2936
 1617TIP3    H126486   5.259   0.861   7.457 -0.5808  0.3838  0.9601
 1617TIP3    H226487   5.250   1.010   7.428 -1.2142  0.2908  0.6737
 1618TIP3   OH226488   5.993   2.746   7.358 -0.0117 -0.5256  0.2548
 1618TIP3    H126489   5.909   2.792   7.361 -0.6734 -1.7677  1.7505
 1618TIP3    H226490   5.974   2.659   7.393  1.8508 -0.8972  0.4101
 1619TIP3   OH226491   0.899   4.176   0.542  0.4709  0.4778 -0.4831
 1619TIP3    H126492   0.957   4.247   0.515 -0.2138  1.4010  0.4155
 1619TIP3    H226493   0.827   4.179   0.478  0.2520  0.8452 -0.2224
 1620TIP3   OH226494   4.425   1.649   1.394 -0.1242  0.3851 -0.0692
 1620TIP3    H126495   4.395   1.606   1.474  0.0416  2.4052  1.1045
 1620TIP3    H226496   4.493   1.591   1.360  1.1306  0.4456  2.2625
 1621TIP3   OH226497   5.797   2.525   7.359 -0.1045  0.4125 -0.1685
 1621TIP3    H126498   5.852   2.529   7.437  0.2092  0.9384 -0.4112
 1621TIP3    H226499   5.859   2.527   7.286 -0.3156 -1.4738 -0.4329
 1622TIP3   OH226500   4.580   4.486   7.554 -0.5075  0.4183  0.1773
 1622TIP3    H126501   4.536   4.412   7.513 -2.2024  0.9223  1.0638
 1622TIP3    H226502   4.657   4.501   7.500 -0.3616 -1.7355 -0.2390
 1623TIP3   OH226503   5.484   3.085   6.196 -0.2663  0.1326  0.1787
 1623TIP3    H126504   5.468   3.035   6.276 -0.8261  0.3524  0.2042
 1623TIP3    H226505   5.505   3.020   6.130 -0.5438 -0.1033  0.3228
 1624TIP3   OH226506   5.496   3.616   8.164 -0.4138  0.7034  0.2266
 1624TIP3    H126507   5.494   3.536   8.216 -0.6430  2.0522  2.3833
 1624TIP3    H226508   5.578   3.659   8.190 -0.3021  1.1690 -0.8851
 1625TIP3   OH226509   5.839   1.819   6.744  0.2979  0.0995 -0.3037
 1625TIP3    H126510   5.869   1.798   6.655 -0.4214 -1.9507 -0.0988
 1625TIP3    H226511   5.759   1.871   6.730  1.5370  1.8928 -0.8369
 1626TIP3   OH226512   0.358   3.041   6.485 -0.0269  0.4618  0.0631
 1626TIP3    H126513   0.413   3.003   6.416 -2.3723 -0.3955 -1.3731
 1626TIP3    H226514   0.313   2.966   6.523 -2.5851  1.4802 -0.8984
 1627TIP3   OH226515   4.544   3.635   7.065 -0.1119 -0.3245  0.1200
 1627TIP3    H126516   4.543   3.590   7.150  1.2154  0.5220  0.5898
 1627TIP3    H226517   4.473   3.698   7.072 -0.7025 -0.9827  0.1934
 1628TIP3   OH226518   6.468   4.154   7.943 -0.0239 -0.0033 -0.2188
 1628TIP3    H126519   6.403   4.120   8.006 -1.2232 -0.1972 -1.5265
 1628TIP3    H226520   6.425   4.144   7.858  1.0156  1.6023 -0.9356
 1629TIP3   OH226521   5.858   5.460   0.595 -0.4793  0.2755 -0.5300
 1629TIP3    H126522   5.909   5.405   0.536 -0.1608 -0.2461  0.2145
 1629TIP3    H226523   5.833   5.401   0.667 -3.6793  0.0394 -1.7323
 1630TIP3   OH226524   0.483   0.710   6.527  0.4109  0.2944  0.5163
 1630TIP3    H126525   0.491   0.625   6.571  2.3381  0.1641 -0.0200
 1630TIP3    H226526   0.391   0.733   6.534  0.0600 -1.3826  1.5431
 1631TIP3   OH226527   6.554   3.272   6.871  0.1690  0.5127  0.2059
 1631TIP3    H126528   6.557   3.177   6.873  0.9701  0.5525  1.6681
 1631TIP3    H226529   6.468   3.293   6.836  0.4916 -0.7459 -1.3834
 1632TIP3   OH226530   6.525   4.324   0.017 -0.2701 -0.4423 -0.2470
 1632TIP3    H126531   6.585   4.312   0.090  0.7683 -0.8221 -1.1593
 1632TIP3    H226532   6.563   4.274  -0.055 -2.0334 -1.2730 -0.6378
 1633TIP3   OH226533   4.796   4.173   7.616  0.1802 -0.8166 -0.4382
 1633TIP3    H126534   4.702   4.180   7.630  0.4399  0.9280  0.5983
 1633TIP3    H226535   4.823   4.097   7.667 -0.9368 -2.4900 -2.2623
 1634TIP3   OH226536   4.554   4.452   0.397 -0.6420 -0.7636 -0.2835
 1634TIP3    H126537   4.580   4.481   0.310 -1.9534  1.1948 -0.0582
 1634TIP3    H226538   4.516   4.365   0.382  0.6457 -1.1591 -1.4038
 1635TIP3   OH226539   5.756   3.744   6.714  0.0841 -0.3172  0.9042
 1635TIP3    H126540   5.828   3.713   6.769  1.0643 -0.0684 -0.2283
 1635TIP3    H226541   5.798   3.796   6.646 -1.2394  0.5332  0.7119
 1636TIP3   OH226542   5.743   1.641   7.254  0.4511 -0.6150 -0.1108
 1636TIP3    H126543   5.735   1.653   7.349 -2.5196 -0.5795 -0.3066
 1636TIP3    H226544   5.782   1.722   7.222 -0.4404  0.2054  0.8573
 1637TIP3   OH226545   0.789   4.596   7.348  0.2992  0.7972 -0.1323
 1637TIP3    H126546   0.880   4.619   7.334  0.3801 -0.6220 -2.0818
 1637TIP3    H226547   0.743   4.632   7.272 -0.9397  2.3266  1.2887
 1638TIP3   OH226548   0.111   4.124   6.343 -0.1477  0.0712  0.1713
 1638TIP3    H126549   0.161   4.190   6.294 -1.6347  1.2379  0.2102
 1638TIP3    H226550   0.038   4.172   6.381 -1.1272 -1.5691  0.3944
 1639TIP3   OH226551   6.508   3.408   1.759 -0.5085  0.6050 -0.1150
 1639TIP3    H126552   6.491   3.452   1.842  0.8932  0.8458  0.0614
 1639TIP3    H226553   6.582   3.350   1.777  0.5018  1.4472 -1.4409
 1640TIP3   OH226554   4.829   5.491   1.327 -0.0105  0.4582 -0.2976
 1640TIP3    H126555   4.755   5.495   1.387  1.4784 -3.2115  1.9261
 1640TIP3    H226556   4.903   5.525   1.376  0.7673 -0.4532 -0.8160
 1641TIP3   OH226557   5.156   2.052   6.883  0.0173 -0.3594  0.0693
 1641TIP3    H126558   5.238   2.010   6.855  0.2413  0.1878 -0.0980
 1641TIP3    H226559   5.165   2.059   6.978  0.9803  1.3902 -0.1286
 1642TIP3   OH226560   6.595   3.175   0.914 -0.2128 -0.1750  0.5134
 1642TIP3    H126561   6.565   3.181   1.005 -0.8378 -0.8624  0.3538
 1642TIP3    H226562   6.681   3.135   0.920 -0.4239 -0.5923  0.7721
 1643TIP3   OH226563   6.641   2.581   1.286 -0.0611  0.0409  0.3064
 1643TIP3    H126564   6.642   2.486   1.294  0.3571 -0.0417 -0.7221
 1643TIP3    H226565   6.732   2.608   1.296  0.0751  0.1770 -1.1495
 1644TIP3   OH226566   5.333   2.950   7.185  0.0302  0.0453  0.0925
 1644TIP3    H126567   5.258   2.984   7.136 -0.2633 -1.2410 -0.3806
 1644TIP3    H226568   5.334   2.856   7.165  1.9768  0.1088 -0.1902
 1645TIP3   OH226569   5.005   1.835   8.484 -0.7843  0.6479  0.4377
 1645TIP3    H126570   5.069   1.832   8.555  0.8153 -0.9873 -1.0050
 1645TIP3    H226571   4.925   1.799   8.522 -0.0249  0.0284  1.4832
 1646TIP3   OH226572   5.493   2.289   6.702 -0.2310  0.1392 -0.1177
 1646TIP3    H126573   5.515   2.306   6.794  0.0371 -1.2800  0.1006
 1646TIP3    H226574   5.497   2.374   6.660 -0.6861  0.8673  1.2584
 1647TIP3   OH226575   0.312   0.436   1.394 -0.1841 -0.6026 -0.5433
 1647TIP3    H126576   0.405   0.413   1.391  0.1621  0.7513 -0.5964
 1647TIP3    H226577   0.288   0.427   1.486  0.5186  0.9847 -0.1892
 1648TIP3   OH226578   4.878   1.094   7.484  0.0818 -0.1721  0.3233
 1648TIP3    H126579   4.792   1.099   7.441 -0.3035 -0.4834  1.0487
 1648TIP3    H226580   4.941   1.111   7.414 -0.6783  3.4148  0.3878
 1649TIP3   OH226581   3.829   1.641   1.415 -0.6862  0.1539 -0.2829
 1649TIP3    H126582   3.850   1.649   1.322  0.6516  0.4379  0.0271
 1649TIP3    H226583   3.813   1.547   1.428 -1.8564  0.2512 -0.9893
 1650TIP3   OH226584   6.562   4.169   7.514 -0.4624 -0.3150  0.5147
 1650TIP3    H126585   6.483   4.128   7.549 -0.4894 -1.4658 -0.8726
 1650TIP3    H226586   6.633   4.130   7.565 -0.6662 -0.3437  0.7824
 1651TIP3   OH226587   4.705   7.310   1.310 -0.0033  0.2748 -0.2264
 1651TIP3    H126588   4.761   7.247   1.264 -0.7095 -1.0102  0.6590
 1651TIP3    H226589   4.732   7.304   1.401  0.2061  1.5803 -0.1877
 1652TIP3   OH226590   5.840   2.327   6.280 -0.4763  0.3691  0.0332
 1652TIP3    H126591   5.761   2.280   6.309 -0.1962  0.8847  1.6833
 1652TIP3    H226592   5.827   2.417   6.311 -0.4959  1.1461 -2.1338
 1653TIP3   OH226593   6.844   4.000   6.828 -0.1299 -0.5581  0.1452
 1653TIP3    H126594   6.894   4.039   6.900  0.5771 -0.2402 -0.5083
 1653TIP3    H226595   6.816   3.915   6.862 -0.0422 -0.2952  0.8949
 1654TIP3   OH226596   6.483   2.704   6.355 -0.0529 -0.2963  0.6806
 1654TIP3    H126597   6.476   2.793   6.319 -0.9473  0.0275  1.6375
 1654TIP3    H226598   6.435   2.649   6.292 -0.4773  0.0763  0.6744
 1655TIP3   OH226599   4.745   0.898   6.765 -0.6065 -0.2712 -0.0336
 1655TIP3    H126600   4.822   0.889   6.821 -0.9721  1.4059  0.7625
 1655TIP3    H226601   4.730   0.992   6.759 -0.5709 -0.4316 -2.9856
 1656TIP3   OH226602   5.402   1.597   8.237  0.2156 -0.1756 -0.2868
 1656TIP3    H126603   5.316   1.630   8.212 -0.6856 -2.0045  0.2869
 1656TIP3    H226604   5.414   1.628   8.326  0.4415  0.6357 -0.5987
 1657TIP3   OH226605   5.026   3.248   1.658  0.2357 -0.4442  0.0846
 1657TIP3    H126606   5.004   3.168   1.706 -1.1345  0.2652  0.6745
 1657TIP3    H226607   5.020   3.318   1.724  0.3012  0.2885 -0.6808
 1658TIP3   OH226608   0.340   4.383   0.375 -0.2889 -0.2469 -0.1054
 1658TIP3    H126609   0.325   4.475   0.400 -0.2035  0.4360 -2.4638
 1658TIP3    H226610   0.362   4.387   0.282 -0.3673 -2.6862 -0.2496
 1659TIP3   OH226611   0.714   5.039   7.869 -0.5929  0.0243 -0.8775
 1659TIP3    H126612   0.629   5.037   7.824 -1.3377  0.1563  0.4883
 1659TIP3    H226613   0.735   5.133   7.875 -1.4977  0.1339  0.8627
 1660TIP3   OH226614   6.679   7.100   1.070  0.3313 -0.0891  0.5792
 1660TIP3    H126615   6.689   7.147   1.152  2.2403  2.4293 -1.0544
 1660TIP3    H226616   6.768   7.089   1.037 -0.3486 -1.8828 -0.7214
 1661TIP3   OH226617   5.450   5.105   6.662 -0.2955  0.4778 -0.5192
 1661TIP3    H126618   5.363   5.090   6.700  0.1215 -1.7271 -0.3836
 1661TIP3    H226619   5.438   5.094   6.568  0.0721 -1.2319 -0.3943
 1662TIP3   OH226620   6.247   4.961   8.261  0.3529 -0.2309 -0.4206
 1662TIP3    H126621   6.240   5.005   8.176 -0.2767 -0.2049 -0.3590
 1662TIP3    H226622   6.338   4.934   8.267  0.5926  0.5100 -0.7399
 1663TIP3   OH226623   5.434   5.048   8.488  0.7559  0.3222  0.3218
 1663TIP3    H126624   5.446   5.037   8.582  0.8320 -0.6454  0.2035
 1663TIP3    H226625   5.344   5.020   8.472  1.0945 -0.5759 -0.0499
 1664TIP3   OH226626   6.909   3.614   6.547 -0.1504  0.3375  0.0402
 1664TIP3    H126627   6.922   3.695   6.498  1.4002 -0.2295 -0.5345
 1664TIP3    H226628   6.977   3.555   6.513 -1.2331 -1.1833  0.4794
 1665TIP3   OH226629   5.734   1.978   7.494  0.6964 -0.4655  0.4537
 1665TIP3    H126630   5.803   2.035   7.463  0.0241  0.2931  0.3450
 1665TIP3    H226631   5.776   1.892   7.504  2.1049  0.3918  2.1515
 1666TIP3   OH226632   7.215   4.698   0.156  0.2421  0.4451  0.2228
 1666TIP3    H126633   7.290   4.682   0.099 -0.6163  0.8709 -1.0301
 1666TIP3    H226634   7.208   4.793   0.162 -0.6062  0.4134 -0.2035
 1667TIP3   OH226635   5.104   4.422   7.556 -0.1211  0.4183  0.2765
 1667TIP3    H126636   5.189   4.394   7.521 -0.1134  0.8730 -0.0796
 1667TIP3    H226637   5.123   4.505   7.600 -0.4821  0.8183 -0.3113
 1668TIP3   OH226638   4.067   1.597   0.380 -0.3843  0.8036  0.0800
 1668TIP3    H126639   4.086   1.690   0.363 -0.4212  0.5853 -1.2322
 1668TIP3    H226640   4.148   1.562   0.416 -0.2569  1.2727  0.2498
 1669TIP3   OH226641   5.730   3.773   0.368 -0.4521  0.1009  0.2634
 1669TIP3    H126642   5.778   3.719   0.305  0.2018  0.6491  0.2891
 1669TIP3    H226643   5.772   3.859   0.364 -1.6641  0.7075  0.0086
 1670TIP3   OH226644   7.078   2.988   5.982 -0.0764  0.1551 -0.2083
 1670TIP3    H126645   7.161   2.957   5.945  0.7843  2.2888 -0.1358
 1670TIP3    H226646   7.103   3.059   6.041 -1.7480 -0.9158  1.8741
 1671TIP3   OH226647   0.030   3.450   6.331 -0.1433  0.2606 -0.7513
 1671TIP3    H126648   0.125   3.458   6.326 -0.0763 -0.5518 -0.8788
 1671TIP3    H226649   0.005   3.406   6.250 -0.4642 -0.8325 -0.0772
 1672TIP3   OH226650   5.530   2.899   1.221  0.2989  0.5338  0.4224
 1672TIP3    H126651   5.485   2.826   1.179  2.5544 -1.0248  0.6071
 1672TIP3    H226652   5.539   2.872   1.313  0.6987  1.2760  0.6093
 1673TIP3   OH226653   7.310   2.860   5.886  0.1639  0.3748  0.2250
 1673TIP3    H126654   7.402   2.882   5.898  1.3574 -3.7056 -0.6582
 1673TIP3    H226655   7.303   2.834   5.794 -1.1999 -2.1155  0.9848
 1674TIP3   OH226656   5.935   4.165   7.710  1.0135 -0.8993 -0.1268
 1674TIP3    H126657   5.973   4.078   7.698 -0.6564 -1.6821  0.0506
 1674TIP3    H226658   5.928   4.201   7.622  2.1812 -0.7135 -0.1581
 1675TIP3   OH226659   6.580   2.825   6.872  0.5027 -0.2862  0.7305
 1675TIP3    H126660   6.596   2.775   6.791 -0.9683  1.0548 -0.4175
 1675TIP3    H226661   6.487   2.812   6.890  0.6855 -0.0559  1.8702
 1676TIP3   OH226662   6.479   2.958   6.586 -0.2733 -0.0170 -0.1893
 1676TIP3    H126663   6.520   2.872   6.598 -0.3371  0.0332  0.3913
 1676TIP3    H226664   6.480   2.972   6.491 -1.4767 -1.2631 -0.4057
 1677TIP3   OH226665   1.426   4.683   8.298 -0.4589 -0.1428 -0.1526
 1677TIP3    H126666   1.410   4.726   8.213  1.1437  2.0973  0.6151
 1677TIP3    H226667   1.509   4.637   8.285 -1.6390 -2.1699 -0.6403
 1678TIP3   OH226668   4.175   2.775   8.077 -0.5495  0.0290  0.3372
 1678TIP3    H126669   4.259   2.744   8.043 -0.8405 -0.1102 -0.2748
 1678TIP3    H226670   4.113   2.707   8.051 -0.7715 -0.0994  1.1997
 1679TIP3   OH226671   6.014   0.991   0.796  0.5335  0.2233  0.2532
 1679TIP3    H126672   6.008   0.899   0.821 -0.4978 -0.1358 -1.2364
 1679TIP3    H226673   6.073   0.992   0.721  0.7639  0.8055  0.4439
 1680TIP3   OH226674   0.132   2.814   6.255  0.6285  0.1907  0.2820
 1680TIP3    H126675   0.058   2.753   6.257  1.7413 -1.1980 -0.0477
 1680TIP3    H226676   0.093   2.899   6.236 -1.3556  0.2071  3.8917
 1681TIP3   OH226677   4.919   2.251   8.197 -0.2428 -0.9762  0.4369
 1681TIP3    H126678   4.946   2.160   8.214 -0.6314 -1.4295 -1.2427
 1681TIP3    H226679   5.001   2.297   8.179 -0.1520 -1.2644  0.1114
 1682TIP3   OH226680   5.919   3.435   7.458 -0.7834 -0.5608  0.0409
 1682TIP3    H126681   5.956   3.521   7.442 -1.5887 -0.7029 -2.8371
 1682TIP3    H226682   5.828   3.452   7.483 -1.0562 -0.6002 -0.9302
 1683TIP3   OH226683   6.269   3.118   6.446 -0.3925 -0.0828  0.4249
 1683TIP3    H126684   6.250   3.200   6.402 -0.1882  0.1942  0.8507
 1683TIP3    H226685   6.340   3.079   6.395 -3.2259 -1.9890 -2.2519
 1684TIP3   OH226686   4.962   3.070   0.318 -0.0717  0.2486 -0.2334
 1684TIP3    H126687   4.984   3.164   0.313 -0.5544  0.4946  2.0020
 1684TIP3    H226688   5.006   3.039   0.397 -2.4076 -0.7163  0.7402
 1685TIP3   OH226689   1.091   1.210   6.565  0.1555 -0.0153 -0.8614
 1685TIP3    H126690   1.020   1.274   6.575 -0.0962 -0.6037  1.3861
 1685TIP3    H226691   1.129   1.230   6.480 -0.4249  2.6290 -0.5573
 1686TIP3   OH226692   0.014   4.093   5.981  0.5321 -0.2768  0.1735
 1686TIP3    H126693  -0.074   4.086   6.020  0.8273  0.2487  0.9436
 1686TIP3    H226694   0.062   4.150   6.040  1.1179  0.2003 -0.7539
 1687TIP3   OH226695   6.589   2.372   6.094  0.2142  0.1204  0.4743
 1687TIP3    H126696   6.597   2.410   6.006 -1.1732  0.6750  0.5761
 1687TIP3    H226697   6.535   2.435   6.142  0.7977 -0.2822  1.6740
 1688TIP3   OH226698   4.675   1.272   0.754  0.2081  0.1988 -0.2331
 1688TIP3    H126699   4.649   1.348   0.806  0.5689  2.0329 -2.6505
 1688TIP3    H226700   4.770   1.266   0.765 -0.1193 -1.5497  2.0527
 1689TIP3   OH226701   6.746   2.326   6.582 -0.2553  0.5728 -0.0119
 1689TIP3    H126702   6.677   2.262   6.566 -0.9550  1.2425  0.3060
 1689TIP3    H226703   6.790   2.335   6.498  0.3060 -0.8464  0.1080
 1690TIP3   OH226704   4.907   3.163   6.630  0.6513  0.2217  0.0787
 1690TIP3    H126705   4.918   3.229   6.698  0.1130  0.7534 -0.3413
 1690TIP3    H226706   4.864   3.090   6.674  1.2303  0.1581  0.5411
 1691TIP3   OH226707   6.954   1.038   6.551  0.2067 -0.2679 -0.3281
 1691TIP3    H126708   6.947   1.125   6.512  1.1948  1.2175  2.6226
 1691TIP3    H226709   7.046   1.014   6.540  1.2390  1.4895  3.5520
 1692TIP3   OH226710   4.524   4.232   7.744 -0.0455 -0.0988 -0.0313
 1692TIP3    H126711   4.520   4.143   7.778 -0.3718 -0.4296 -0.9242
 1692TIP3    H226712   4.443   4.244   7.696  0.0439  0.6454 -0.0141
 1693TIP3   OH226713   6.269   2.284   7.067 -0.4513  0.4119  0.1987
 1693TIP3    H126714   6.317   2.367   7.066  1.0697 -0.4592  0.0206
 1693TIP3    H226715   6.179   2.309   7.086  0.1487  2.0292  0.9729
 1694TIP3   OH226716   6.989   2.360   6.710 -0.8333 -0.5391 -0.0416
 1694TIP3    H126717   7.033   2.340   6.627  0.4159 -2.4873  1.0410
 1694TIP3    H226718   6.896   2.351   6.691 -0.6240  0.3130 -1.5395
 1695TIP3   OH226719   4.578   2.996   6.474 -0.1482 -0.3807 -0.4504
 1695TIP3    H126720   4.528   3.044   6.408  0.0195  0.0404 -0.2714
 1695TIP3    H226721   4.550   3.035   6.557  0.4487 -0.1738 -0.3502
 1696TIP3   OH226722   5.310   4.761   1.680 -0.3016  0.3317  0.3044
 1696TIP3    H126723   5.244   4.790   1.743  0.9934  1.4836  1.1580
 1696TIP3    H226724   5.352   4.841   1.649 -0.2989 -0.2931 -1.3364
 1697TIP3   OH226725   4.106   3.840   6.972  0.0627  0.3349 -0.4869
 1697TIP3    H126726   4.099   3.801   6.885  0.2682  0.7840 -0.7031
 1697TIP3    H226727   4.021   3.822   7.013 -0.0839  0.2416 -0.8305
 1698TIP3   OH226728   5.397   3.692   7.273  0.2747 -0.4432  0.1390
 1698TIP3    H126729   5.310   3.726   7.252  0.5918 -0.3078 -0.9572
 1698TIP3    H226730   5.394   3.677   7.368 -1.2489 -1.3060 -0.0254
 1699TIP3   OH226731   7.126   2.784   6.403  0.3952 -0.4745 -0.3129
 1699TIP3    H126732   7.183   2.719   6.360 -1.5270 -2.1179 -0.4685
 1699TIP3    H226733   7.068   2.731   6.459  0.3269  1.3306  1.3561
 1700TIP3   OH226734   6.862   3.754   7.530  0.4697 -0.5301  0.2314
 1700TIP3    H126735   6.945   3.792   7.503  0.0548 -0.0876 -0.4267
 1700TIP3    H226736   6.815   3.735   7.449 -0.5282  0.2317  0.6133
 1701TIP3   OH226737   0.665   4.643   8.370 -0.0046  0.3548  0.4637
 1701TIP3    H126738   0.738   4.583   8.353  0.0487  0.3161  0.8196
 1701TIP3    H226739   0.689   4.724   8.326  0.8997  0.7903  1.7326
 1702TIP3   OH226740   6.052   4.912   6.506 -0.3897 -0.1318 -0.1059
 1702TIP3    H126741   5.995   4.953   6.441 -0.4345  1.5298  0.9436
 1702TIP3    H226742   6.140   4.940   6.481 -0.5675  1.9931  1.5678
 1703TIP3   OH226743   5.726   3.065   6.598  0.1149  0.0490  0.1236
 1703TIP3    H126744   5.819   3.063   6.575 -0.1286 -0.6377 -0.8361
 1703TIP3    H226745   5.715   3.147   6.646  0.9521  0.7983 -0.9358
 1704TIP3   OH226746   7.252   4.300   6.443  0.2325  0.5897  0.0330
 1704TIP3    H126747   7.289   4.351   6.515  0.8930  0.1314  0.0223
 1704TIP3    H226748   7.238   4.365   6.373 -1.5039  1.2416  0.9639
 1705TIP3   OH226749   4.659   3.317   8.199  0.0902  0.2430 -0.7641
 1705TIP3    H126750   4.705   3.246   8.155 -0.6635 -0.3942 -0.5342
 1705TIP3    H226751   4.727   3.365   8.246  0.6951  0.0887 -1.4742
 1706TIP3   OH226752   5.636   5.044   7.220 -0.1640 -0.1504  0.0640
 1706TIP3    H126753   5.573   5.116   7.228 -0.2244  0.0642 -2.0099
 1706TIP3    H226754   5.639   5.026   7.126  2.0540 -0.9021  0.2621
 1707TIP3   OH226755   5.805   1.238   0.232 -0.1735 -0.2234  0.2816
 1707TIP3    H126756   5.789   1.318   0.283 -1.8752 -0.3512 -0.0049
 1707TIP3    H226757   5.847   1.178   0.293 -0.6331  0.2245  1.0445
 1708TIP3   OH226758   6.887   4.402   7.486  0.5024  0.2433 -0.5040
 1708TIP3    H126759   6.975   4.372   7.462  1.8429  2.9187  0.8319
 1708TIP3    H226760   6.854   4.334   7.544  2.3571 -0.0302  0.2792
 1709TIP3   OH226761   5.398   1.795   7.232  0.0351 -0.1481 -0.1241
 1709TIP3    H126762   5.349   1.869   7.270 -0.5632 -0.3661 -0.4584
 1709TIP3    H226763   5.397   1.728   7.300  0.7229  0.2075  0.2445
 1710TIP3   OH226764   7.301   1.769   6.617 -0.1196  0.0851  0.2504
 1710TIP3    H126765   7.366   1.713   6.659  0.5282  0.6376 -0.0114
 1710TIP3    H226766   7.352   1.838   6.574 -0.7364 -0.6186 -1.6943
 1711TIP3   OH226767   5.650   7.274   1.160  0.8658  0.0058 -0.1335
 1711TIP3    H126768   5.719   7.212   1.184  0.9225 -0.3091 -1.0805
 1711TIP3    H226769   5.600   7.287   1.240  1.1076 -0.9483  0.1778
 1712TIP3   OH226770   0.971   1.571   1.539  0.0495 -0.5214  0.0317
 1712TIP3    H126771   0.886   1.558   1.496  0.3101  0.8406 -0.9349
 1712TIP3    H226772   1.003   1.482   1.555 -0.5810 -1.0702 -1.5749
 1713TIP3   OH226773   5.700   2.655   7.904  0.2366  0.3570  0.4272
 1713TIP3    H126774   5.762   2.713   7.859 -1.4526  1.6420 -0.2826
 1713TIP3    H226775   5.661   2.602   7.834 -1.3189  1.3364  0.5284
 1714TIP3   OH226776   0.360   2.081   1.987  0.1653 -0.4428  0.2776
 1714TIP3    H126777   0.326   2.006   2.035 -1.1596 -0.0418 -0.0039
 1714TIP3    H226778   0.352   2.155   2.048 -0.9643 -0.0503 -0.3154
 1715TIP3   OH226779   5.743   1.626   1.104  0.0727 -0.2000 -0.2078
 1715TIP3    H126780   5.826   1.594   1.138  1.0712  0.8221 -1.6202
 1715TIP3    H226781   5.706   1.678   1.176  0.3260 -1.2097  0.6574
 1716TIP3   OH226782   0.754   1.725   6.549 -0.6169  0.6938  0.0636
 1716TIP3    H126783   0.763   1.815   6.519 -3.8789  0.4067 -2.0384
 1716TIP3    H226784   0.820   1.677   6.500  1.1030  1.9128  1.1576
 1717TIP3   OH226785   6.347   7.074   0.174 -0.3391 -0.0298  0.4166
 1717TIP3    H126786   6.337   7.113   0.261 -0.0862 -0.8110  0.8010
 1717TIP3    H226787   6.386   6.988   0.190  1.7719  0.7014 -0.6360
 1718TIP3   OH226788   0.721   2.315   1.607  0.0332  0.6890 -0.5136
 1718TIP3    H126789   0.649   2.336   1.547  0.5020  0.5144 -1.1419
 1718TIP3    H226790   0.680   2.259   1.674 -0.8762  2.3135  0.3130
 1719TIP3   OH226791   5.142   4.086   7.699 -0.6008  0.0958  0.2163
 1719TIP3    H126792   5.225   4.130   7.720 -0.4709  1.1103 -2.2611
 1719TIP3    H226793   5.098   4.077   7.783  0.4302  2.8239  1.0946
 1720TIP3   OH226794   4.950   3.597   7.047  0.4805  0.8418  0.5072
 1720TIP3    H126795   4.876   3.627   7.100 -0.3088 -2.3352  1.3492
 1720TIP3    H226796   5.006   3.550   7.109  1.5820  0.5016 -0.7307
 1721TIP3   OH226797   6.099   3.575   0.494  0.2334 -0.4513 -0.2216
 1721TIP3    H126798   6.055   3.612   0.417 -0.4079 -0.4515  0.1511
 1721TIP3    H226799   6.146   3.499   0.459  0.1486 -0.3061 -0.6637
 1722TIP3   OH226800   0.360   5.605   0.308  0.1099 -0.2182 -0.1494
 1722TIP3    H126801   0.269   5.607   0.279  0.4710  0.9290 -1.2267
 1722TIP3    H226802   0.411   5.611   0.228  1.1189  1.0404  0.5741
 1723TIP3   OH226803   7.184   2.153   6.033 -0.1037  0.2393 -0.0457
 1723TIP3    H126804   7.195   2.061   6.058  0.3659  0.0532 -0.9474
 1723TIP3    H226805   7.096   2.175   6.065  0.1929 -0.2098  1.1273
 1724TIP3   OH226806   6.073   3.917   8.278  0.2410 -0.0444 -0.3880
 1724TIP3    H126807   6.082   3.843   8.338 -1.5171 -0.0222 -0.0677
 1724TIP3    H226808   6.084   3.994   8.333  2.0589 -0.0538 -0.7186
 1725TIP3   OH226809   5.899   3.026   1.883 -0.2382  0.3345  0.2707
 1725TIP3    H126810   5.819   3.011   1.833 -0.0205  0.3002 -0.0655
 1725TIP3    H226811   5.888   3.113   1.920  0.2258  0.9598 -1.0254
 1726TIP3   OH226812   0.346   2.623   6.129 -0.3630 -0.3486 -0.5844
 1726TIP3    H126813   0.295   2.677   6.189 -1.4029  0.1433 -1.9011
 1726TIP3    H226814   0.436   2.631   6.161 -0.8476  0.2195  0.6689
 1727TIP3   OH226815   1.354   4.532   7.745  0.4310  0.1118  0.1422
 1727TIP3    H126816   1.329   4.625   7.749  1.2792  0.3842 -0.7205
 1727TIP3    H226817   1.406   4.525   7.665  1.1908 -0.9118  0.7192
 1728TIP3   OH226818   2.259   3.124   7.973 -0.2969  0.1968 -0.1786
 1728TIP3    H126819   2.344   3.138   8.015 -0.7113  0.9885  0.4005
 1728TIP3    H226820   2.205   3.197   8.004 -1.3676 -0.6399 -0.0749
 1729TIP3   OH226821   6.227   2.292   6.771 -0.6287  0.5545 -0.3645
 1729TIP3    H126822   6.314   2.251   6.768 -1.5943 -1.6245  0.4869
 1729TIP3    H226823   6.208   2.301   6.865 -0.7564  2.3363 -0.5305
 1730TIP3   OH226824   5.702   4.021   6.413  0.1443 -0.2141 -0.4984
 1730TIP3    H126825   5.646   4.092   6.445  1.3456  0.8340 -0.6800
 1730TIP3    H226826   5.648   3.975   6.349 -1.4148 -0.8236  1.2017
 1731TIP3   OH226827   5.118   1.996   1.560 -0.2485 -0.2386  0.2372
 1731TIP3    H126828   5.205   1.956   1.565  0.0832  0.4493 -0.0315
 1731TIP3    H226829   5.084   1.969   1.475  0.2829  0.6778 -0.2671
 1732TIP3   OH226830   6.467   2.465   6.527  0.5654 -0.0856  0.2906
 1732TIP3    H126831   6.443   2.372   6.519  0.3612 -0.1279  1.2285
 1732TIP3    H226832   6.457   2.501   6.439 -0.6707 -0.6469  0.1893
 1733TIP3   OH226833   7.286   4.569   7.504  0.7285 -0.5313  0.7163
 1733TIP3    H126834   7.367   4.590   7.549  1.1880  0.1115 -0.4047
 1733TIP3    H226835   7.218   4.614   7.554  1.2912  0.5922  0.4620
 1734TIP3   OH226836   7.218   3.329   6.009 -0.8246 -0.4002  0.1794
 1734TIP3    H126837   7.273   3.366   5.940 -1.5603  0.9162  0.2828
 1734TIP3    H226838   7.260   3.246   6.032  0.4332  0.0218 -0.5847
 1735TIP3   OH226839   0.087   2.355   1.414 -0.5838  0.4534  0.2562
 1735TIP3    H126840   0.008   2.406   1.395  0.2355  1.9714  0.7702
 1735TIP3    H226841   0.156   2.421   1.420  0.4835 -0.7308  1.1174
 1736TIP3   OH226842   4.177   2.553   0.247 -0.2021  0.1426 -0.4078
 1736TIP3    H126843   4.119   2.627   0.266 -1.6339 -1.2246  0.6802
 1736TIP3    H226844   4.235   2.547   0.324  0.0252  0.2280 -0.5711
 1737TIP3   OH226845   0.216   4.398   1.556 -0.3932 -0.4438 -0.7059
 1737TIP3    H126846   0.202   4.305   1.572  1.9056 -0.4341  1.7363
 1737TIP3    H226847   0.273   4.401   1.480 -1.2157 -0.9933 -1.3458
 1738TIP3   OH226848   5.832   4.945   8.446  0.0532 -0.0391  0.7484
 1738TIP3    H126849   5.754   4.932   8.392 -0.5182 -0.6803  1.7134
 1738TIP3    H226850   5.904   4.909   8.393 -0.4800 -0.5329  0.3561
 1739TIP3   OH226851   0.709   5.384   0.920  0.3810 -0.2123 -0.2546
 1739TIP3    H126852   0.695   5.431   1.002  0.5367  0.5328 -0.6436
 1739TIP3    H226853   0.723   5.293   0.946 -0.7408 -0.1894  0.4469
 1740TIP3   OH226854   6.495   3.474   7.053 -0.4386 -0.0234  0.2485
 1740TIP3    H126855   6.431   3.508   6.991  1.5402  1.8970 -0.8310
 1740TIP3    H226856   6.538   3.402   7.006  0.3121  0.7234 -0.2280
 1741TIP3   OH226857   5.634   2.787   8.391  0.8497 -0.4536  0.0854
 1741TIP3    H126858   5.562   2.826   8.342  1.1183  0.1805  0.1925
 1741TIP3    H226859   5.676   2.727   8.329  0.8224 -0.1023 -0.2699
 1742TIP3   OH226860   5.377   5.018   7.055  0.2409  0.3741 -0.3724
 1742TIP3    H126861   5.459   5.025   7.007  0.6576  0.9277  0.4026
 1742TIP3    H226862   5.322   5.088   7.020 -0.7745 -1.4660 -2.5422
 1743TIP3   OH226863   6.152   5.332   0.982 -0.0567 -0.9289 -0.2048
 1743TIP3    H126864   6.162   5.243   0.948  1.7349 -0.9352  0.3119
 1743TIP3    H226865   6.196   5.331   1.067  0.8312  0.6860 -0.6181
 1744TIP3   OH226866   5.943   4.394   6.651 -0.2014 -0.5171 -0.0757
 1744TIP3    H126867   5.951   4.446   6.731 -2.9067 -2.1065  1.3058
 1744TIP3    H226868   6.033   4.365   6.632  0.8018  1.7481  1.0689
 1745TIP3   OH226869   3.940   1.548   0.020 -0.1223  0.5535  0.0896
 1745TIP3    H126870   3.984   1.558   0.104  1.1260 -2.2481 -0.1820
 1745TIP3    H226871   3.997   1.489  -0.030 -1.7503  0.7537 -2.0554
 1746TIP3   OH226872   4.849   1.192   6.254  0.5598  0.4154  0.0689
 1746TIP3    H126873   4.830   1.101   6.230 -1.8791  0.9026  0.0104
 1746TIP3    H226874   4.939   1.206   6.225  0.0152 -1.1044 -2.5570
 1747TIP3   OH226875   6.762   4.972   6.690  0.5983  0.6896  0.2191
 1747TIP3    H126876   6.837   4.922   6.721  1.4716  0.7069 -1.7876
 1747TIP3    H226877   6.746   4.939   6.601 -0.4664  2.1201 -0.1425
 1748TIP3   OH226878   6.947   1.340   6.730 -0.2662  0.6452 -0.2980
 1748TIP3    H126879   7.005   1.415   6.741  0.2382  0.1480  0.4955
 1748TIP3    H226880   6.963   1.311   6.640  1.3311  0.0250  0.1600
 1749TIP3   OH226881   7.132   1.558   6.683  0.6757  0.0947  0.4414
 1749TIP3    H126882   7.169   1.500   6.617  0.4696 -0.5086  0.8589
 1749TIP3    H226883   7.182   1.639   6.674  1.1954 -0.2633  0.0983
 1750TIP3   OH226884   5.692   2.814   6.485  0.2780 -0.1147 -0.2087
 1750TIP3    H126885   5.706   2.896   6.532  0.5235 -0.2628 -0.0207
 1750TIP3    H226886   5.600   2.816   6.459  0.2505  0.1595 -0.0864
 1751TIP3   OH226887   1.086   3.113   6.866  0.4829  0.1385  0.4250
 1751TIP3    H126888   1.053   3.069   6.944 -0.3952 -1.1201 -0.6434
 1751TIP3    H226889   1.038   3.195   6.862 -0.0291 -0.1417  0.7903
 1752TIP3   OH226890   0.144   3.705   6.696 -0.3397  0.2097  0.2390
 1752TIP3    H126891   0.071   3.668   6.647 -0.5979 -0.0087  0.7939
 1752TIP3    H226892   0.107   3.780   6.742 -0.0638  0.4988 -0.0032
 1753TIP3   OH226893   0.171   1.367   6.167  0.1816  0.4403  0.4821
 1753TIP3    H126894   0.079   1.358   6.139  0.6112  0.2040 -0.8797
 1753TIP3    H226895   0.177   1.457   6.198  0.2816  1.5373 -2.5265
 1754TIP3   OH226896   6.220   3.541   6.482  0.2017 -0.0276  0.4157
 1754TIP3    H126897   6.179   3.458   6.505 -1.9134  1.4952  2.3324
 1754TIP3    H226898   6.173   3.570   6.404  1.5276 -1.0346 -0.7678
 1755TIP3   OH226899   0.865   4.699   8.182 -0.5391 -0.2566  0.2658
 1755TIP3    H126900   0.921   4.681   8.107  1.5949  0.5975  1.6005
 1755TIP3    H226901   0.798   4.759   8.149  0.3935  0.1134 -0.9611
 1756TIP3   OH226902   6.539   1.668   2.139  0.3464  0.0170 -0.4826
 1756TIP3    H126903   6.604   1.599   2.152  0.2749  0.1635  0.6511
 1756TIP3    H226904   6.534   1.678   2.044 -1.6507 -3.4807 -0.8362
 1757TIP3   OH226905   7.302   0.406   0.208 -0.1310 -0.2855 -0.1364
 1757TIP3    H126906   7.234   0.406   0.140 -0.8760 -0.0227  0.5941
 1757TIP3    H226907   7.383   0.389   0.161 -0.8770 -1.9897 -0.8560
 1758TIP3   OH226908   4.481   2.489   7.167 -0.1960 -0.0064 -0.0418
 1758TIP3    H126909   4.411   2.501   7.231 -0.0461 -0.5675  0.2269
 1758TIP3    H226910   4.562   2.505   7.215  0.1818 -4.3260  0.9672
 1759TIP3   OH226911   2.707   5.498   7.083 -0.2307 -0.0258  0.2636
 1759TIP3    H126912   2.747   5.452   7.009  1.1139 -1.6190  1.9292
 1759TIP3    H226913   2.648   5.434   7.123 -2.1428  1.3241 -0.3183
 1760TIP3   OH226914   2.671   2.170   6.768 -0.1007  0.8072  0.1528
 1760TIP3    H126915   2.609   2.132   6.706  0.2845 -0.7740  0.6951
 1760TIP3    H226916   2.704   2.095   6.818 -0.5611  2.0494  2.4082
 1761TIP3   OH226917   5.684   4.620   6.517 -0.3839  0.4300  0.2919
 1761TIP3    H126918   5.771   4.620   6.479 -1.3535 -0.9549 -2.1080
 1761TIP3    H226919   5.693   4.573   6.600  0.9573 -0.6636 -0.4658
 1762TIP3   OH226920   3.454   5.198   7.303 -0.3733 -0.2677  0.1082
 1762TIP3    H126921   3.408   5.160   7.378  0.9832  0.4214  1.3186
 1762TIP3    H226922   3.468   5.124   7.243 -2.7161 -0.5494 -0.1434
 1763TIP3   OH226923   0.001   5.867   6.361 -0.2917  0.4045 -0.1345
 1763TIP3    H126924   0.053   5.787   6.363  1.1028  1.1693 -2.9886
 1763TIP3    H226925   0.066   5.937   6.353 -1.5241  1.7961  1.6287
 1764TIP3   OH226926   6.841   4.363   6.522  0.2321 -0.0365  0.5908
 1764TIP3    H126927   6.828   4.448   6.479 -3.3977 -1.1832 -0.8235
 1764TIP3    H226928   6.870   4.304   6.452  2.1019 -0.1511  1.4323
 1765TIP3   OH226929   2.003   6.384   7.829  0.3246  0.0478 -0.9935
 1765TIP3    H126930   2.097   6.380   7.811  0.6321  0.2052  0.5094
 1765TIP3    H226931   1.967   6.304   7.791  1.3265 -0.8398 -0.0753
 1766TIP3   OH226932   0.459   5.735   6.665 -0.3418 -0.5467  0.5079
 1766TIP3    H126933   0.527   5.726   6.732  0.5550  0.9450 -0.1830
 1766TIP3    H226934   0.402   5.804   6.699  0.5799  0.7934 -0.6441
 1767TIP3   OH226935   6.892   7.060   8.048 -0.1696 -0.1667 -0.2385
 1767TIP3    H126936   6.880   7.152   8.023  2.9729  0.7167  1.2141
 1767TIP3    H226937   6.816   7.040   8.102 -1.7067  1.0766 -1.8736
 1768TIP3   OH226938   2.895   4.611   7.145 -0.0978  0.3651 -0.3562
 1768TIP3    H126939   2.853   4.657   7.218 -0.8990 -1.5755  0.4260
 1768TIP3    H226940   2.911   4.679   7.080  0.9325  2.2151  1.7459
 1769TIP3   OH226941   2.367   4.576   8.133 -0.2841  0.3595  0.3168
 1769TIP3    H126942   2.418   4.656   8.145 -1.1901  0.9586  0.2480
 1769TIP3    H226943   2.405   4.514   8.196  0.3715  0.8640  0.4258
 1770TIP3   OH226944   0.152   4.247   7.200  0.2384  0.5849  0.4084
 1770TIP3    H126945   0.084   4.236   7.266 -1.1892 -2.0813 -1.3782
 1770TIP3    H226946   0.104   4.267   7.120  1.8257  2.1127 -0.1842
 1771TIP3   OH226947   3.516   4.624   1.305  0.0180  0.1538 -0.1031
 1771TIP3    H126948   3.563   4.673   1.238  2.9313 -1.4528  0.7204
 1771TIP3    H226949   3.513   4.684   1.380 -0.1415  0.6351 -0.4929
 1772TIP3   OH226950   7.306   4.081   7.425 -0.2616  0.4391 -0.0351
 1772TIP3    H126951   7.386   4.029   7.423  0.2991  1.3193 -0.9380
 1772TIP3    H226952   7.236   4.017   7.427  0.4373 -0.3571 -0.7293
 1773TIP3   OH226953   1.252   3.876   7.068 -0.7545 -0.0957  0.2176
 1773TIP3    H126954   1.172   3.928   7.062 -0.7061  0.0670  0.9270
 1773TIP3    H226955   1.223   3.786   7.054 -0.7802  0.1410 -1.4508
 1774TIP3   OH226956   2.774   4.175   1.216  0.3256 -0.0429  0.3432
 1774TIP3    H126957   2.737   4.252   1.259  0.2123  0.1919 -0.1668
 1774TIP3    H226958   2.849   4.208   1.166  1.1399 -0.4918  1.2511
 1775TIP3   OH226959   0.505   6.843   8.334 -0.3032  0.3881 -0.4140
 1775TIP3    H126960   0.548   6.928   8.344  0.9037 -0.4123  1.5632
 1775TIP3    H226961   0.562   6.781   8.380 -1.3574 -1.4323 -1.4883
 1776TIP3   OH226962   1.065   5.459   6.390  1.2354  0.1188  0.4647
 1776TIP3    H126963   1.138   5.430   6.335  0.1516 -0.2565 -0.8089
 1776TIP3    H226964   1.022   5.527   6.338 -0.4310 -0.9874  0.3737
 1777TIP3   OH226965   1.685   6.297   7.129 -0.2576  0.4362 -0.2874
 1777TIP3    H126966   1.750   6.241   7.087 -0.1064 -0.2588  0.8584
 1777TIP3    H226967   1.640   6.240   7.191 -0.7388  1.3520  0.2210
 1778TIP3   OH226968   2.525   5.286   7.147  0.0714  0.3024  0.0045
 1778TIP3    H126969   2.555   5.204   7.188  0.3908  0.1586 -0.5087
 1778TIP3    H226970   2.431   5.289   7.165  0.1482  0.0733  0.4595
 1779TIP3   OH226971   1.619   4.171   7.677  0.3019  0.2258 -0.4694
 1779TIP3    H126972   1.572   4.239   7.629  1.0353 -0.3119 -1.9912
 1779TIP3    H226973   1.646   4.213   7.758 -0.3326  1.3796 -0.8382
 1780TIP3   OH226974   7.169   4.938   7.845 -0.2712  0.3106 -0.5420
 1780TIP3    H126975   7.257   4.975   7.850 -0.1696 -0.0421  0.4726
 1780TIP3    H226976   7.177   4.852   7.886 -0.6036 -0.6483 -2.4657
 1781TIP3   OH226977   7.144   5.049   7.328  0.2465 -0.3319  0.7069
 1781TIP3    H126978   7.102   5.103   7.262  0.6327  1.9574  2.2845
 1781TIP3    H226979   7.071   5.017   7.382  0.1325 -0.3068  0.5696
 1782TIP3   OH226980   2.615   6.700   0.462  0.6774  0.2884 -0.3500
 1782TIP3    H126981   2.623   6.633   0.530 -0.2673  0.4268 -0.0997
 1782TIP3    H226982   2.697   6.749   0.468  0.8295 -0.0382  0.3333
 1783TIP3   OH226983   2.897   4.364   7.275  0.0676  0.4673  0.6194
 1783TIP3    H126984   2.989   4.340   7.272  0.4026  1.6995  0.7959
 1783TIP3    H226985   2.893   4.452   7.236 -1.3030 -0.3367 -1.1642
 1784TIP3   OH226986   1.720   4.623   6.258  0.1040  0.1336  0.3744
 1784TIP3    H126987   1.653   4.687   6.233 -1.7707 -1.1153  2.0819
 1784TIP3    H226988   1.716   4.556   6.190 -0.8481 -0.2611  0.8133
 1785TIP3   OH226989   0.711   5.607   0.735  0.1331  0.3767 -0.2337
 1785TIP3    H126990   0.732   5.656   0.815 -0.9495  0.8829 -0.2468
 1785TIP3    H226991   0.687   5.520   0.766  1.2248  0.1077 -0.1380
 1786TIP3   OH226992   1.144   4.546   6.376 -0.0800 -0.0595  0.3272
 1786TIP3    H126993   1.143   4.599   6.296 -3.3884  0.7456  0.8323
 1786TIP3    H226994   1.224   4.495   6.370  1.1635  2.0717 -2.1367
 1787TIP3   OH226995   1.755   5.971   0.804  0.0600  0.2378  0.5341
 1787TIP3    H126996   1.764   5.877   0.814 -0.6209  0.1395  0.2390
 1787TIP3    H226997   1.732   6.003   0.891 -0.4370  0.0403  0.4760
 1788TIP3   OH226998   1.578   4.189   7.204 -0.2982  0.1365  0.2598
 1788TIP3    H126999   1.483   4.187   7.214 -0.5571  1.2984 -1.7345
 1788TIP3    H227000   1.606   4.270   7.246 -0.2181 -0.1069  0.6738
 1789TIP3   OH227001   2.536   3.443   6.814  0.2627  0.2281 -0.1408
 1789TIP3    H127002   2.492   3.472   6.894  1.8539 -0.6580  1.0820
 1789TIP3    H227003   2.465   3.420   6.755 -0.9645  3.0022  0.2149
 1790TIP3   OH227004   0.782   4.835   5.911 -0.5685 -0.3653 -0.3690
 1790TIP3    H127005   0.734   4.914   5.937  0.1868 -0.0771  0.1583
 1790TIP3    H227006   0.873   4.854   5.934 -0.7669 -2.4620  2.3432
 1791TIP3   OH227007   0.843   4.585   5.802 -0.1831  0.0644 -0.6335
 1791TIP3    H127008   0.823   4.604   5.710 -2.0297  0.6049 -0.1402
 1791TIP3    H227009   0.811   4.662   5.850 -2.4137 -1.6776  0.7945
 1792TIP3   OH227010   0.721   5.485   0.412 -0.0236 -0.7550 -0.3521
 1792TIP3    H127011   0.798   5.460   0.361  0.1635  0.0923 -0.4985
 1792TIP3    H227012   0.752   5.556   0.467 -0.6763 -0.4876 -0.3316
 1793TIP3   OH227013   5.892   3.890   6.539 -0.1303  0.3521 -0.5969
 1793TIP3    H127014   5.838   3.955   6.495 -0.0097  0.9707  0.1589
 1793TIP3    H227015   5.975   3.891   6.490 -0.3099  0.3955 -0.9014
 1794TIP3   OH227016   0.730   5.895   7.058  0.0389 -0.1226  0.4099
 1794TIP3    H127017   0.808   5.855   7.020  0.0209 -0.8079  1.0754
 1794TIP3    H227018   0.734   5.987   7.030  1.4646  0.0272  1.0411
 1795TIP3   OH227019   1.136   6.402   0.437 -0.3322  0.1414 -0.2293
 1795TIP3    H127020   1.059   6.382   0.490  0.1838 -1.5280 -0.0780
 1795TIP3    H227021   1.210   6.389   0.496  0.1377  0.3208 -0.7697
 1796TIP3   OH227022   1.036   4.740   6.530  0.3999 -0.4882  0.7078
 1796TIP3    H127023   0.956   4.714   6.575  0.1858 -1.4063 -0.1961
 1796TIP3    H227024   1.066   4.661   6.486  1.2440  0.1121  0.1905
 1797TIP3   OH227025   2.289   6.306   6.962  0.1348  0.6222 -1.0985
 1797TIP3    H127026   2.296   6.401   6.967  0.3781  0.6334 -1.6032
 1797TIP3    H227027   2.275   6.287   6.869  1.1458  0.0981 -1.1487
 1798TIP3   OH227028   1.863   6.285   0.728  0.1231 -0.1706  0.0745
 1798TIP3    H127029   1.933   6.246   0.676  1.8622  3.1718 -0.1986
 1798TIP3    H227030   1.784   6.241   0.697  1.6929 -1.6968 -1.9383
 1799TIP3   OH227031   0.925   4.419   6.783  0.6067 -0.4589  0.0034
 1799TIP3    H127032   0.940   4.325   6.786 -1.7252 -0.8242  1.3485
 1799TIP3    H227033   0.844   4.432   6.833  1.6655  2.4145  1.0562
 1800TIP3   OH227034   0.374   5.198   5.927 -0.0717 -0.2001 -0.2924
 1800TIP3    H127035   0.325   5.263   5.878 -0.2586 -1.2003 -1.4724
 1800TIP3    H227036   0.403   5.243   6.006 -0.3225  1.2531 -1.0204
 1801TIP3   OH227037   5.684   4.240   6.675 -0.2822 -0.1569 -0.2499
 1801TIP3    H127038   5.763   4.292   6.687  2.6538 -3.6377 -3.1333
 1801TIP3    H227039   5.697   4.163   6.731 -1.7222 -0.6874 -0.6203
 1802TIP3   OH227040   0.207   4.880   7.485  0.4408 -0.4330  0.5058
 1802TIP3    H127041   0.214   4.827   7.564 -1.0222 -0.4624  0.6256
 1802TIP3    H227042   0.133   4.938   7.502  1.5116  1.0961  0.0481
 1803TIP3   OH227043   2.423   3.599   7.050  0.3157 -0.0484  0.7056
 1803TIP3    H127044   2.519   3.602   7.049  0.3113 -0.0620 -0.8193
 1803TIP3    H227045   2.397   3.686   7.020 -0.1257 -0.7991 -1.1194
 1804TIP3   OH227046   0.784   4.921   6.693 -0.4476  0.7769  0.2870
 1804TIP3    H127047   0.841   4.997   6.678  0.6408 -0.4811 -2.3240
 1804TIP3    H227048   0.780   4.912   6.788 -1.8705  5.0066  0.6928
 1805TIP3   OH227049   1.110   7.130   6.164 -0.3149  0.1934  0.1213
 1805TIP3    H127050   1.204   7.133   6.146 -0.2526 -0.0010  0.4238
 1805TIP3    H227051   1.080   7.219   6.144  0.0431  0.4338  0.6223
 1806TIP3   OH227052   0.462   5.344   6.185 -0.3022 -0.8270  0.7142
 1806TIP3    H127053   0.399   5.376   6.249  0.1951 -2.3054  1.9953
 1806TIP3    H227054   0.491   5.422   6.139  0.2994  0.4904  3.2005
 1807TIP3   OH227055   2.071   5.700   6.671  0.2260 -0.0067  0.2841
 1807TIP3    H127056   2.133   5.755   6.719 -0.3109 -0.7570  1.8918
 1807TIP3    H227057   2.015   5.761   6.623  1.4720  0.7158 -0.2731
 1808TIP3   OH227058   0.517   5.704   0.076  0.1769 -0.0977 -0.3471
 1808TIP3    H127059   0.578   5.778   0.067 -0.8104  0.8518  0.6466
 1808TIP3    H227060   0.573   5.629   0.096  1.0318  0.7892  0.6633
 1809TIP3   OH227061   6.641   5.202   6.659  0.4437 -0.0784  0.3591
 1809TIP3    H127062   6.549   5.178   6.666  0.3712 -0.0840 -0.4943
 1809TIP3    H227063   6.687   5.118   6.650  0.1648  0.0509 -2.9112
 1810TIP3   OH227064   0.656   5.307   0.075 -0.3958 -0.6848  0.5449
 1810TIP3    H127065   0.735   5.328   0.025 -0.2768 -1.4738  0.3933
 1810TIP3    H227066   0.657   5.369   0.148  0.8049 -1.2335  1.0074
 1811TIP3   OH227067   1.005   4.034   6.523 -0.8588  0.1911 -0.2561
 1811TIP3    H127068   1.079   4.079   6.482  0.8115  0.7144  3.1537
 1811TIP3    H227069   1.029   3.941   6.518 -0.0620  0.3383  0.5603
 1812TIP3   OH227070   2.013   4.918   7.525 -0.4357 -0.1971  0.2063
 1812TIP3    H127071   2.014   4.866   7.444  1.4599  0.5327 -0.2588
 1812TIP3    H227072   2.063   4.996   7.503  0.3821 -0.1464  2.1976
 1813TIP3   OH227073   1.478   3.996   5.954 -0.3761 -0.0279  0.5890
 1813TIP3    H127074   1.496   4.064   6.019 -2.1441  1.4442 -0.4200
 1813TIP3    H227075   1.558   3.991   5.902 -0.4140  1.6264  0.3616
 1814TIP3   OH227076   0.487   3.395   6.860 -0.0525 -0.8705  0.0541
 1814TIP3    H127077   0.467   3.321   6.917  3.2622 -1.4046  0.6150
 1814TIP3    H227078   0.498   3.356   6.773  0.5453 -0.8932  0.1356
 1815TIP3   OH227079   1.712   4.053   7.438  0.1384  0.4569  0.3599
 1815TIP3    H127080   1.706   4.112   7.513 -0.9877  0.1707  0.5125
 1815TIP3    H227081   1.661   4.097   7.369 -0.4497 -0.1976  0.3799
 1816TIP3   OH227082   1.394   5.170   7.511 -0.1409 -0.3245  0.2210
 1816TIP3    H127083   1.399   5.170   7.416 -0.0091  1.6953  0.2025
 1816TIP3    H227084   1.309   5.211   7.531 -0.1945 -0.7890  0.9589
 1817TIP3   OH227085   3.143   4.434   7.615 -0.4946  0.1323 -0.4169
 1817TIP3    H127086   3.218   4.491   7.634 -1.5098  2.0473 -1.9602
 1817TIP3    H227087   3.131   4.441   7.521 -2.0889 -0.8436 -0.3002
 1818TIP3   OH227088   3.858   5.130   7.226 -0.1279  0.4595 -0.1791
 1818TIP3    H127089   3.950   5.158   7.230  0.5700 -1.8238  0.4971
 1818TIP3    H227090   3.823   5.173   7.148  1.1937  2.2767  0.2014
 1819TIP3   OH227091   0.167   3.753   7.040 -0.2855 -0.3508  0.1336
 1819TIP3    H127092   0.165   3.721   6.950 -1.6646 -1.0576  0.3932
 1819TIP3    H227093   0.136   3.843   7.034  1.4596  0.2434 -0.3200
 1820TIP3   OH227094   6.602   2.662   6.662  0.1012 -0.7649  0.3787
 1820TIP3    H127095   6.543   2.629   6.595  2.8040 -2.5459 -1.2081
 1820TIP3    H227096   6.658   2.588   6.685  1.4942  0.7468  2.0848
 1821TIP3   OH227097   1.880   5.831   7.553  0.3040  0.1210  0.2841
 1821TIP3    H127098   1.821   5.825   7.628 -0.2434 -2.3127 -0.3012
 1821TIP3    H227099   1.914   5.742   7.542  2.1024  0.9287 -0.9824
 1822TIP3   OH227100   0.026   4.436   8.060  0.3557 -0.6167 -0.9641
 1822TIP3    H127101  -0.035   4.504   8.030  1.1131  1.2658  1.5110
 1822TIP3    H227102  -0.024   4.387   8.125  0.2400 -1.5887 -1.7855
 1823TIP3   OH227103   1.573   3.291   6.836  0.0907  0.1669 -0.2710
 1823TIP3    H127104   1.585   3.326   6.748  2.3300  0.0134 -0.0553
 1823TIP3    H227105   1.551   3.199   6.822  0.1696  0.2067 -0.6648
 1824TIP3   OH227106   7.236   4.462   6.224 -0.6099 -0.6037  0.1454
 1824TIP3    H127107   7.170   4.494   6.162 -0.9558 -0.4336  0.5943
 1824TIP3    H227108   7.300   4.534   6.229 -0.7694 -0.4696  0.2591
 1825TIP3   OH227109   0.176   4.530   6.843  0.2333  0.5268  0.7800
 1825TIP3    H127110   0.231   4.505   6.918 -0.6386 -1.3379  0.8310
 1825TIP3    H227111   0.230   4.592   6.794  2.8882 -2.1192  0.1996
 1826TIP3   OH227112   0.731   5.375   6.328 -1.0973  0.3960 -0.4666
 1826TIP3    H127113   0.789   5.359   6.254 -0.6267  0.5762 -0.1448
 1826TIP3    H227114   0.647   5.338   6.302 -1.3490  1.8296 -1.6923
 1827TIP3   OH227115   1.463   6.981   7.486 -0.1023  0.0047  0.1088
 1827TIP3    H127116   1.446   6.982   7.391  1.2901 -0.7880 -0.1567
 1827TIP3    H227117   1.556   6.960   7.493  0.1591  1.6125  1.6253
 1828TIP3   OH227118   7.073   4.361   0.459  0.7389  0.0199 -0.1537
 1828TIP3    H127119   7.155   4.311   0.453  2.5379  2.9822 -1.0877
 1828TIP3    H227120   7.064   4.381   0.552  0.7656 -0.7952  0.0271
 1829TIP3   OH227121   2.543   4.174   7.784  0.0781  0.6419 -0.1120
 1829TIP3    H127122   2.541   4.131   7.698  0.9095 -0.6517  0.5022
 1829TIP3    H227123   2.616   4.236   7.778 -0.5682  1.3641 -0.7023
 1830TIP3   OH227124   0.399   4.346   6.275  0.4453  0.4496  0.2148
 1830TIP3    H127125   0.424   4.436   6.296 -0.1382  0.6712 -0.0377
 1830TIP3    H227126   0.325   4.355   6.215  1.2173 -0.1865 -0.8494
 1831TIP3   OH227127   1.093   4.995   6.908 -0.3686  0.6314  0.3964
 1831TIP3    H127128   1.016   5.051   6.895  0.2852  1.2427 -0.8955
 1831TIP3    H227129   1.064   4.909   6.876 -1.0794  0.4254  1.5548
 1832TIP3   OH227130   1.882   5.881   6.500 -1.1459  0.3671  0.3990
 1832TIP3    H127131   1.819   5.951   6.484  0.8295  2.1744  0.3993
 1832TIP3    H227132   1.943   5.885   6.427 -1.1908 -1.5992  0.2120
 1833TIP3   OH227133   5.967   6.744   7.280  0.3745  0.0195  0.8020
 1833TIP3    H127134   5.981   6.669   7.338  0.8796  0.8701  1.8022
 1833TIP3    H227135   5.916   6.709   7.207  3.2689 -2.0071 -0.3255
 1834TIP3   OH227136   0.484   7.001   7.323  0.6576 -0.0512 -0.2629
 1834TIP3    H127137   0.530   6.937   7.376 -1.6749 -1.0960  0.5615
 1834TIP3    H227138   0.465   7.074   7.382  1.9880  0.7872 -0.8289
 1835TIP3   OH227139   7.217   4.381   6.731  0.0554 -0.2101  0.1834
 1835TIP3    H127140   7.279   4.342   6.794  0.0457  0.5512  0.6658
 1835TIP3    H227141   7.158   4.309   6.709  0.0928 -0.4976  1.0052
 1836TIP3   OH227142   3.892   3.882   7.593 -0.1572  0.1397 -0.4775
 1836TIP3    H127143   3.824   3.854   7.532  0.8869 -0.7335 -1.2714
 1836TIP3    H227144   3.956   3.928   7.538  0.9509 -0.9272 -0.1072
 1837TIP3   OH227145   1.510   5.032   0.219 -0.4679  0.1764 -0.3036
 1837TIP3    H127146   1.545   5.119   0.201  0.5390 -0.2400 -0.3946
 1837TIP3    H227147   1.580   4.972   0.192 -1.5535 -0.6994 -1.2116
 1838TIP3   OH227148   6.392   4.644   6.749  0.1101  0.1379 -0.0447
 1838TIP3    H127149   6.324   4.626   6.814 -2.5017  3.2457 -1.7607
 1838TIP3    H227150   6.383   4.573   6.685 -0.3769 -0.3958  0.6164
 1839TIP3   OH227151   2.140   4.772   0.269 -0.4499  0.1877 -0.6913
 1839TIP3    H127152   2.198   4.842   0.238 -0.2758 -0.0332 -0.8605
 1839TIP3    H227153   2.191   4.727   0.336 -0.1197 -0.5166 -1.4105
 1840TIP3   OH227154   1.069   4.056   6.982  0.3493  0.4763  0.4058
 1840TIP3    H127155   1.012   4.021   7.051 -0.6162 -1.2691 -1.2196
 1840TIP3    H227156   1.009   4.098   6.920  0.7880 -1.2527 -1.2532
 1841TIP3   OH227157   2.215   4.835   7.156  0.1641  0.2445 -0.2675
 1841TIP3    H127158   2.250   4.830   7.067  1.4107 -1.4558  0.2925
 1841TIP3    H227159   2.122   4.853   7.144  0.4124  0.5151 -1.9069
 1842TIP3   OH227160   0.448   5.254   6.474 -1.1506 -0.0632 -0.1636
 1842TIP3    H127161   0.399   5.322   6.428  1.1882  0.6739 -1.6555
 1842TIP3    H227162   0.519   5.302   6.518  0.0764 -1.4468 -0.6101
 1843TIP3   OH227163   0.421   6.552   7.561  0.1825  0.6960 -0.4964
 1843TIP3    H127164   0.384   6.474   7.602 -1.8429  1.7023 -0.3523
 1843TIP3    H227165   0.430   6.615   7.633  3.4678  0.0318 -0.2747
 1844TIP3   OH227166   2.747   5.593   7.388 -0.2701 -0.9275  0.1732
 1844TIP3    H127167   2.748   5.625   7.478 -0.0062 -2.6155  0.7868
 1844TIP3    H227168   2.658   5.561   7.374 -0.3777 -0.4473 -0.2459
 1845TIP3   OH227169   1.559   6.015   7.629  0.3598 -0.0893 -0.3891
 1845TIP3    H127170   1.472   6.038   7.662  0.1899 -4.2436  2.4978
 1845TIP3    H227171   1.542   5.984   7.540 -1.0223 -0.1556 -0.1191
 1846TIP3   OH227172   1.256   5.394   6.200 -0.7755 -0.3629  0.8723
 1846TIP3    H127173   1.277   5.484   6.173 -0.4295 -1.0476 -1.2032
 1846TIP3    H227174   1.331   5.342   6.171 -2.0599 -1.7001 -0.0571
 1847TIP3   OH227175   2.789   4.015   1.554 -0.0736 -0.0558  0.1244
 1847TIP3    H127176   2.859   4.074   1.580 -2.2986  2.6347  0.1679
 1847TIP3    H227177   2.732   4.011   1.631 -0.1269 -2.0355  0.0081
 1848TIP3   OH227178   0.627   4.492   6.792 -0.3906 -0.2670 -0.3248
 1848TIP3    H127179   0.579   4.437   6.729  2.5762  0.6637 -3.6122
 1848TIP3    H227180   0.618   4.581   6.757 -0.5444  0.6013  1.8811
 1849TIP3   OH227181   1.558   3.345   6.560 -0.1500 -0.4966  0.6718
 1849TIP3    H127182   1.653   3.342   6.551  0.1642  0.0896  3.5008
 1849TIP3    H227183   1.535   3.438   6.553 -0.3301 -0.4621  1.6836
 1850TIP3   OH227184   0.609   6.042   0.272 -0.5151 -0.4707 -0.0489
 1850TIP3    H127185   0.524   6.064   0.233 -0.6314  0.8755  0.9259
 1850TIP3    H227186   0.659   6.123   0.267  1.6813 -1.9590 -3.0054
 1851TIP3   OH227187   1.911   5.384   6.068 -1.0425  0.0593  0.1959
 1851TIP3    H127188   1.852   5.310   6.083 -0.6013 -0.1171  1.0759
 1851TIP3    H227189   1.998   5.351   6.088 -0.6939  0.4788 -0.5758
 1852TIP3   OH227190   1.369   6.126   8.274  0.1396  0.0588 -0.5269
 1852TIP3    H127191   1.415   6.206   8.249 -0.3445 -0.2679 -2.5902
 1852TIP3    H227192   1.409   6.058   8.219 -1.1513 -0.6569 -0.5982
 1853TIP3   OH227193   2.567   6.331   8.197 -0.6320 -0.0239  0.5595
 1853TIP3    H127194   2.624   6.370   8.264  0.7441  0.0663 -0.6330
 1853TIP3    H227195   2.628   6.293   8.134 -1.8942 -3.5248  1.3169
 1854TIP3   OH227196   2.146   4.367   6.843 -0.0354  0.2915  0.3308
 1854TIP3    H127197   2.061   4.338   6.877  0.9778 -0.4114  2.3314
 1854TIP3    H227198   2.180   4.425   6.911  0.8977  0.9436 -0.6751
 1855TIP3   OH227199   0.229   6.877   8.195 -0.5578  0.3005  0.8927
 1855TIP3    H127200   0.291   6.847   8.262 -0.0419 -0.2831  0.1661
 1855TIP3    H227201   0.245   6.971   8.188  0.3518  0.1296  0.6130
 1856TIP3   OH227202   1.884   4.775   6.544  0.0659 -0.0857  0.8109
 1856TIP3    H127203   1.933   4.717   6.485 -1.3698  0.9991 -1.5169
 1856TIP3    H227204   1.853   4.717   6.614  1.1414 -1.5558  0.1122
 1857TIP3   OH227205   2.806   3.253   0.655  0.4660  0.6264 -0.0814
 1857TIP3    H127206   2.859   3.200   0.715  1.4672  1.1585 -0.4719
 1857TIP3    H227207   2.775   3.191   0.589 -0.4130  0.0902  0.8353
 1858TIP3   OH227208   1.444   5.534   8.104  0.4700  0.0516 -0.5063
 1858TIP3    H127209   1.408   5.487   8.179  1.6769  0.0469  0.0793
 1858TIP3    H227210   1.370   5.583   8.068  0.2226  1.2515  1.5906
 1859TIP3   OH227211   1.556   5.494   7.428 -0.0618 -0.1360  0.0250
 1859TIP3    H127212   1.572   5.510   7.335  2.3080 -1.6456  0.1225
 1859TIP3    H227213   1.643   5.473   7.464 -0.8656  0.8972  2.6734
 1860TIP3   OH227214   0.681   4.346   7.307  0.4229  0.0007 -0.5597
 1860TIP3    H127215   0.726   4.425   7.276  0.0031  1.0872  1.4596
 1860TIP3    H227216   0.656   4.367   7.397 -0.0530 -2.3142 -0.1212
 1861TIP3   OH227217   2.755   6.385   8.381 -0.7416  0.3928 -0.0199
 1861TIP3    H127218   2.790   6.457   8.434  0.8803  0.3326 -1.0017
 1861TIP3    H227219   2.762   6.308   8.438  0.6537  0.3985 -0.1682
 1862TIP3   OH227220   2.265   4.049   6.963  0.3197 -0.4059 -0.2325
 1862TIP3    H127221   2.307   4.131   6.938 -0.2654 -0.2408 -0.6882
 1862TIP3    H227222   2.320   3.981   6.925 -0.0676 -0.1799 -1.2186
 1863TIP3   OH227223   1.250   6.498   6.799 -0.4135 -0.0305 -0.4390
 1863TIP3    H127224   1.199   6.576   6.777  0.2150  0.7124  0.6348
 1863TIP3    H227225   1.339   6.519   6.771 -0.4830 -0.8896 -1.3299
 1864TIP3   OH227226   1.354   5.040   0.487  0.0286 -0.2189 -0.1054
 1864TIP3    H127227   1.364   5.003   0.575  0.2426  0.4769  0.1691
 1864TIP3    H227228   1.430   5.097   0.476 -0.9957  1.2173  0.0289
 1865TIP3   OH227229   1.994   5.978   6.724  0.5538  0.1630 -0.2721
 1865TIP3    H127230   1.956   6.009   6.641  0.8131 -2.5457 -1.4441
 1865TIP3    H227231   1.918   5.965   6.781  0.2727  0.9403 -0.4621
 1866TIP3   OH227232   6.289   5.855   7.144  0.0787  0.1482 -0.4811
 1866TIP3    H127233   6.233   5.862   7.066  0.2693  0.0041 -0.6311
 1866TIP3    H227234   6.378   5.867   7.111  0.0779  1.1627 -0.1316
 1867TIP3   OH227235   2.493   5.107   0.362  0.1863 -0.0028 -0.2692
 1867TIP3    H127236   2.548   5.031   0.380  0.2232 -0.1504 -0.9885
 1867TIP3    H227237   2.520   5.136   0.274 -0.8823 -0.0774 -0.6321
 1868TIP3   OH227238   3.178   6.617   8.148 -0.1738  0.0621 -0.0598
 1868TIP3    H127239   3.104   6.632   8.089  0.5786 -1.9965 -1.5678
 1868TIP3    H227240   3.255   6.634   8.093  0.5080 -0.0441  0.8648
 1869TIP3   OH227241   3.017   3.640   7.289 -0.1498  1.0463 -0.2799
 1869TIP3    H127242   3.033   3.679   7.375 -0.4297 -0.5116  0.4807
 1869TIP3    H227243   2.977   3.711   7.238 -1.8930  1.3943  1.5082
 1870TIP3   OH227244   6.863   4.816   7.979 -0.4261  0.8098  0.0324
 1870TIP3    H127245   6.815   4.765   7.914 -1.4414  2.1595 -0.3042
 1870TIP3    H227246   6.945   4.838   7.935  1.6881 -3.5794  1.4786
 1871TIP3   OH227247   0.174   6.188   7.870 -0.0993  0.2305 -0.0055
 1871TIP3    H127248   0.242   6.131   7.834  0.6941  1.2044 -0.0759
 1871TIP3    H227249   0.215   6.226   7.948 -0.5746  0.7946 -0.0321
 1872TIP3   OH227250   0.800   6.390   8.392 -0.0517  0.5001  0.2237
 1872TIP3    H127251   0.739   6.412   8.321 -0.3231 -1.2600 -0.1240
 1872TIP3    H227252   0.815   6.296   8.382  1.9783  0.7214  0.8969
 1873TIP3   OH227253   0.015   3.844   7.269 -0.1057  0.5711  0.3120
 1873TIP3    H127254   0.043   3.776   7.209  0.2473  0.4528  0.6058
 1873TIP3    H227255   0.094   3.866   7.319 -0.2768  1.0112  0.3943
 1874TIP3   OH227256   2.604   6.062   7.372 -0.1295 -0.0618  0.0690
 1874TIP3    H127257   2.529   6.037   7.318 -0.0061  0.1270 -0.1895
 1874TIP3    H227258   2.674   6.003   7.344 -0.1784 -0.2307  0.3023
 1875TIP3   OH227259   0.353   5.367   0.113  0.0265 -0.0062 -0.4499
 1875TIP3    H127260   0.298   5.347   0.189  0.8899  0.8985  0.4200
 1875TIP3    H227261   0.417   5.296   0.110 -0.6576 -0.6183 -0.9823
 1876TIP3   OH227262   2.688   4.273   0.624 -0.0803  0.4646 -0.0815
 1876TIP3    H127263   2.764   4.245   0.675 -2.3492 -2.8961  1.6445
 1876TIP3    H227264   2.686   4.213   0.549 -0.6319  0.9585 -0.4648
 1877TIP3   OH227265   0.528   4.287   7.682 -0.6507  0.1645 -0.0720
 1877TIP3    H127266   0.561   4.369   7.645 -1.6702 -0.3860 -2.2989
 1877TIP3    H227267   0.602   4.227   7.679 -0.1294  0.7515  0.8097
 1878TIP3   OH227268   1.325   5.762   6.619 -0.2856  0.1213  0.5645
 1878TIP3    H127269   1.339   5.683   6.567  0.4348  0.3896  0.3395
 1878TIP3    H227270   1.372   5.830   6.572 -2.5102  1.1123 -0.3027
 1879TIP3   OH227271   3.726   4.480   8.300 -0.1104  0.4593  0.4850
 1879TIP3    H127272   3.688   4.399   8.268 -0.0592  0.0658  1.4190
 1879TIP3    H227273   3.773   4.456   8.380 -0.7468  1.5356  1.2003
 1880TIP3   OH227274   1.337   5.356   8.362  0.7719  0.2743 -0.0000
 1880TIP3    H127275   1.393   5.312   8.425  0.6340 -0.1856 -0.1941
 1880TIP3    H227276   1.288   5.285   8.320  0.1593  0.6568  0.0636
 1881TIP3   OH227277   2.986   3.783   0.194  0.3010 -0.3664  0.0157
 1881TIP3    H127278   2.949   3.699   0.168  2.1158 -0.7361 -1.4684
 1881TIP3    H227279   3.073   3.762   0.226 -0.2848  0.6300  2.3814
 1882TIP3   OH227280   0.832   4.552   6.559 -0.4246  0.1999  0.3359
 1882TIP3    H127281   0.855   4.498   6.635 -3.4290 -1.9397 -0.1861
 1882TIP3    H227282   0.789   4.491   6.499 -1.3602  2.6360 -1.5213
 1883TIP3   OH227283   2.524   3.940   7.571 -0.2748 -0.0467  0.1723
 1883TIP3    H127284   2.574   3.943   7.490  0.3078  1.4581  0.5577
 1883TIP3    H227285   2.434   3.960   7.545  0.1060  1.5688  0.0187
 1884TIP3   OH227286   1.958   3.854   7.443 -0.2804  0.2169 -0.3826
 1884TIP3    H127287   1.935   3.787   7.508 -0.4070  0.2180 -0.4253
 1884TIP3    H227288   1.882   3.913   7.443  0.4740  1.2272  0.7782
 1885TIP3   OH227289   0.992   4.737   0.955  0.2374 -0.0336 -0.0063
 1885TIP3    H127290   0.936   4.720   1.030  1.8162  0.6894  1.3679
 1885TIP3    H227291   0.980   4.830   0.935 -0.5032 -0.3205 -0.9306
 1886TIP3   OH227292   0.157   6.808   1.135  0.1883 -0.3605  0.5773
 1886TIP3    H127293   0.062   6.810   1.123  0.2460 -2.6898 -0.4967
 1886TIP3    H227294   0.178   6.893   1.175 -2.3315  0.1630  0.8633
 1887TIP3   OH227295   0.776   5.247   7.492 -0.5068 -0.3306 -0.0835
 1887TIP3    H127296   0.732   5.276   7.412  0.6329 -1.1899 -1.0471
 1887TIP3    H227297   0.841   5.314   7.510 -0.0446 -0.6653 -0.4899
 1888TIP3   OH227298   0.754   5.166   0.346 -0.0367 -0.3839  0.2492
 1888TIP3    H127299   0.718   5.110   0.415  1.7321  0.0649  1.5617
 1888TIP3    H227300   0.678   5.211   0.309 -1.1432 -1.5438  1.0809
 1889TIP3   OH227301   1.285   5.284   6.827 -0.2309 -0.3373  0.0691
 1889TIP3    H127302   1.196   5.302   6.799 -0.2984 -1.1205 -0.2364
 1889TIP3    H227303   1.311   5.206   6.778  0.9031  0.3416 -0.4353
 1890TIP3   OH227304   6.216   4.147   0.370 -0.0914 -0.2072  0.0444
 1890TIP3    H127305   6.248   4.195   0.294 -1.0074 -1.9012 -1.4487
 1890TIP3    H227306   6.124   4.170   0.377 -0.7215 -2.1855 -1.1082
 1891TIP3   OH227307   0.566   4.743   6.716 -0.1322 -0.4548  0.0299
 1891TIP3    H127308   0.651   4.781   6.692  0.2037 -1.2304 -0.0168
 1891TIP3    H227309   0.520   4.814   6.760  0.9548 -0.3428  1.0050
 1892TIP3   OH227310   0.958   6.325   7.182 -0.2579 -0.2033  0.2566
 1892TIP3    H127311   0.980   6.376   7.259 -0.0636 -0.3878  0.3229
 1892TIP3    H227312   0.909   6.385   7.126 -0.3650 -0.0608  0.5071
 1893TIP3   OH227313   1.788   4.169   0.296 -0.4053 -0.3239 -0.3495
 1893TIP3    H127314   1.814   4.180   0.387  0.0536 -1.0662 -0.3901
 1893TIP3    H227315   1.797   4.075   0.279 -0.3731 -0.1752 -1.1904
 1894TIP3   OH227316   0.532   5.640   7.793  0.1819 -0.2529 -0.0394
 1894TIP3    H127317   0.621   5.607   7.778  0.1557 -0.2172 -0.2761
 1894TIP3    H227318   0.482   5.562   7.815 -0.2446 -0.6451 -2.2362
 1895TIP3   OH227319   0.776   6.132   6.939  0.3614  0.1204 -0.2886
 1895TIP3    H127320   0.869   6.115   6.955  0.3863 -1.2150 -1.7599
 1895TIP3    H227321   0.776   6.200   6.872  0.2573  1.4277  1.0140
 1896TIP3   OH227322   1.834   5.059   6.783 -0.0786  0.2897 -1.2289
 1896TIP3    H127323   1.812   5.141   6.827  0.7270  0.5356 -1.2801
 1896TIP3    H227324   1.781   5.059   6.703 -0.0834  0.7484 -1.2249
 1897TIP3   OH227325   2.460   3.963   8.044  0.5401 -0.1347  0.0004
 1897TIP3    H127326   2.384   3.991   8.095  0.8866  2.3806 -0.8273
 1897TIP3    H227327   2.534   3.977   8.103  0.5345 -1.1513  0.2618
 1898TIP3   OH227328   0.550   5.226   6.828  0.1501 -0.5400  0.0018
 1898TIP3    H127329   0.580   5.277   6.752  1.0178 -1.9210 -0.5924
 1898TIP3    H227330   0.497   5.288   6.878  0.2602  0.6362 -1.2938
 1899TIP3   OH227331   1.740   3.944   6.674  0.6574 -0.0651 -0.5485
 1899TIP3    H127332   1.675   4.008   6.702  0.8370 -0.5254  0.9371
 1899TIP3    H227333   1.820   3.970   6.720  0.6655 -1.5111  0.2819
 1900TIP3   OH227334   7.125   3.081   6.459 -0.2047 -0.4549 -0.4003
 1900TIP3    H127335   7.104   2.990   6.438  0.4706 -1.1447  1.8147
 1900TIP3    H227336   7.081   3.098   6.542  1.1432  0.6680  0.1106
 1901TIP3   OH227337   3.850   5.707   7.382  0.3403  0.5728  0.4862
 1901TIP3    H127338   3.941   5.733   7.394  0.7848 -2.2436  4.0239
 1901TIP3    H227339   3.854   5.632   7.322  0.2081  1.1641 -0.2718
 1902TIP3   OH227340   3.268   2.652   8.379  0.3831  0.0132 -0.3699
 1902TIP3    H127341   3.258   2.564   8.344 -3.0560  0.1251  0.1270
 1902TIP3    H227342   3.197   2.660   8.443  2.4556  2.1251  1.7812
 1903TIP3   OH227343   0.502   5.394   7.047  0.0244 -0.2870  0.4065
 1903TIP3    H127344   0.481   5.445   7.125  0.6372 -0.1238  0.4617
 1903TIP3    H227345   0.470   5.306   7.068 -1.8280  0.2655 -0.0382
 1904TIP3   OH227346   1.465   4.051   6.509  0.2352  0.1548  0.1847
 1904TIP3    H127347   1.434   3.969   6.548 -1.7217  0.6953 -0.1862
 1904TIP3    H227348   1.520   4.022   6.436 -0.1447 -0.8410  0.2720
 1905TIP3   OH227349   0.709   5.908   0.033  0.7938  0.3610  0.3355
 1905TIP3    H127350   0.743   5.962  -0.039  1.3440 -1.1675 -0.5841
 1905TIP3    H227351   0.711   5.966   0.109 -2.6911  3.0154 -1.4540
 1906TIP3   OH227352   1.490   4.381   6.689  0.3281 -0.4377  0.5213
 1906TIP3    H127353   1.403   4.341   6.692  0.1809 -0.1852 -0.3778
 1906TIP3    H227354   1.495   4.422   6.603  0.3779  1.7207  1.4986
 1907TIP3   OH227355   7.011   5.193   0.035 -0.6519  0.4331  0.3272
 1907TIP3    H127356   7.026   5.102   0.009  0.1133  0.7652 -0.4386
 1907TIP3    H227357   7.081   5.211   0.098 -0.2469  0.7632 -0.2125
 1908TIP3   OH227358   7.100   4.032   6.115 -0.2686 -0.3980  0.1964
 1908TIP3    H127359   7.069   4.122   6.123  2.1015  0.5664 -0.7799
 1908TIP3    H227360   7.027   3.984   6.076 -1.7703  0.9650  1.2975
 1909TIP3   OH227361   0.259   5.118   8.041 -0.0792 -0.2955  0.5826
 1909TIP3    H127362   0.198   5.130   8.114 -0.1432  0.5410  0.3899
 1909TIP3    H227363   0.204   5.105   7.965 -0.0263  0.5083  0.4010
 1910TIP3   OH227364   0.253   4.169   6.576 -0.1123 -0.1535 -0.7749
 1910TIP3    H127365   0.195   4.162   6.500 -1.0214 -1.0368 -0.0093
 1910TIP3    H227366   0.249   4.262   6.600  0.2452  0.1490 -1.8433
 1911TIP3   OH227367   1.125   0.262   6.613  0.0886  0.1928 -0.1219
 1911TIP3    H127368   1.203   0.262   6.556 -1.5110 -1.2398 -2.3813
 1911TIP3    H227369   1.071   0.333   6.578 -0.0652  0.5649  0.8574
 1912TIP3   OH227370   1.101   5.226   7.362 -0.1131  0.4694 -0.3837
 1912TIP3    H127371   1.041   5.153   7.379  0.2234  0.6524  1.7208
 1912TIP3    H227372   1.082   5.252   7.272 -3.4580  0.7766  0.3497
 1913TIP3   OH227373   0.695   5.370   6.584  0.2247  0.1926  0.3326
 1913TIP3    H127374   0.719   5.371   6.492  2.2492 -1.6099  0.8187
 1913TIP3    H227375   0.727   5.453   6.619 -0.7202  0.9634 -0.6031
 1914TIP3   OH227376   0.999   5.959   0.816 -0.2361 -0.0949  0.3642
 1914TIP3    H127377   1.089   5.931   0.800 -0.0508 -0.0874  1.3098
 1914TIP3    H227378   1.006   6.017   0.893 -1.2719 -1.4933  1.5392
 1915TIP3   OH227379   0.924   5.146   6.547  0.1644  0.0759  0.3738
 1915TIP3    H127380   0.969   5.231   6.542 -0.0542  0.1012 -1.5631
 1915TIP3    H227381   0.901   5.126   6.456  0.8044 -2.3856  0.7288
 1916TIP3   OH227382   3.782   5.689   1.497  0.0996 -0.2034 -0.5582
 1916TIP3    H127383   3.853   5.636   1.461 -0.2378 -0.7745 -0.3902
 1916TIP3    H227384   3.702   5.647   1.465 -0.1473  1.4761 -2.2274
 1917TIP3   OH227385   2.043   4.743   8.009 -0.5128 -0.5607 -0.1282
 1917TIP3    H127386   2.021   4.780   7.924 -0.4032 -0.9660 -0.3304
 1917TIP3    H227387   2.073   4.654   7.990  2.3211  0.3155  0.0267
 1918TIP3   OH227388   0.881   4.841   7.782  0.0773  0.4341  0.4133
 1918TIP3    H127389   0.829   4.915   7.814  0.4015  0.6498  0.4410
 1918TIP3    H227390   0.843   4.820   7.696  0.6357  1.2781 -0.0354
 1919TIP3   OH227391   2.361   5.732   6.958  0.3246 -0.1339  0.6510
 1919TIP3    H127392   2.382   5.645   6.924 -0.8055  0.1679 -0.8367
 1919TIP3    H227393   2.269   5.727   6.983  0.0588  0.8318 -0.0963
 1920TIP3   OH227394   2.331   7.043   7.995  0.4347 -0.1883  0.4204
 1920TIP3    H127395   2.306   7.105   7.926  0.9724  0.0067  0.3956
 1920TIP3    H227396   2.287   7.075   8.074 -0.6633 -0.7498  0.0457
 1921TIP3   OH227397   7.058   4.392   7.149 -0.0400  0.4084  0.0917
 1921TIP3    H127398   7.066   4.374   7.243  0.3953  2.0288  0.3782
 1921TIP3    H227399   7.148   4.406   7.119 -0.3330  1.9424 -0.1325
 1922TIP3   OH227400   7.281   4.633   7.235  0.3108  0.2743 -0.4561
 1922TIP3    H127401   7.186   4.636   7.224  0.2894 -0.2443 -0.4149
 1922TIP3    H227402   7.294   4.614   7.328  0.4450 -0.6270 -0.6552
 1923TIP3   OH227403   1.996   5.918   7.836 -0.0066  0.7791  0.1493
 1923TIP3    H127404   1.901   5.914   7.844  0.0433 -3.1848 -0.1170
 1923TIP3    H227405   2.028   5.872   7.914  1.4669 -2.4570 -2.2499
 1924TIP3   OH227406   6.048   4.797   6.778 -0.6788  0.1876  0.0944
 1924TIP3    H127407   6.090   4.838   6.854  0.2232 -0.4458 -0.0664
 1924TIP3    H227408   6.073   4.852   6.704 -1.9721  1.0982  0.3127
 1925TIP3   OH227409   2.937   7.260   7.774  0.5508 -0.6961 -0.0022
 1925TIP3    H127410   3.026   7.226   7.783  0.6021 -0.5468  0.0516
 1925TIP3    H227411   2.939   7.311   7.693  1.1135  1.1700  1.1332
 1926TIP3   OH227412   0.323   4.175   7.396 -0.0831 -0.1527  0.3235
 1926TIP3    H127413   0.359   4.244   7.452  0.0123 -0.4417  0.6187
 1926TIP3    H227414   0.271   4.222   7.331  0.7150  0.2687 -0.0228
 1927TIP3   OH227415   2.909   4.905   7.540  0.4035 -0.1066  0.6336
 1927TIP3    H127416   2.903   4.810   7.554 -1.5605 -0.4157 -1.8674
 1927TIP3    H227417   2.897   4.915   7.445  1.9707  2.5632  0.6846
 1928TIP3   OH227418   2.907   3.176   6.271 -0.1588  0.7080 -0.1478
 1928TIP3    H127419   2.987   3.126   6.252 -0.2542  0.9941 -1.3084
 1928TIP3    H227420   2.906   3.183   6.367  0.6725 -0.1746 -0.0643
 1929TIP3   OH227421   0.058   4.807   0.501  0.5733  0.0257  0.3626
 1929TIP3    H127422   0.033   4.897   0.522  0.1089  0.0286 -0.1781
 1929TIP3    H227423   0.100   4.813   0.415  0.5540 -0.2639  0.3302
 1930TIP3   OH227424   1.657   3.446   6.238 -0.0058 -0.0809 -0.1701
 1930TIP3    H127425   1.607   3.366   6.225  0.5500 -0.3484 -0.6638
 1930TIP3    H227426   1.728   3.421   6.297  1.2174 -0.3846 -1.7440
 1931TIP3   OH227427   2.265   4.264   6.628  0.0622  0.3066 -0.4747
 1931TIP3    H127428   2.226   4.321   6.694  1.7304  1.9740 -0.9172
 1931TIP3    H227429   2.328   4.319   6.582  1.4994 -1.8042 -1.0993
 1932TIP3   OH227430   0.777   3.792   5.905 -0.0770  0.6669  0.1614
 1932TIP3    H127431   0.782   3.876   5.860 -1.5664  0.7524  0.1449
 1932TIP3    H227432   0.688   3.761   5.889  0.7325 -1.3804 -0.6772
 1933TIP3   OH227433   0.578   4.999   6.469 -0.1214  0.7013 -0.9199
 1933TIP3    H127434   0.641   4.963   6.532 -1.5083  0.4584  0.3705
 1933TIP3    H227435   0.564   5.088   6.499 -1.0211  0.4868 -0.6985
 1934TIP3   OH227436   1.725   3.995   5.840 -0.1382 -0.5764 -0.2198
 1934TIP3    H127437   1.721   4.089   5.824  0.1379 -1.2244 -4.7156
 1934TIP3    H227438   1.819   3.974   5.835 -0.2079 -1.1182  0.6623
 1935TIP3   OH227439   1.624   6.121   6.636 -0.0286  0.4158 -0.6857
 1935TIP3    H127440   1.557   6.055   6.620  0.5832 -0.8518  1.8246
 1935TIP3    H227441   1.683   6.113   6.561 -0.3077 -1.4453 -0.7247
 1936TIP3   OH227442   1.799   6.649   7.330  0.0344  0.0581  0.4228
 1936TIP3    H127443   1.888   6.628   7.301  0.1391  2.4457 -1.1602
 1936TIP3    H227444   1.760   6.564   7.351  2.4842 -1.0750  0.5776
 1937TIP3   OH227445   0.426   4.539   8.368  0.4796 -0.5514 -0.0807
 1937TIP3    H127446   0.390   4.545   8.280  0.4374  0.1916 -0.0167
 1937TIP3    H227447   0.520   4.555   8.356  0.3009  0.7180  0.1493
 1938TIP3   OH227448   0.330   4.542   8.093  0.2544  0.1122  0.0234
 1938TIP3    H127449   0.398   4.523   8.029  0.9713  0.4332  0.6868
 1938TIP3    H227450   0.257   4.486   8.067  0.4667  0.3693 -1.1761
 1939TIP3   OH227451   1.270   5.835   0.462  0.7745  0.2129 -0.2693
 1939TIP3    H127452   1.244   5.745   0.443  1.1137  0.1034 -0.2152
 1939TIP3    H227453   1.245   5.884   0.383 -0.4076  0.2773  0.1343
 1940TIP3   OH227454   6.095   0.615   8.180  0.0791  0.2023  0.0620
 1940TIP3    H127455   6.032   0.569   8.237  1.1445 -1.2618  0.1052
 1940TIP3    H227456   6.044   0.683   8.137 -0.9734  0.6982  2.0322
 1941TIP3   OH227457   2.489   4.116   7.210  0.3155  0.0937 -0.0869
 1941TIP3    H127458   2.561   4.139   7.269  0.3509  0.2166 -0.1785
 1941TIP3    H227459   2.410   4.147   7.254  0.3794  0.5362 -0.2878
 1942TIP3   OH227460   5.410   4.602   8.002 -0.2176 -0.3064  0.3640
 1942TIP3    H127461   5.321   4.574   7.983  0.0303 -1.0240  0.2520
 1942TIP3    H227462   5.400   4.674   8.065 -0.9198  0.4142 -0.5565
 1943TIP3   OH227463   2.087   5.760   6.957 -0.1284  0.7213 -0.2840
 1943TIP3    H127464   2.034   5.832   6.924  0.2559  0.7630 -0.8075
 1943TIP3    H227465   2.024   5.703   7.002 -0.5300  1.0483 -0.4261
 1944TIP3   OH227466   3.804   6.932   6.775  0.4174  0.4134  0.1485
 1944TIP3    H127467   3.795   6.893   6.688 -2.0667  2.0062 -0.3370
 1944TIP3    H227468   3.893   6.968   6.775  0.7492 -0.3425 -1.4051
 1945TIP3   OH227469   2.669   4.343   6.749 -0.4128  0.3974 -0.4761
 1945TIP3    H127470   2.611   4.272   6.775 -2.9764  2.0191 -1.5207
 1945TIP3    H227471   2.609   4.413   6.721  1.9823  3.3374  1.4913
 1946TIP3   OH227472   3.312   5.423   7.145 -0.5111  0.2981  0.0011
 1946TIP3    H127473   3.357   5.343   7.172 -1.1277 -0.5758 -1.4826
 1946TIP3    H227474   3.234   5.392   7.099 -1.3448  1.7709  0.4068
 1947TIP3   OH227475   1.979   4.020   6.774  0.0645  0.3008 -1.0204
 1947TIP3    H127476   1.957   3.951   6.837 -0.3705  2.0859  0.8510
 1947TIP3    H227477   2.068   3.998   6.746  0.9081  0.3257  1.4616
 1948TIP3   OH227478   2.743   6.293   0.534  0.7013  0.0534 -0.1126
 1948TIP3    H127479   2.693   6.366   0.571 -0.7203 -1.3687  0.8165
 1948TIP3    H227480   2.798   6.263   0.606 -0.6027 -1.4305  0.2898
 1949TIP3   OH227481   2.053   3.520   7.444  0.2332  0.2005  0.0509
 1949TIP3    H127482   2.039   3.599   7.393 -0.3236  0.1851  0.1778
 1949TIP3    H227483   1.967   3.497   7.478  0.9562  1.4551  2.8414
 1950TIP3   OH227484   5.029   3.167   7.339 -0.1132 -0.8921 -0.0714
 1950TIP3    H127485   4.987   3.126   7.263 -2.1241 -0.1047  0.5793
 1950TIP3    H227486   5.023   3.261   7.322  0.8618 -0.7473  0.3264
 1951TIP3   OH227487   2.702   4.301   6.429  0.1785 -0.0786 -0.3902
 1951TIP3    H127488   2.771   4.352   6.386  0.7987 -1.1215 -0.6517
 1951TIP3    H227489   2.724   4.210   6.409  0.5892 -0.6131  2.2505
 1952TIP3   OH227490   2.650   4.414   7.074  0.3347 -0.0965  0.2578
 1952TIP3    H127491   2.692   4.439   6.992  1.3388 -3.4998 -0.3659
 1952TIP3    H227492   2.720   4.420   7.139  0.3601 -0.4179  0.2616
 1953TIP3   OH227493   3.965   4.490   0.295  0.1430 -0.0590 -0.3410
 1953TIP3    H127494   3.964   4.398   0.321  0.2688 -0.5318 -1.9378
 1953TIP3    H227495   4.054   4.519   0.313  0.8167 -0.9483 -2.0679
 1954TIP3   OH227496   2.203   4.731   6.627 -0.0002 -0.1989 -0.2329
 1954TIP3    H127497   2.114   4.708   6.655 -0.6218  0.2514 -1.8116
 1954TIP3    H227498   2.197   4.740   6.532  1.7011  0.0231 -0.3355
 1955TIP3   OH227499   5.570   4.502   0.622 -0.4002 -0.0073  0.3818
 1955TIP3    H127500   5.496   4.443   0.633  0.4542 -1.1608  0.1236
 1955TIP3    H227501   5.576   4.515   0.527  1.0282 -1.6661  0.2129
 1956TIP3   OH227502   3.566   2.440   1.623  0.4255 -0.1191 -0.5617
 1956TIP3    H127503   3.500   2.505   1.648  0.3410 -0.3019 -0.2964
 1956TIP3    H227504   3.594   2.402   1.707  0.1581 -0.7264 -0.7383
 1957TIP3   OH227505   3.824   4.035   7.181 -0.5637 -0.5925  1.2920
 1957TIP3    H127506   3.831   4.012   7.089 -0.2744  0.5697  1.0091
 1957TIP3    H227507   3.766   3.969   7.219 -0.8296 -0.9635  0.2423
 1958TIP3   OH227508   3.619   3.574   8.149  0.1521  0.1973 -0.1491
 1958TIP3    H127509   3.577   3.490   8.133 -1.0010  0.8440 -0.6100
 1958TIP3    H227510   3.712   3.554   8.157 -0.0324 -1.0313 -0.9837
 1959TIP3   OH227511   4.716   3.700   6.835  0.3209 -0.2651  0.2150
 1959TIP3    H127512   4.661   3.686   6.913 -0.7489 -1.2910 -0.7078
 1959TIP3    H227513   4.799   3.733   6.870 -0.4415  0.0838  1.7286
 1960TIP3   OH227514   4.487   4.807   6.388 -0.4064 -0.5638 -0.2668
 1960TIP3    H127515   4.483   4.716   6.416 -2.4653 -0.8605 -1.4547
 1960TIP3    H227516   4.438   4.810   6.306 -0.3969  1.6213 -0.2373
 1961TIP3   OH227517   2.493   3.246   7.339 -0.3202 -0.5518  0.0226
 1961TIP3    H127518   2.422   3.278   7.284  1.3123  0.7503 -1.3558
 1961TIP3    H227519   2.449   3.219   7.420 -2.2239  1.4882 -0.2790
 1962TIP3   OH227520   4.900   5.563   7.330  0.4478  0.0269 -0.6876
 1962TIP3    H127521   4.903   5.624   7.257  0.7429  1.5616  0.5783
 1962TIP3    H227522   4.856   5.611   7.400 -0.2659 -1.5846 -0.0056
 1963TIP3   OH227523   2.084   5.889   6.315  0.2218 -0.4243  0.1222
 1963TIP3    H127524   2.086   5.854   6.226  0.3079 -0.6046  0.1957
 1963TIP3    H227525   2.106   5.981   6.305  1.7148 -0.7763  0.1293
 1964TIP3   OH227526   4.188   5.693   7.628  0.3803  0.3163  0.2517
 1964TIP3    H127527   4.281   5.713   7.618  0.2836  0.3990 -0.5251
 1964TIP3    H227528   4.177   5.674   7.721  1.9138 -3.5076 -0.2634
 1965TIP3   OH227529   4.482   4.082   6.178 -0.3466 -0.1681 -0.2800
 1965TIP3    H127530   4.450   4.158   6.226  0.0525 -0.2761  0.1666
 1965TIP3    H227531   4.494   4.113   6.088  0.9776  0.6505  0.1535
 1966TIP3   OH227532   4.553   6.001   7.331 -0.1286  0.2804  0.5120
 1966TIP3    H127533   4.504   6.082   7.340  0.3941  0.6599 -0.0472
 1966TIP3    H227534   4.638   6.019   7.373  0.4963  0.4793 -0.8108
 1967TIP3   OH227535   4.186   4.127   6.515 -0.2542  0.1486  0.1004
 1967TIP3    H127536   4.275   4.161   6.523  0.2550 -1.4042  1.2152
 1967TIP3    H227537   4.177   4.105   6.422  0.6650 -0.0639  0.0625
 1968TIP3   OH227538   3.333   2.784   6.733  0.3525  0.0658  0.4884
 1968TIP3    H127539   3.304   2.732   6.808 -3.7399 -0.8359 -1.5958
 1968TIP3    H227540   3.388   2.725   6.682  1.2762 -0.0418  1.6088
 1969TIP3   OH227541   2.623   2.903   7.934 -0.2283  0.5040  0.2156
 1969TIP3    H127542   2.549   2.843   7.926 -0.7853  1.2338 -0.2664
 1969TIP3    H227543   2.583   2.990   7.929  0.6666  0.9031 -0.0860
 1970TIP3   OH227544   3.910   3.805   6.487 -0.2054  0.3988 -0.1052
 1970TIP3    H127545   3.915   3.901   6.486  1.5030  0.3385  1.0711
 1970TIP3    H227546   3.938   3.778   6.399  0.2976  0.9231 -0.1030
 1971TIP3   OH227547   2.685   5.622   6.614  0.2976  0.1489 -0.6099
 1971TIP3    H127548   2.731   5.672   6.546  0.5908  1.1154  0.2812
 1971TIP3    H227549   2.649   5.546   6.568  0.2476  0.9367 -1.8997
 1972TIP3   OH227550   4.276   4.966   6.811 -0.5337 -0.0162 -0.9553
 1972TIP3    H127551   4.280   5.059   6.789 -1.5116  0.1984 -0.2894
 1972TIP3    H227552   4.320   4.922   6.739 -0.3934  0.9385 -1.4603
 1973TIP3   OH227553   4.481   4.524   6.442  0.3199 -0.1387  0.1273
 1973TIP3    H127554   4.551   4.495   6.501 -0.5640 -1.1815  0.6682
 1973TIP3    H227555   4.501   4.482   6.358  0.3907 -0.3571  0.2546
 1974TIP3   OH227556   4.552   4.207   7.131 -0.2121  0.2402  0.1120
 1974TIP3    H127557   4.465   4.210   7.092 -0.7083  0.8276  1.2193
 1974TIP3    H227558   4.612   4.223   7.058 -1.1263  1.5392 -0.3764
 1975TIP3   OH227559   5.787   3.930   7.460  0.0351  0.4710 -0.8986
 1975TIP3    H127560   5.714   3.909   7.400  0.4775  1.0772 -1.6646
 1975TIP3    H227561   5.837   3.996   7.413  2.0615 -1.1865 -1.1070
 1976TIP3   OH227562   3.901   4.668   6.333 -0.3841  0.4811 -0.2112
 1976TIP3    H127563   3.992   4.644   6.319 -0.7179 -0.4798 -0.7917
 1976TIP3    H227564   3.896   4.760   6.304  0.4160  0.5720 -0.0633
 1977TIP3   OH227565   3.207   3.635   6.756  0.6497  0.2932  0.4973
 1977TIP3    H127566   3.207   3.731   6.756  0.1297  0.3009  1.5505
 1977TIP3    H227567   3.144   3.611   6.824  1.8039 -0.7891  1.2243
 1978TIP3   OH227568   3.009   5.922   6.510  0.5084 -0.0006  0.2596
 1978TIP3    H127569   3.099   5.954   6.503  0.5479 -0.0481  0.5465
 1978TIP3    H227570   3.019   5.830   6.537  0.3931 -0.2065 -0.3892
 1979TIP3   OH227571   3.721   5.351   6.472 -0.0203  0.2527  0.2810
 1979TIP3    H127572   3.813   5.338   6.448  0.4179  1.8129  1.0478
 1979TIP3    H227573   3.724   5.371   6.566 -1.3655 -1.9855  0.8276
 1980TIP3   OH227574   2.866   5.495   6.794  0.0008 -0.0630 -0.2089
 1980TIP3    H127575   2.786   5.528   6.755 -0.4253 -0.5597  0.2344
 1980TIP3    H227576   2.871   5.404   6.765 -0.7120 -0.6601  1.4778
 1981TIP3   OH227577   2.934   4.320   6.615  0.5305 -0.0629  0.4914
 1981TIP3    H127578   2.952   4.334   6.708 -0.2218 -0.4625  0.7004
 1981TIP3    H227579   2.843   4.292   6.612  0.7228 -0.6333 -0.3154
 1982TIP3   OH227580   2.629   6.506   7.909 -0.4470 -0.1422 -0.0427
 1982TIP3    H127581   2.648   6.483   7.818  0.4678  0.6210 -0.0466
 1982TIP3    H227582   2.688   6.450   7.960  0.5655  0.9640  0.0063
 1983TIP3   OH227583   3.958   5.326   0.720 -0.0412  0.2233 -0.2712
 1983TIP3    H127584   3.885   5.357   0.774  0.0393  0.3922 -0.2586
 1983TIP3    H227585   3.937   5.359   0.632 -0.5279 -0.6466 -0.4828
 1984TIP3   OH227586   2.200   4.000   8.126  0.3926  0.6122  0.4623
 1984TIP3    H127587   2.135   3.930   8.135  0.7766  0.3779  1.3726
 1984TIP3    H227588   2.188   4.055   8.203  0.8463  0.9326  0.3078
 1985TIP3   OH227589   2.191   4.127   8.370  0.2053 -0.3872 -0.2586
 1985TIP3    H127590   2.284   4.130   8.393 -0.1266  1.3663  0.9255
 1985TIP3    H227591   2.159   4.216   8.385 -1.3920 -0.6514 -1.8755
 1986TIP3   OH227592   3.827   4.424   7.078  0.0364 -0.2700  0.6186
 1986TIP3    H127593   3.890   4.487   7.044 -0.5909 -0.1595 -0.3663
 1986TIP3    H227594   3.804   4.370   7.002 -2.7997  1.1517  0.4023
 1987TIP3   OH227595   4.811   4.226   6.934  0.0214  0.0466 -0.3047
 1987TIP3    H127596   4.850   4.243   6.849  1.0125 -1.2555 -0.1259
 1987TIP3    H227597   4.885   4.226   6.995 -0.4458 -0.7550  0.2855
 1988TIP3   OH227598   3.434   6.144   7.355 -0.1828 -0.2870 -0.1312
 1988TIP3    H127599   3.520   6.181   7.339 -0.8283  1.4194  0.2596
 1988TIP3    H227600   3.415   6.092   7.277  0.1997  1.2465 -1.2655
 1989TIP3   OH227601   3.109   5.876   7.372 -0.4620 -0.0978 -0.5293
 1989TIP3    H127602   3.156   5.807   7.323  0.7616  0.6894 -0.4889
 1989TIP3    H227603   3.137   5.863   7.463 -0.5944  0.1564 -0.4541
 1990TIP3   OH227604   4.642   4.784   6.086 -0.0541  0.4206  0.1709
 1990TIP3    H127605   4.669   4.770   5.996 -0.7107 -1.1838  0.2101
 1990TIP3    H227606   4.667   4.704   6.132  0.2491  1.2101  1.4136
 1991TIP3   OH227607   4.550   2.185   6.068  0.2074 -0.1772  0.0625
 1991TIP3    H127608   4.617   2.216   6.128 -1.5763  1.6849  1.1411
 1991TIP3    H227609   4.529   2.097   6.100  0.6478  0.0552  1.0172
 1992TIP3   OH227610   3.070   7.201   1.626  0.8677  0.0163  0.1407
 1992TIP3    H127611   2.995   7.208   1.567  0.6897 -1.3651  0.1885
 1992TIP3    H227612   3.031   7.202   1.713  1.0099  0.5276  0.2006
 1993TIP3   OH227613   2.873   2.564   7.487 -0.1239  0.2541  0.6345
 1993TIP3    H127614   2.836   2.602   7.567 -2.0396 -0.0417 -0.0720
 1993TIP3    H227615   2.871   2.470   7.502 -1.9817  0.1041 -0.3397
 1994TIP3   OH227616   3.123   2.398   7.336 -0.3682  0.6500  0.2729
 1994TIP3    H127617   3.110   2.481   7.290  0.9162  1.6226  1.6018
 1994TIP3    H227618   3.205   2.364   7.300 -1.4601 -0.6267 -1.0778
 1995TIP3   OH227619   2.664   5.552   8.001 -0.1762  0.6274  0.6543
 1995TIP3    H127620   2.659   5.529   7.909  0.7532 -0.1735  0.8012
 1995TIP3    H227621   2.578   5.589   8.021 -1.5890 -2.3595  0.3313
 1996TIP3   OH227622   2.255   5.401   7.520  0.2270 -0.1332  0.3912
 1996TIP3    H127623   2.263   5.395   7.616 -0.3882  0.6505  0.4896
 1996TIP3    H227624   2.195   5.474   7.505 -1.5981 -1.7785 -0.5346
 1997TIP3   OH227625   3.262   4.467   6.374  0.0942 -1.1691 -0.1090
 1997TIP3    H127626   3.311   4.426   6.445  2.5680 -1.2593 -1.7853
 1997TIP3    H227627   3.226   4.394   6.323  0.4141 -1.1594 -0.3501
 1998TIP3   OH227628   3.413   4.292   6.506  0.5303 -0.2103  0.7749
 1998TIP3    H127629   3.468   4.251   6.440  0.5490 -1.4545  1.5488
 1998TIP3    H227630   3.337   4.234   6.514 -0.6027  1.1656  0.1553
 1999TIP3   OH227631   3.243   4.722   6.829  0.1785 -0.4237  0.3443
 1999TIP3    H127632   3.185   4.680   6.765 -0.8383  1.6259 -0.1060
 1999TIP3    H227633   3.321   4.667   6.830 -0.5841 -1.5640 -1.2284
 2000TIP3   OH227634   3.567   4.755   6.787 -0.2427  0.8209  0.0255
 2000TIP3    H127635   3.641   4.733   6.731  0.1822 -1.0261  1.2475
 2000TIP3    H227636   3.496   4.778   6.727  1.0048  1.5757 -1.1728
 2001TIP3   OH227637   4.857   3.943   6.661 -0.0850 -0.0290 -0.3767
 2001TIP3    H127638   4.867   3.912   6.751 -3.3782  0.6723  0.2881
 2001TIP3    H227639   4.912   4.022   6.657  0.0653 -0.0482  1.0320
 2002TIP3   OH227640   0.592   4.509   7.548  0.0403 -0.2229  0.1772
 2002TIP3    H127641   0.616   4.584   7.602  0.0693  0.3440 -0.6115
 2002TIP3    H227642   0.673   4.460   7.536  0.4014  0.5954 -0.7999
 2003TIP3   OH227643   1.010   5.257   8.054  0.1221  0.1495 -0.0685
 2003TIP3    H127644   0.915   5.249   8.065  0.3046 -2.3475 -0.0960
 2003TIP3    H227645   1.046   5.242   8.141  0.5261  0.8723 -0.1054
 2004TIP3   OH227646   3.360   4.272   6.192 -0.9107 -0.4009  0.1665
 2004TIP3    H127647   3.297   4.211   6.153 -1.2101  0.4302 -0.6709
 2004TIP3    H227648   3.446   4.234   6.173 -1.1190 -0.9950  0.3993
 2005TIP3   OH227649   2.502   4.133   6.750 -0.1243  0.2337  0.0118
 2005TIP3    H127650   2.424   4.172   6.711 -0.0390  0.2335 -0.1599
 2005TIP3    H227651   2.533   4.070   6.685 -2.1824 -2.6257  1.6917
 2006TIP3   OH227652   5.216   4.026   6.754 -0.5746  0.2730 -0.0621
 2006TIP3    H127653   5.245   4.076   6.831 -0.5470 -0.4360  0.3945
 2006TIP3    H227654   5.141   4.075   6.721  1.7013  2.7229 -1.8514
 2007TIP3   OH227655   2.469   4.646   6.406 -0.4485  0.5919 -0.3036
 2007TIP3    H127656   2.387   4.692   6.389  0.2852  2.0541  0.0989
 2007TIP3    H227657   2.527   4.673   6.335  0.7315  2.1333  1.2036
 2008TIP3   OH227658   4.019   2.869   6.641 -0.2284 -0.3387  0.5111
 2008TIP3    H127659   4.051   2.778   6.644  0.6376 -0.0893 -0.6974
 2008TIP3    H227660   3.988   2.880   6.551 -0.2742  0.5909  0.6367
 2009TIP3   OH227661   3.614   4.839   7.757 -0.5394  0.5619 -0.0494
 2009TIP3    H127662   3.670   4.838   7.679 -0.5586  0.5448 -0.0629
 2009TIP3    H227663   3.665   4.795   7.824 -0.0991  1.5140  0.2483
 2010TIP3   OH227664   3.601   6.648   1.349 -0.3365 -0.5480  0.1156
 2010TIP3    H127665   3.618   6.719   1.287  3.5046 -1.3822  0.0845
 2010TIP3    H227666   3.506   6.634   1.344 -0.6764  2.1311 -2.5240
 2011TIP3   OH227667   2.226   5.841   1.799  0.4537 -0.2430 -0.0292
 2011TIP3    H127668   2.243   5.758   1.755 -3.2967 -0.9536 -0.3318
 2011TIP3    H227669   2.187   5.897   1.731 -2.6978 -0.3749  1.5579
 2012TIP3   OH227670   1.504   4.652   5.971 -0.3579 -0.2550 -0.5410
 2012TIP3    H127671   1.500   4.712   6.046 -1.9267 -2.1435  0.9308
 2012TIP3    H227672   1.572   4.590   5.994 -1.9364 -1.7893  0.0805
 2013TIP3   OH227673   4.198   4.675   7.326 -0.2426 -0.0778 -0.4110
 2013TIP3    H127674   4.220   4.768   7.318  1.1236 -0.4366 -0.9205
 2013TIP3    H227675   4.253   4.632   7.261 -2.2516 -1.0454 -1.5408
 2014TIP3   OH227676   3.515   3.980   7.256  0.1522 -0.1235  0.4743
 2014TIP3    H127677   3.452   4.020   7.315 -1.8266 -0.3892 -1.3711
 2014TIP3    H227678   3.565   3.920   7.310 -0.5761  0.7613  2.1542
 2015TIP3   OH227679   5.724   4.804   0.265 -0.0076 -0.3287 -0.0082
 2015TIP3    H127680   5.719   4.899   0.277  0.1073 -0.1709 -1.1402
 2015TIP3    H227681   5.648   4.783   0.210 -1.5411 -1.2797  2.3964
 2016TIP3   OH227682   5.865   5.087   7.376 -0.1148 -0.2134  0.1117
 2016TIP3    H127683   5.803   5.087   7.302  0.0934  0.2181 -0.0633
 2016TIP3    H227684   5.938   5.140   7.346  2.5899 -4.6237 -1.5369
 2017TIP3   OH227685   3.978   5.444   7.989 -0.8540  0.1158  0.0173
 2017TIP3    H127686   3.935   5.458   7.904 -0.9220 -0.4433 -0.0440
 2017TIP3    H227687   4.008   5.531   8.015  1.2383 -0.0285 -1.7014
 2018TIP3   OH227688   3.083   4.236   6.275  0.0224 -0.0067  0.5230
 2018TIP3    H127689   3.051   4.157   6.231  0.5157 -0.7789  1.5310
 2018TIP3    H227690   3.007   4.295   6.275 -0.1990 -0.2775 -0.6892
 2019TIP3   OH227691   2.894   3.963   6.829 -0.5156  0.1583 -0.2955
 2019TIP3    H127692   2.928   4.049   6.854  0.2199 -0.0455 -0.5619
 2019TIP3    H227693   2.803   3.964   6.857 -0.7519  1.3303 -1.0472
 2020TIP3   OH227694   4.897   5.018   6.943 -0.1891 -0.4429  0.3473
 2020TIP3    H127695   4.825   4.969   6.981 -0.0608 -1.0037 -0.1166
 2020TIP3    H227696   4.968   4.954   6.934 -0.0481 -0.2029 -0.3416
 2021TIP3   OH227697   3.849   3.518   8.272 -1.2255 -0.0497  0.6590
 2021TIP3    H127698   3.819   3.535   8.362 -2.1253  0.0991  0.3337
 2021TIP3    H227699   3.890   3.431   8.277  0.1928  0.6395  1.5538
 2022TIP3   OH227700   4.430   4.580   6.804 -0.2333  0.3645 -0.3137
 2022TIP3    H127701   4.445   4.499   6.756  1.4134  0.4751 -0.0420
 2022TIP3    H227702   4.384   4.552   6.884 -0.6364 -0.1562 -0.7260
 2023TIP3   OH227703   2.962   4.930   7.262  0.4013 -0.1572 -0.0682
 2023TIP3    H127704   3.034   4.933   7.325 -0.0974 -0.2351  0.5099
 2023TIP3    H227705   3.005   4.930   7.176  1.1286 -1.5259  0.2901
 2024TIP3   OH227706   3.511   4.775   6.492 -0.6625  0.0558  0.1822
 2024TIP3    H127707   3.575   4.704   6.490 -1.7984 -0.9874 -2.6172
 2024TIP3    H227708   3.561   4.853   6.470  0.2876 -0.1526  1.5654
 2025TIP3   OH227709   2.838   3.866   7.598  0.2644  0.0602 -0.7036
 2025TIP3    H127710   2.931   3.842   7.598  0.4155  0.5777 -2.0483
 2025TIP3    H227711   2.835   3.948   7.547 -0.4978  1.8114  2.0573
 2026TIP3   OH227712   2.459   5.749   7.720  0.7152 -0.2190  0.1866
 2026TIP3    H127713   2.469   5.821   7.782 -2.0555  1.4810 -1.2623
 2026TIP3    H227714   2.386   5.697   7.754  1.5129 -1.3281  0.2410
 2027TIP3   OH227715   3.601   4.976   6.282 -0.0868 -0.2034  0.4104
 2027TIP3    H127716   3.616   4.897   6.230 -1.5984  0.2587 -0.7594
 2027TIP3    H227717   3.624   5.048   6.223  1.0617  0.2590  1.3926
 2028TIP3   OH227718   2.052   6.640   7.624 -0.1763  0.7266  0.2099
 2028TIP3    H127719   1.974   6.651   7.569  0.8865 -1.0791 -1.7397
 2028TIP3    H227720   2.048   6.548   7.652 -0.3899  1.4685  2.7056
 2029TIP3   OH227721   2.349   3.598   7.412  0.0345 -1.0065 -0.0256
 2029TIP3    H127722   2.380   3.590   7.322 -0.8514  0.4416 -0.4658
 2029TIP3    H227723   2.259   3.567   7.410 -0.1342 -0.5497  0.2604
 2030TIP3   OH227724   2.928   4.622   7.705  0.3066 -0.4920 -0.2691
 2030TIP3    H127725   3.005   4.566   7.707 -0.0434 -0.9397  0.8921
 2030TIP3    H227726   2.946   4.691   7.769  0.6533  0.6173 -1.5444
 2031TIP3   OH227727   3.546   5.423   7.725 -0.0066  0.0679  0.4886
 2031TIP3    H127728   3.633   5.385   7.733  0.1698  0.5926  1.0787
 2031TIP3    H227729   3.493   5.354   7.684  0.0766 -1.1477  2.3986
 2032TIP3   OH227730   2.615   4.872   0.000 -0.0541 -0.5352 -0.1280
 2032TIP3    H127731   2.616   4.807   0.071 -0.6050 -0.0591  0.3259
 2032TIP3    H227732   2.701   4.914   0.005  1.0285 -2.5284 -1.6536
 2033TIP3   OH227733   3.938   0.006   7.268 -0.1605  0.3234 -0.3602
 2033TIP3    H127734   3.996   0.057   7.212 -0.1872  0.7285 -0.0243
 2033TIP3    H227735   3.956  -0.085   7.245 -0.1921  0.4881 -1.0412
 2034TIP3   OH227736   1.874   4.244   6.880 -0.3246 -0.4652  0.3242
 2034TIP3    H127737   1.926   4.175   6.838  1.5995  1.4867 -0.5833
 2034TIP3    H227738   1.784   4.213   6.874  0.6078 -3.5459  1.1605
 2035TIP3   OH227739   5.841   4.223   0.915 -0.8261 -0.3376 -0.0663
 2035TIP3    H127740   5.821   4.283   0.843  1.3883  1.5809  0.8718
 2035TIP3    H227741   5.763   4.227   0.971 -2.4109 -1.5680 -2.1173
 2036TIP3   OH227742   4.581   3.913   7.195  0.4134  0.4916  0.3671
 2036TIP3    H127743   4.595   4.008   7.192 -1.6108  0.7732 -1.5019
 2036TIP3    H227744   4.487   3.902   7.182  1.1411 -1.9226 -3.8921
 2037TIP3   OH227745   2.257   4.945   7.973  0.2897 -0.1007 -0.2310
 2037TIP3    H127746   2.209   4.914   7.896 -0.0260 -0.3535  0.0663
 2037TIP3    H227747   2.213   4.904   8.047 -1.1360  2.2683  0.2956
 2038TIP3   OH227748   4.887   3.966   0.015 -0.3125  0.5147  0.2710
 2038TIP3    H127749   4.969   3.991   0.059 -0.6742  0.7469  0.8124
 2038TIP3    H227750   4.916   3.920  -0.064  0.3466 -0.3658  1.0143
 2039TIP3   OH227751   1.091   1.930   6.528  0.0023 -0.5927 -0.1372
 2039TIP3    H127752   1.097   1.841   6.492 -0.3939  0.2379 -2.3652
 2039TIP3    H227753   0.998   1.943   6.545  0.1792 -0.9527  1.1745
 2040TIP3   OH227754   4.581   4.412   6.203  0.0637 -0.7758  0.6076
 2040TIP3    H127755   4.650   4.473   6.225  0.3340  0.5635 -3.5307
 2040TIP3    H227756   4.627   4.334   6.171 -0.1934  0.2073 -2.3849
 2041TIP3   OH227757   2.546   6.087   6.479 -0.1431  0.0404  0.6109
 2041TIP3    H127758   2.505   6.026   6.541 -1.5891  1.3786  0.9839
 2041TIP3    H227759   2.486   6.092   6.406  0.2832  0.5399  0.2898
 2042TIP3   OH227760   3.561   3.500   6.855  0.0987  0.1242  0.0182
 2042TIP3    H127761   3.613   3.569   6.814 -1.3744  0.7131 -0.8700
 2042TIP3    H227762   3.558   3.523   6.947 -1.2478  1.8213 -0.4354
 2043TIP3   OH227763   1.630   4.165   6.804  0.4161 -0.0257  0.6987
 2043TIP3    H127764   1.603   4.248   6.764 -0.8916  0.2059  2.0164
 2043TIP3    H227765   1.549   4.131   6.843  1.2210 -1.2935  1.2655
 2044TIP3   OH227766   2.862   3.868   0.500  0.1123 -0.6981  0.0732
 2044TIP3    H127767   2.953   3.874   0.529  0.1038 -0.0933 -0.0246
 2044TIP3    H227768   2.842   3.955   0.465 -0.4070 -0.9190 -0.1857
 2045TIP3   OH227769   4.621   6.959   6.521  0.0209  0.3317 -0.4947
 2045TIP3    H127770   4.680   6.943   6.447  0.1733 -0.0676 -0.2890
 2045TIP3    H227771   4.631   7.052   6.540  0.1949  0.3748 -0.7980
 2046TIP3   OH227772   2.927   2.905   6.695  0.2250  0.0395  0.1589
 2046TIP3    H127773   2.988   2.856   6.641  1.4671  0.8236  0.8170
 2046TIP3    H227774   2.881   2.838   6.746  0.9072 -0.5312  0.0333
 2047TIP3   OH227775   1.290   5.026   7.147  0.5227 -0.0288 -0.5113
 2047TIP3    H127776   1.238   5.010   7.069 -0.6114  0.9571  0.0200
 2047TIP3    H227777   1.300   5.121   7.151 -0.5261  0.0277  1.2193
 2048TIP3   OH227778   1.295   5.677   6.164  0.3581 -0.2310  0.0626
 2048TIP3    H127779   1.369   5.736   6.152  0.4136 -0.1325  0.8314
 2048TIP3    H227780   1.229   5.731   6.208  0.2587 -0.6206  0.3977
 2049TIP3   OH227781   3.500   3.922   0.145  0.2711  0.0922 -0.1486
 2049TIP3    H127782   3.556   3.986   0.189 -0.7566  0.8852  0.0225
 2049TIP3    H227783   3.548   3.898   0.066  0.8017  0.8392 -0.0578
 2050TIP3   OH227784   3.546   5.147   1.667 -0.7272 -0.8953 -0.2118
 2050TIP3    H127785   3.621   5.203   1.646 -0.2083 -2.2329 -2.1124
 2050TIP3    H227786   3.563   5.116   1.756  0.2294  0.0128 -0.0772
 2051TIP3   OH227787   1.317   4.401   0.805 -0.1322  0.0484 -0.1547
 2051TIP3    H127788   1.292   4.387   0.713  1.3368  1.3204 -0.7729
 2051TIP3    H227789   1.252   4.463   0.838 -1.7807 -1.8317  0.2357
 2052TIP3   OH227790   3.428   3.025   7.295  0.4351 -0.6152  0.1367
 2052TIP3    H127791   3.405   3.110   7.258  0.4966  0.3666  2.2701
 2052TIP3    H227792   3.523   3.030   7.307  0.5755 -1.3688 -0.6519
 2053TIP3   OH227793   2.099   5.283   7.716 -0.1472 -0.4395  0.0862
 2053TIP3    H127794   2.041   5.239   7.778 -0.7024  1.4452  0.9284
 2053TIP3    H227795   2.112   5.370   7.752  0.1014  0.4653 -2.0933
 2054TIP3   OH227796   0.359   5.498   7.275  0.5108 -0.2086  0.1778
 2054TIP3    H127797   0.275   5.453   7.281  0.6850 -0.5751 -0.1217
 2054TIP3    H227798   0.389   5.507   7.365  0.4071 -0.5662  0.2480
 2055TIP3   OH227799   4.289   4.559   7.075  0.0921 -0.5748 -0.1933
 2055TIP3    H127800   4.310   4.471   7.046 -0.5789 -0.8740  0.2203
 2055TIP3    H227801   4.207   4.580   7.032  0.1996 -0.1862 -0.2139
 2056TIP3   OH227802   2.457   3.658   0.468 -0.1041  0.0547 -0.0423
 2056TIP3    H127803   2.446   3.573   0.511  0.9843 -0.7222 -1.2479
 2056TIP3    H227804   2.427   3.643   0.378  2.7045  0.1539 -1.0406
 2057TIP3   OH227805   4.926   6.337   8.292 -0.2576 -0.2785  0.1090
 2057TIP3    H127806   5.021   6.342   8.292 -0.3200  1.2739 -0.1361
 2057TIP3    H227807   4.905   6.277   8.221  0.5191  0.2767 -0.6088
 2058TIP3   OH227808   4.041   3.330   7.377  0.3738 -0.2103 -0.3799
 2058TIP3    H127809   3.953   3.307   7.347 -0.0808  1.1820 -0.1598
 2058TIP3    H227810   4.099   3.286   7.316 -0.4563 -1.5484 -0.2384
 2059TIP3   OH227811   2.395   4.864   5.991 -0.0637  0.0319 -0.2290
 2059TIP3    H127812   2.404   4.942   5.936  1.6370  0.0156  0.0073
 2059TIP3    H227813   2.474   4.863   6.044 -0.6735 -1.1668  0.6701
 2060TIP3   OH227814   4.149   3.856   6.662 -0.1666  0.0294  0.3990
 2060TIP3    H127815   4.054   3.846   6.650 -0.0851 -0.3767  0.1218
 2060TIP3    H227816   4.169   3.939   6.619 -0.3408 -0.0452  0.1718
 2061TIP3   OH227817   2.540   3.436   8.493 -0.2906  0.4169  0.1591
 2061TIP3    H127818   2.617   3.468   8.541 -0.1042 -0.3191  0.3506
 2061TIP3    H227819   2.571   3.358   8.447 -0.3730  1.3299 -1.4684
 2062TIP3   OH227820   2.161   4.550   7.731  0.3459  0.2058 -0.4535
 2062TIP3    H127821   2.138   4.502   7.810  0.9037 -1.9364 -1.5322
 2062TIP3    H227822   2.256   4.564   7.738 -0.1180  2.9582  0.7843
 2063TIP3   OH227823   3.503   4.129   6.717  0.2651 -0.2971  0.2091
 2063TIP3    H127824   3.515   4.164   6.805 -1.4941 -1.4608  0.9461
 2063TIP3    H227825   3.436   4.185   6.677 -0.2296 -0.8388  0.2620
 2064TIP3   OH227826   1.050   5.239   8.356  0.0216  0.2075  0.2308
 2064TIP3    H127827   1.057   5.313   8.416 -1.5131 -0.5994  1.4383
 2064TIP3    H227828   0.961   5.205   8.369  0.5743 -1.6363 -0.5429
 2065TIP3   OH227829   5.315   5.089   1.520  0.4728  0.8393  0.1776
 2065TIP3    H127830   5.227   5.072   1.486  0.0998  0.8975  1.0840
 2065TIP3    H227831   5.368   5.107   1.443  0.0544 -0.8148 -0.5283
 2066TIP3   OH227832   4.789   3.657   1.349  0.2150 -0.2693  0.9697
 2066TIP3    H127833   4.862   3.622   1.297  0.1117 -0.3780  0.8980
 2066TIP3    H227834   4.729   3.583   1.358 -0.1787 -0.0052  0.5056
 2067TIP3   OH227835   3.770   4.784   7.540  0.1457 -0.1547 -0.0976
 2067TIP3    H127836   3.857   4.753   7.565  0.4100  1.4940  1.0519
 2067TIP3    H227837   3.781   4.816   7.450  0.5869 -0.4720 -0.1585
 2068TIP3   OH227838   5.630   2.079   0.353 -0.9753 -0.5537  0.1693
 2068TIP3    H127839   5.657   2.125   0.433 -2.5048 -0.4650  0.6592
 2068TIP3    H227840   5.558   2.132   0.319  1.4210  0.9125 -2.7944
 2069TIP3   OH227841   3.917   4.753   6.748  0.3637 -0.9868  0.8378
 2069TIP3    H127842   3.961   4.828   6.708  0.0871 -0.0146  2.3104
 2069TIP3    H227843   3.861   4.718   6.679 -0.1374  0.6866  0.3818
 2070TIP3   OH227844   2.462   5.537   7.364 -0.2900 -0.5067  0.0095
 2070TIP3    H127845   2.424   5.495   7.441  2.2686 -1.6284  0.7213
 2070TIP3    H227846   2.433   5.484   7.290 -1.9871  0.0332  0.2623
 2071TIP3   OH227847   1.528   5.449   6.803  0.4252  0.0739  0.4221
 2071TIP3    H127848   1.613   5.405   6.811 -0.2746 -1.4337 -0.0958
 2071TIP3    H227849   1.464   5.380   6.823 -0.6700  1.2802  1.1368
 2072TIP3   OH227850   2.969   6.993   7.460  0.1844 -0.1087  0.1792
 2072TIP3    H127851   2.921   6.912   7.445  0.7455 -0.4079  0.0055
 2072TIP3    H227852   2.904   7.052   7.498 -0.6985 -0.0630 -1.3372
 2073TIP3   OH227853   5.098   6.219   0.071 -0.1254  0.7235  0.3852
 2073TIP3    H127854   5.175   6.205   0.125  1.2357  0.4421 -1.5617
 2073TIP3    H227855   5.133   6.253  -0.012 -1.9242 -1.0962 -1.1729
 2074TIP3   OH227856   3.826   5.863   8.476  0.0247  0.4615  0.2014
 2074TIP3    H127857   3.921   5.878   8.472  0.1314  0.7194  3.0422
 2074TIP3    H227858   3.791   5.912   8.401  2.0192  1.2096 -0.2720
 2075TIP3   OH227859   3.298   4.834   6.109 -0.3142  1.1252 -0.1765
 2075TIP3    H127860   3.291   4.824   6.204 -0.3418 -0.6469 -0.3394
 2075TIP3    H227861   3.228   4.894   6.085 -0.4024  1.4590  0.9003
 2076TIP3   OH227862   3.944   4.148   0.564 -0.0197 -0.2814 -0.6815
 2076TIP3    H127863   3.892   4.068   0.565  1.1536 -1.0600  0.6996
 2076TIP3    H227864   3.912   4.199   0.637 -0.8357  0.5771 -1.6227
 2077TIP3   OH227865   3.971   6.542   7.815 -0.0943 -0.2416 -0.1471
 2077TIP3    H127866   3.944   6.631   7.837 -1.2357 -0.9316  1.2994
 2077TIP3    H227867   4.050   6.553   7.761  0.0888  1.6205  0.4829
 2078TIP3   OH227868   3.467   5.393   0.781  0.0901  0.2192  0.2637
 2078TIP3    H127869   3.386   5.377   0.733  0.3018  0.4504 -0.1791
 2078TIP3    H227870   3.463   5.486   0.804 -1.2387 -0.4801  3.0094
 2079TIP3   OH227871   3.490   6.851   0.560 -0.2060  0.3487 -0.7450
 2079TIP3    H127872   3.514   6.812   0.643 -0.9683  1.5808  0.0786
 2079TIP3    H227873   3.493   6.779   0.497 -1.6842 -1.0638  0.7475
 2080TIP3   OH227874   3.458   5.954   7.182  0.5951 -0.4411 -0.3843
 2080TIP3    H127875   3.552   5.940   7.180  0.5126 -1.4358  1.5155
 2080TIP3    H227876   3.421   5.870   7.208 -0.7318  0.2016 -0.0924
 2081TIP3   OH227877   2.885   6.160   7.671  0.2189  0.3163 -0.2953
 2081TIP3    H127878   2.919   6.077   7.706 -1.5099 -0.6136 -0.7608
 2081TIP3    H227879   2.897   6.153   7.576 -2.4491 -0.6403 -0.6264
 2082TIP3   OH227880   5.139   3.803   7.189 -0.0948 -0.1853 -0.5450
 2082TIP3    H127881   5.111   3.766   7.273 -0.9357  0.8221 -0.3610
 2082TIP3    H227882   5.086   3.757   7.124 -1.5948  1.0900 -0.2692
 2083TIP3   OH227883   2.684   4.713   0.548 -0.2744 -0.0182 -0.7235
 2083TIP3    H127884   2.711   4.772   0.619  2.9466 -1.5800 -0.5513
 2083TIP3    H227885   2.657   4.633   0.592 -0.2326 -0.2808 -1.1731
 2084TIP3   OH227886   3.371   4.482   6.757  0.0833  0.1811  0.7837
 2084TIP3    H127887   3.371   4.417   6.688  0.8999 -1.2529  2.1031
 2084TIP3    H227888   3.464   4.493   6.780  0.0576  2.6337 -0.1868
 2085TIP3   OH227889   2.349   3.326   7.093  0.9805  0.0408  0.0815
 2085TIP3    H127890   2.392   3.411   7.083  1.1162 -0.2878 -2.3938
 2085TIP3    H227891   2.256   3.347   7.098  0.8360  0.2644 -2.5761
 2086TIP3   OH227892   4.762   4.604   6.263  0.2320  0.1244  0.1067
 2086TIP3    H127893   4.793   4.653   6.339  1.0089  0.8305 -0.6374
 2086TIP3    H227894   4.842   4.588   6.211 -0.2760 -0.3682 -0.5315
 2087TIP3   OH227895   3.723   6.168   7.326  0.7296  0.1598 -0.3394
 2087TIP3    H127896   3.733   6.080   7.290  1.1533 -0.7990  2.0222
 2087TIP3    H227897   3.810   6.207   7.318  0.9475 -0.2299  0.1090
 2088TIP3   OH227898   3.226   6.579   1.573 -0.2045 -0.1374  0.6631
 2088TIP3    H127899   3.269   6.493   1.570 -0.6235 -0.3313  0.0563
 2088TIP3    H227900   3.269   6.624   1.645  0.1088 -0.8131  0.9116
 2089TIP3   OH227901   5.286   3.779   6.843  0.2059  0.5289 -0.7418
 2089TIP3    H127902   5.343   3.802   6.916  0.5110 -1.1286 -0.4261
 2089TIP3    H227903   5.279   3.859   6.791  0.1783  1.6659  0.9629
 2090TIP3   OH227904   5.962   4.549   6.873 -0.2314  0.3839 -0.1646
 2090TIP3    H127905   6.030   4.530   6.938 -1.9285 -0.4412  1.4116
 2090TIP3    H227906   5.990   4.631   6.832  2.1437 -0.3819 -0.1596
 2091TIP3   OH227907   3.280   6.039   0.160 -0.0243 -0.6168 -0.2501
 2091TIP3    H127908   3.286   6.097   0.085 -1.1582  0.0153  0.1348
 2091TIP3    H227909   3.344   6.074   0.223 -0.5999  0.1375 -0.0751
 2092TIP3   OH227910   1.445   5.713   6.865 -0.3080 -0.0409  0.2604
 2092TIP3    H127911   1.472   5.621   6.858 -1.1523 -0.3240  0.5606
 2092TIP3    H227912   1.386   5.726   6.791 -1.8807 -0.3732  1.4007
 2093TIP3   OH227913   3.586   2.116   7.475  0.0228  0.3546  0.1562
 2093TIP3    H127914   3.551   2.078   7.556 -2.5593  0.8805 -0.6573
 2093TIP3    H227915   3.661   2.168   7.503 -0.2039 -0.3173  2.0766
 2094TIP3   OH227916   2.145   4.309   5.793 -0.2462 -0.0900 -0.7536
 2094TIP3    H127917   2.086   4.237   5.814 -0.1531  0.4306  1.3336
 2094TIP3    H227918   2.222   4.267   5.754 -1.1975 -0.9103 -1.7598
 2095TIP3   OH227919   3.266   5.473   6.437 -0.0125  0.1741 -0.5074
 2095TIP3    H127920   3.212   5.396   6.456  0.1813  0.5577  1.7977
 2095TIP3    H227921   3.203   5.539   6.405 -0.3319 -0.5992 -1.4807
 2096TIP3   OH227922   2.852   1.741   7.097 -0.3547 -0.6919 -0.2132
 2096TIP3    H127923   2.894   1.743   7.183 -0.1839  0.4157 -0.3098
 2096TIP3    H227924   2.902   1.675   7.048 -1.6913 -2.7683  1.1321
 2097TIP3   OH227925   2.273   5.110   8.389 -0.1996 -0.1272 -0.5207
 2097TIP3    H127926   2.365   5.101   8.362  0.1289 -0.8658  0.7986
 2097TIP3    H227927   2.270   5.193   8.436 -0.5906  0.7438 -2.0506
 2098TIP3   OH227928   2.065   3.452   1.110  0.4029  0.3003  0.3608
 2098TIP3    H127929   2.045   3.462   1.017  1.9275 -0.6413 -0.0721
 2098TIP3    H227930   2.148   3.497   1.122  0.3392  0.1987  1.2278
 2099TIP3   OH227931   3.982   5.070   6.293  0.7259  0.4258  0.3794
 2099TIP3    H127932   4.059   5.075   6.237  0.3705  1.0181 -0.0688
 2099TIP3    H227933   3.976   5.157   6.333  0.4314  0.3089  0.5906
 2100TIP3   OH227934   3.835   6.486   6.296 -0.8423 -0.4292  0.1606
 2100TIP3    H127935   3.793   6.531   6.223 -1.9271 -0.8136  0.5332
 2100TIP3    H227936   3.927   6.482   6.272 -0.8541  1.3266 -0.2118
 2101TIP3   OH227937   2.600   2.484   7.883  0.1033 -0.1282  1.0686
 2101TIP3    H127938   2.613   2.532   7.801 -0.9389 -1.5038  0.0782
 2101TIP3    H227939   2.650   2.534   7.948  1.2501  0.7720 -0.4714
 2102TIP3   OH227940   1.826   6.759   8.235 -0.0448 -0.6371  0.0390
 2102TIP3    H127941   1.775   6.802   8.166  1.4447 -0.0537 -0.7168
 2102TIP3    H227942   1.839   6.670   8.203  3.5481  0.5534 -2.0950
 2103TIP3   OH227943   3.626   5.209   8.216  0.0010 -0.3576  0.6188
 2103TIP3    H127944   3.693   5.209   8.148  0.6525  3.2532  1.1413
 2103TIP3    H227945   3.674   5.192   8.297 -0.4166 -2.3179  0.4591
 2104TIP3   OH227946   4.769   6.395   7.929 -0.1703 -0.1229  0.5375
 2104TIP3    H127947   4.853   6.420   7.891 -0.9163 -1.4008 -2.0852
 2104TIP3    H227948   4.788   6.317   7.980 -0.0166 -1.3968 -1.4192
 2105TIP3   OH227949   5.064   4.727   8.184  0.0868  0.4134 -0.4367
 2105TIP3    H127950   4.986   4.680   8.155  0.8148 -0.5257 -0.8972
 2105TIP3    H227951   5.081   4.790   8.115 -1.1629  1.6850  0.4016
 2106TIP3   OH227952   1.413   0.316   8.330  0.0229  0.4232  0.0421
 2106TIP3    H127953   1.458   0.236   8.301 -0.7455 -0.9553  2.5163
 2106TIP3    H227954   1.416   0.312   8.425 -1.2224  2.6900  0.1985
 2107TIP3   OH227955   3.177   4.778   7.613 -0.3153 -0.1483  0.5870
 2107TIP3    H127956   3.248   4.718   7.636  0.0469  0.0476  0.0133
 2107TIP3    H227957   3.197   4.859   7.659  0.1390  0.0833 -0.0083
 2108TIP3   OH227958   3.789   6.238   7.737 -0.5372  0.3228 -0.0538
 2108TIP3    H127959   3.743   6.321   7.728  0.6028  0.8992 -0.5539
 2108TIP3    H227960   3.721   6.176   7.765 -1.4173  1.3763  0.1516
 2109TIP3   OH227961   2.115   6.299   7.212  0.5009  0.2398 -0.0309
 2109TIP3    H127962   2.088   6.210   7.234  0.2042  0.3134 -0.0830
 2109TIP3    H227963   2.131   6.297   7.118 -1.8853  0.8210 -0.4809
 2110TIP3   OH227964   3.716   2.082   8.365  0.1151  0.0248  0.7974
 2110TIP3    H127965   3.786   2.136   8.328 -0.5730  0.7735  0.5985
 2110TIP3    H227966   3.713   2.005   8.307  0.0159  0.5144  0.1494
 2111TIP3   OH227967   4.148   2.102   7.531  0.5997 -0.0655 -0.6293
 2111TIP3    H127968   4.147   2.145   7.617 -0.6246  1.0000 -1.1580
 2111TIP3    H227969   4.114   2.014   7.548  0.7537  0.0050  0.0560
 2112TIP3   OH227970   3.887   4.077   6.456 -0.0756 -0.4712 -0.0364
 2112TIP3    H127971   3.812   4.115   6.411  0.0081 -1.8597 -1.3545
 2112TIP3    H227972   3.963   4.114   6.410  0.0362 -0.2869  0.2948
 2113TIP3   OH227973   3.390   2.286   7.299  0.0541  0.3671 -0.3629
 2113TIP3    H127974   3.339   2.215   7.260 -0.4135 -0.3918  1.5287
 2113TIP3    H227975   3.474   2.245   7.322 -0.6348  0.0842  1.7809
 2114TIP3   OH227976   0.419   3.817   6.665  0.3184 -0.4582 -0.2866
 2114TIP3    H127977   0.433   3.901   6.710  0.2326  0.7681 -2.5167
 2114TIP3    H227978   0.329   3.793   6.689 -0.2058  0.8553 -0.8580
 2115TIP3   OH227979   3.088   4.460   6.880  0.6184  0.2214  0.3162
 2115TIP3    H127980   3.109   4.527   6.945 -0.1790  0.8777 -0.0876
 2115TIP3    H227981   3.173   4.434   6.844  1.0000  0.4065  1.0760
 2116TIP3   OH227982   4.982   3.407   7.584 -0.1706  0.3674  0.8713
 2116TIP3    H127983   5.023   3.460   7.652  1.1659  2.0464 -1.2073
 2116TIP3    H227984   5.052   3.351   7.551 -0.6584  0.0100  0.4272
 2117TIP3   OH227985   4.020   3.565   7.148 -0.2714 -0.0660  0.2364
 2117TIP3    H127986   4.091   3.524   7.099  0.9930  1.8371  0.4309
 2117TIP3    H227987   4.053   3.571   7.237 -1.3279 -0.6237  0.6711
 2118TIP3   OH227988   1.742   3.822   6.442  0.1743 -0.3601  0.1679
 2118TIP3    H127989   1.753   3.851   6.533  1.7020 -0.3806  0.0091
 2118TIP3    H227990   1.792   3.885   6.391  0.9027 -1.4353 -0.4749
 2119TIP3   OH227991   3.711   5.208   6.212 -0.6850 -0.2384 -0.8055
 2119TIP3    H127992   3.789   5.154   6.227  1.6700  2.4801 -2.6207
 2119TIP3    H227993   3.691   5.245   6.298  1.3600  0.6954 -0.6976
 2120TIP3   OH227994   2.599   5.845   6.770  0.3711  0.4519 -0.3887
 2120TIP3    H127995   2.686   5.809   6.755 -0.7792 -2.5394 -0.2435
 2120TIP3    H227996   2.540   5.784   6.726 -1.8756  0.7339  2.1316
 2121TIP3   OH227997   3.162   2.212   6.984  0.1645  0.7977  0.0301
 2121TIP3    H127998   3.113   2.161   6.920 -1.3119  1.0802  0.9105
 2121TIP3    H227999   3.164   2.301   6.948  2.1478  0.2974 -1.1708
 2122TIP3   OH228000   4.619   4.286   8.162  0.4421 -0.0233  0.2799
 2122TIP3    H128001   4.711   4.262   8.173  0.4052 -0.2381  0.1260
 2122TIP3    H228002   4.571   4.221   8.213  0.4763  1.2520  1.9939
 2123TIP3   OH228003   3.609   6.921   7.751 -0.2846  0.1111  0.0048
 2123TIP3    H128004   3.573   6.832   7.754 -1.9979  0.7777 -0.1011
 2123TIP3    H228005   3.670   6.925   7.824 -0.9679 -0.8411  0.6352
 2124TIP3   OH228006   2.302   3.959   1.612  0.2839 -0.1538 -0.0019
 2124TIP3    H128007   2.360   4.034   1.627  0.6987 -0.6087  0.7078
 2124TIP3    H228008   2.348   3.906   1.547  0.1664  0.0193 -0.2260
 2125TIP3   OH228009   3.271   6.215   8.425 -0.1154  0.0916 -0.6699
 2125TIP3    H128010   3.185   6.254   8.405 -0.7335 -0.6970  0.4214
 2125TIP3    H228011   3.324   6.290   8.452 -0.9641  0.3740  0.2880
 2126TIP3   OH228012   4.123   4.876   7.017  0.3670  0.2962  0.3727
 2126TIP3    H128013   4.175   4.880   7.097  0.8126 -0.9435  0.1443
 2126TIP3    H228014   4.187   4.875   6.946  0.0205 -0.6041  0.0687
 2127TIP3   OH228015   4.798   4.569   7.382  0.1940  0.3597  0.2227
 2127TIP3    H128016   4.838   4.485   7.401 -0.1760  0.2470  0.5137
 2127TIP3    H228017   4.869   4.622   7.344  0.8754  0.4918  1.6358
 2128TIP3   OH228018   5.042   4.338   8.275  0.3093 -1.1486  0.4461
 2128TIP3    H128019   4.997   4.407   8.226  1.2190  0.5403  1.9241
 2128TIP3    H228020   4.972   4.295   8.324 -0.3260 -1.5899 -0.8082
 2129TIP3   OH228021   4.683   4.461   0.150  0.2253 -0.0555 -0.6932
 2129TIP3    H128022   4.647   4.507   0.074 -1.1181 -1.8973 -1.1988
 2129TIP3    H228023   4.775   4.490   0.153 -0.4615  2.3080 -1.2220
 2130TIP3   OH228024   5.660   5.326   6.694 -0.1107  0.1703 -0.4197
 2130TIP3    H128025   5.577   5.279   6.700  0.1260 -0.1465  0.5067
 2130TIP3    H228026   5.636   5.418   6.709 -0.0079 -0.1947  2.1782
 2131TIP3   OH228027   6.435   5.692   6.781 -0.0399 -0.9720  0.4211
 2131TIP3    H128028   6.438   5.767   6.839  0.8735 -0.6739 -0.0038
 2131TIP3    H228029   6.473   5.723   6.698 -0.1988 -1.7248  0.0563
 2132TIP3   OH228030   5.491   6.084   6.926 -0.4573  0.2086 -0.1284
 2132TIP3    H128031   5.424   6.151   6.914 -1.9266 -1.4997 -1.9361
 2132TIP3    H228032   5.574   6.130   6.909 -1.1980  2.1747  1.4102
 2133TIP3   OH228033   3.891   4.752   7.033 -0.2006 -0.3295  0.2909
 2133TIP3    H128034   3.974   4.794   7.054 -0.7157  0.3215  1.0864
 2133TIP3    H228035   3.881   4.763   6.938  0.8444 -0.8410  0.1218
 2134TIP3   OH228036   3.972   4.555   8.237  0.0991  0.3616 -0.0448
 2134TIP3    H128037   4.000   4.640   8.273 -0.5935 -0.1581  1.7417
 2134TIP3    H228038   3.886   4.540   8.276 -0.6875 -0.2049 -1.9707
 2135TIP3   OH228039   5.937   4.669   6.427 -0.3946  0.4774 -0.1363
 2135TIP3    H128040   5.972   4.745   6.474  0.0278 -0.7599  1.5911
 2135TIP3    H228041   5.988   4.665   6.347 -0.8011  2.3379 -0.5276
 2136TIP3   OH228042   3.398   3.887   6.341  0.2056  0.7293 -0.0082
 2136TIP3    H128043   3.469   3.946   6.369  1.8170 -0.9935 -0.3368
 2136TIP3    H228044   3.403   3.814   6.403  0.2111 -0.4907 -1.4243
 2137TIP3   OH228045   5.159   3.058   6.921  0.0819  0.5199  0.3072
 2137TIP3    H128046   5.075   3.036   6.959  0.3119 -0.4535  0.2557
 2137TIP3    H228047   5.144   3.142   6.876 -0.8281  0.3837  0.3607
 2138TIP3   OH228048   3.266   5.979   6.597 -0.2992  0.0003 -0.5437
 2138TIP3    H128049   3.314   5.898   6.581  0.7264  0.5811 -0.4381
 2138TIP3    H228050   3.283   5.999   6.689 -0.6413  0.2755 -0.5399
 2139TIP3   OH228051   5.772   4.594   8.305  0.2876 -0.8460 -0.1905
 2139TIP3    H128052   5.738   4.683   8.298  0.6509 -0.4088  2.7933
 2139TIP3    H228053   5.862   4.600   8.272  0.5007  0.0340  0.5316
 2140TIP3   OH228054   5.348   5.718   7.100 -0.3384 -0.2221  0.4452
 2140TIP3    H128055   5.291   5.670   7.039 -1.6335  1.8025  0.0238
 2140TIP3    H228056   5.289   5.775   7.148  0.9761 -0.2509  2.1220
 2141TIP3   OH228057   4.216   5.093   6.168 -0.0217 -0.2162 -0.0370
 2141TIP3    H128058   4.302   5.054   6.152  0.0289 -0.7148  1.3663
 2141TIP3    H228059   4.199   5.146   6.090  0.0792 -2.6984 -1.8097
 2142TIP3   OH228060   4.470   6.572   7.072 -0.1099  0.8207 -0.0170
 2142TIP3    H128061   4.435   6.642   7.127 -0.2620  1.2718 -0.6859
 2142TIP3    H228062   4.451   6.600   6.982  2.1305  1.1858 -0.4076
 2143TIP3   OH228063   3.661   4.187   6.263  0.1713  0.2403 -0.5287
 2143TIP3    H128064   3.649   4.106   6.214 -0.6161  0.2744 -0.4033
 2143TIP3    H228065   3.709   4.244   6.204 -1.8727  0.7259 -1.7569
 2144TIP3   OH228066   5.397   3.735   6.089 -0.3581 -0.7030 -0.2039
 2144TIP3    H128067   5.363   3.710   6.003 -0.8049 -0.0366 -0.2195
 2144TIP3    H228068   5.365   3.666   6.148 -2.1184  0.1397 -0.1359
 2145TIP3   OH228069   6.814   6.492   6.762  0.2659 -0.0851  0.2503
 2145TIP3    H128070   6.864   6.567   6.731  0.1088 -0.0569  0.0623
 2145TIP3    H228071   6.763   6.464   6.686  0.0076 -0.1236  0.4376
 2146TIP3   OH228072   2.766   4.593   6.543 -0.0093 -0.1318 -0.0455
 2146TIP3    H128073   2.746   4.620   6.454  0.9165 -0.8643 -0.4841
 2146TIP3    H228074   2.775   4.498   6.538  1.9983  0.0048  0.4332
 2147TIP3   OH228075   6.907   4.166   6.343  0.5695  0.4335  0.5143
 2147TIP3    H128076   6.941   4.203   6.261 -0.1380 -0.5365 -0.2262
 2147TIP3    H228077   6.968   4.095   6.364 -0.3149 -0.5472 -0.1914
 2148TIP3   OH228078   6.135   2.985   6.940 -0.2788  0.3690  0.4951
 2148TIP3    H128079   6.163   3.074   6.962  0.7361 -0.3310  2.1341
 2148TIP3    H228080   6.043   2.994   6.917  0.4986  2.2583 -2.0453
 2149TIP3   OH228081   7.058   5.581   7.201 -0.0796  0.2258 -0.0198
 2149TIP3    H128082   7.081   5.518   7.269 -0.0113  0.2124 -0.0545
 2149TIP3    H228083   7.031   5.527   7.127  0.1068  0.2333 -0.0942
 2150TIP3   OH228084   4.863   6.294   7.313  0.8345  0.2606  0.6251
 2150TIP3    H128085   4.806   6.370   7.316  1.4824  0.7711  0.2201
 2150TIP3    H228086   4.937   6.322   7.259  0.7152 -0.8918 -0.1556
 2151TIP3   OH228087   5.169   6.048   8.113 -0.2514 -0.3824  0.4327
 2151TIP3    H128088   5.196   6.006   8.031 -2.4018  1.8366 -1.4783
 2151TIP3    H228089   5.220   6.129   8.117 -1.6432  0.5307  0.1921
 2152TIP3   OH228090   4.439   5.342   6.626 -0.2124  0.1835  0.4555
 2152TIP3    H128091   4.370   5.329   6.560  0.3860 -0.6452 -0.0249
 2152TIP3    H228092   4.520   5.318   6.580  0.5360  2.1607  0.6908
 2153TIP3   OH228093   4.722   6.233   0.869  0.0496  0.2061 -0.5181
 2153TIP3    H128094   4.648   6.198   0.820 -2.3991  3.3483  0.6973
 2153TIP3    H228095   4.700   6.217   0.961  1.1913  0.5759 -0.1649
 2154TIP3   OH228096   4.640   4.424   6.617  0.3697  0.4918 -0.0980
 2154TIP3    H128097   4.714   4.370   6.588 -0.6526 -0.5982 -0.6815
 2154TIP3    H228098   4.679   4.483   6.682  1.8733  0.3040 -0.7932
 2155TIP3   OH228099   5.041   4.656   7.249 -0.4896 -0.2862 -0.1153
 2155TIP3    H128100   5.092   4.579   7.274  0.6747  0.4112 -0.3357
 2155TIP3    H228101   5.098   4.706   7.192 -0.9096  1.1846  0.7208
 2156TIP3   OH228102   5.368   5.019   6.378 -0.3991  0.7201  0.1505
 2156TIP3    H128103   5.353   5.084   6.310 -2.5384 -0.1099 -0.1936
 2156TIP3    H228104   5.291   4.962   6.375  1.1775 -1.5165  0.7971
 2157TIP3   OH228105   3.613   6.118   6.682 -0.0232  0.3650 -0.3383
 2157TIP3    H128106   3.583   6.133   6.772 -0.0400  1.1705 -0.4714
 2157TIP3    H228107   3.661   6.035   6.686 -0.0587  0.3759  0.4057
 2158TIP3   OH228108   5.226   6.915   0.080 -0.5008 -0.3986  0.3916
 2158TIP3    H128109   5.225   6.975   0.006 -0.7882 -1.2858 -0.3313
 2158TIP3    H228110   5.135   6.884   0.086 -0.3681 -0.7135  0.7919
 2159TIP3   OH228111   5.367   6.307   6.842  0.1354  0.4981  0.7013
 2159TIP3    H128112   5.398   6.382   6.892  0.0614 -0.2785  1.9207
 2159TIP3    H228113   5.425   6.304   6.766  0.0596  1.8613  0.5732
 2160TIP3   OH228114   4.684   4.863   7.496 -0.2209  0.3415 -0.0876
 2160TIP3    H128115   4.725   4.788   7.540 -1.6305 -0.6531 -0.4570
 2160TIP3    H228116   4.608   4.885   7.550  0.7752  2.2270  0.6226
 2161TIP3   OH228117   4.288   4.271   7.571  0.1660 -0.3963  0.2750
 2161TIP3    H128118   4.241   4.189   7.552 -0.0788 -0.1788 -0.0542
 2161TIP3    H228119   4.276   4.324   7.493 -0.0429  0.1266  0.6607
 2162TIP3   OH228120   4.544   5.227   6.230 -0.2531 -0.2242  0.4360
 2162TIP3    H128121   4.559   5.243   6.323 -0.7128 -0.5778  0.5698
 2162TIP3    H228122   4.514   5.312   6.196  2.5695  0.6625  0.0438
 2163TIP3   OH228123   2.257   6.188   6.704  0.4817  0.1223 -1.0423
 2163TIP3    H128124   2.310   6.228   6.635  0.0895 -0.7198 -1.8463
 2163TIP3    H228125   2.217   6.111   6.662  0.1884 -0.3622  0.1055
 2164TIP3   OH228126   7.130   6.928   7.968  0.3185  0.0008  0.3043
 2164TIP3    H128127   7.181   6.931   8.049 -0.2550 -1.6645  0.7365
 2164TIP3    H228128   7.061   6.993   7.981 -0.1743 -0.7376  1.4352
 2165TIP3   OH228129   5.184   5.486   7.398 -0.4983  0.8007  0.1557
 2165TIP3    H128130   5.232   5.424   7.341 -0.2603 -0.4473  1.6741
 2165TIP3    H228131   5.109   5.514   7.345 -0.1581 -0.1530 -0.8625
 2166TIP3   OH228132   4.465   4.831   6.677  0.8319 -0.1384 -0.4696
 2166TIP3    H128133   4.501   4.819   6.589 -0.2862  1.6902 -1.1905
 2166TIP3    H228134   4.467   4.743   6.715  1.3760 -0.9428 -2.2832
 2167TIP3   OH228135   6.174   3.736   0.768 -0.4463 -1.1781 -0.2104
 2167TIP3    H128136   6.201   3.821   0.734 -0.6048 -0.9890  0.1355
 2167TIP3    H228137   6.150   3.686   0.690 -1.0701 -0.6560 -0.3556
 2168TIP3   OH228138   6.993   5.974   7.257 -0.4678  0.4520  0.3018
 2168TIP3    H128139   7.006   5.955   7.350  0.2321 -0.6276 -0.0123
 2168TIP3    H228140   7.074   5.945   7.215 -1.4643 -0.6766 -0.8732
 2169TIP3   OH228141   3.395   5.471   6.679  0.8610  0.5466  0.1559
 2169TIP3    H128142   3.324   5.514   6.726  1.0750  1.5260 -0.3990
 2169TIP3    H228143   3.368   5.476   6.587  0.4233 -1.3758  0.1449
 2170TIP3   OH228144   3.084   1.922   7.574 -0.1358  0.4539 -0.2060
 2170TIP3    H128145   3.111   2.011   7.551 -0.5185  0.1932 -1.7027
 2170TIP3    H228146   2.989   1.924   7.572 -0.1509  0.0790  0.0568
 2171TIP3   OH228147   6.509   6.170   6.958  0.0961  0.2010 -0.4723
 2171TIP3    H128148   6.577   6.237   6.956  0.1366  0.2055  0.5364
 2171TIP3    H228149   6.470   6.171   6.870  2.2704 -0.7064 -1.4747
 2172TIP3   OH228150   0.167   4.425   6.573  0.2118 -0.4968  0.0357
 2172TIP3    H128151   0.179   4.507   6.524 -0.2072 -0.1206  0.5507
 2172TIP3    H228152   0.159   4.454   6.664  0.9126 -1.1821  0.3144
 2173TIP3   OH228153   3.838   0.070   6.561 -0.4846  0.0199 -0.0404
 2173TIP3    H128154   3.854   0.132   6.490 -0.0269 -0.9639 -0.8145
 2173TIP3    H228155   3.885  -0.009   6.535  1.4699  0.3242  2.3694
 2174TIP3   OH228156   6.705   4.118   7.101 -0.2783 -0.1157 -0.3048
 2174TIP3    H128157   6.681   4.203   7.136 -0.7626 -0.8172  1.1247
 2174TIP3    H228158   6.656   4.111   7.018  1.7138  2.0073 -1.7109
 2175TIP3   OH228159   5.404   4.194   7.736  0.0181  0.5122 -0.4364
 2175TIP3    H128160   5.421   4.183   7.830 -3.8541 -0.4175  0.2210
 2175TIP3    H228161   5.430   4.285   7.718  0.6323  0.7641  1.5744
 2176TIP3   OH228162   4.074   3.819   0.783  0.0758 -0.2603 -0.0784
 2176TIP3    H128163   4.025   3.893   0.820 -0.0884 -0.0171 -0.7730
 2176TIP3    H228164   4.006   3.762   0.747  0.2861 -0.0814 -0.7536
 2177TIP3   OH228165   2.630   5.071   0.644  0.5922  0.0008 -0.1727
 2177TIP3    H128166   2.629   5.051   0.738  1.2070  0.0481 -0.1518
 2177TIP3    H228167   2.543   5.107   0.626 -0.4554 -2.3721 -0.1293
 2178TIP3   OH228168   5.861   5.088   6.352  0.4771 -0.0147 -0.3999
 2178TIP3    H128169   5.842   5.177   6.384 -1.0482 -0.3467 -0.3417
 2178TIP3    H228170   5.807   5.031   6.407 -1.2084 -0.7023 -2.7113
 2179TIP3   OH228171   5.310   6.666   0.424  0.5880 -0.1228 -0.0042
 2179TIP3    H128172   5.352   6.606   0.363  0.8361 -0.0107  0.0579
 2179TIP3    H228173   5.326   6.753   0.387  0.5007 -0.0736  0.0731
 2180TIP3   OH228174   5.237   3.527   6.766 -0.2412 -0.6154 -0.3111
 2180TIP3    H128175   5.186   3.537   6.685 -0.1881  0.7842 -0.1941
 2180TIP3    H228176   5.245   3.617   6.799  1.5650 -0.9389  0.1319
 2181TIP3   OH228177   6.593   5.589   0.270 -0.2579  0.1140  0.4617
 2181TIP3    H128178   6.607   5.560   0.360  2.1341  1.5657  0.6170
 2181TIP3    H228179   6.526   5.657   0.276 -0.5040 -0.1848  1.0814
 2182TIP3   OH228180   3.577   4.103   6.992  0.0530  0.2936  0.6848
 2182TIP3    H128181   3.559   4.105   7.086  0.1834 -0.9923  0.7550
 2182TIP3    H228182   3.626   4.021   6.979 -1.0867 -0.1923 -0.6849
 2183TIP3   OH228183   6.329   4.448   8.137  0.1456 -0.6009 -0.0753
 2183TIP3    H128184   6.265   4.380   8.114 -0.3962 -0.2673  0.4518
 2183TIP3    H228185   6.356   4.485   8.052  0.7941 -1.7814 -0.3989
 2184TIP3   OH228186   4.755   3.675   8.202  0.3163  0.1042  0.6486
 2184TIP3    H128187   4.821   3.743   8.210 -1.2204  1.4002  3.0973
 2184TIP3    H228188   4.794   3.598   8.243 -0.1220  1.2400  3.3196
 2185TIP3   OH228189   4.466   3.849   7.484  0.0875  0.0550  0.6771
 2185TIP3    H128190   4.503   3.783   7.425  0.2374 -0.4038  1.2846
 2185TIP3    H228191   4.504   3.931   7.454 -0.7834 -0.0074 -0.6451
 2186TIP3   OH228192   1.083   4.693   0.043  0.1086  0.5678 -0.0334
 2186TIP3    H128193   0.992   4.688   0.072  0.9171  0.3676  2.6139
 2186TIP3    H228194   1.085   4.766  -0.019 -1.8672  0.4991 -0.1940
 2187TIP3   OH228195   4.405   4.758   7.506 -0.4985  0.0690 -0.1708
 2187TIP3    H128196   4.476   4.699   7.531  1.9497  2.8082 -0.3930
 2187TIP3    H228197   4.340   4.701   7.464  1.1311 -2.6315  0.8088
 2188TIP3   OH228198   4.466   3.000   7.367  0.0870  0.5302  0.2574
 2188TIP3    H128199   4.447   3.030   7.278 -1.7570 -0.9945  0.1127
 2188TIP3    H228200   4.542   2.943   7.357 -1.3369 -1.2448 -0.6615
 2189TIP3   OH228201   4.963   4.282   6.160 -0.7596  0.1631 -0.3328
 2189TIP3    H128202   4.891   4.242   6.111 -0.2029 -2.3240  0.8457
 2189TIP3    H228203   4.932   4.286   6.250  0.1788  0.0229  0.0017
 2190TIP3   OH228204   4.219   4.557   6.572 -0.0924 -0.3563  0.1589
 2190TIP3    H128205   4.308   4.555   6.606  0.1204  0.6825 -0.3107
 2190TIP3    H228206   4.228   4.539   6.479 -0.2210  1.0516 -0.1432
 2191TIP3   OH228207   2.103   0.241   0.487 -0.1138  0.2236  0.6925
 2191TIP3    H128208   2.160   0.314   0.511  3.1776 -1.6195 -1.1095
 2191TIP3    H228209   2.111   0.180   0.560 -1.1675  0.7121  1.2221
 2192TIP3   OH228210   3.160   5.803   6.254 -0.3274 -0.1046  0.5240
 2192TIP3    H128211   3.133   5.712   6.245 -1.0334  0.0091  1.3441
 2192TIP3    H228212   3.226   5.802   6.324 -1.0145  0.1240  1.1899
 2193TIP3   OH228213   5.718   3.997   6.808  0.0114 -0.4653  0.5529
 2193TIP3    H128214   5.729   3.966   6.898 -0.4379 -1.9140  0.1269
 2193TIP3    H228215   5.740   3.921   6.754 -3.8468 -0.9661 -0.4896
 2194TIP3   OH228216   5.613   4.805   8.249 -0.3119  0.4642 -0.4339
 2194TIP3    H128217   5.520   4.818   8.267 -0.2671 -0.5449  0.5903
 2194TIP3    H228218   5.621   4.816   8.154 -1.5721  0.0088 -0.6065
 2195TIP3   OH228219   0.713   3.876   6.953  0.4238  0.3323 -0.5926
 2195TIP3    H128220   0.669   3.791   6.954  3.0654 -1.0829  0.7190
 2195TIP3    H228221   0.700   3.909   6.864  0.2217 -1.8946 -1.4090
 2196TIP3   OH228222   4.457   4.979   6.134 -0.1226 -0.2256  0.0383
 2196TIP3    H128223   4.534   4.926   6.110  0.3266  0.0556  0.8183
 2196TIP3    H228224   4.494   5.062   6.166 -0.7379 -0.1700  0.6221
 2197TIP3   OH228225   5.417   5.165   7.494  0.2022 -0.0181 -0.4085
 2197TIP3    H128226   5.441   5.186   7.584  0.9166  2.2955 -1.0943
 2197TIP3    H228227   5.464   5.085   7.474 -1.0903 -1.3438  1.7311
 2198TIP3   OH228228   2.267   5.295   7.174  0.7011 -0.2676  0.0022
 2198TIP3    H128229   2.222   5.376   7.197 -0.4563 -0.6869 -0.7425
 2198TIP3    H228230   2.277   5.299   7.079  2.2842 -0.1667  0.1536
 2199TIP3   OH228231   5.098   4.276   6.711  0.0809  0.7826  0.1229
 2199TIP3    H128232   5.122   4.280   6.619 -0.1220  0.5632  0.0591
 2199TIP3    H228233   5.173   4.312   6.758  0.4105  0.3710 -0.0928
 2200TIP3   OH228234   2.709   4.491   1.047 -0.0784 -0.0776  0.7453
 2200TIP3    H128235   2.782   4.549   1.025  0.4460 -0.4738  1.4163
 2200TIP3    H228236   2.678   4.522   1.132  0.2760 -0.8339  1.1626
 2201TIP3   OH228237   4.411   5.473   6.227 -0.3459 -0.3553 -0.1305
 2201TIP3    H128238   4.344   5.436   6.283  0.1858 -0.6164  0.3406
 2201TIP3    H228239   4.432   5.558   6.266  0.8885 -1.0554  0.7897
 2202TIP3   OH228240   4.890   7.232   0.858 -0.1492  0.0336 -0.7184
 2202TIP3    H128241   4.907   7.156   0.802  0.5843  0.2974 -0.8651
 2202TIP3    H228242   4.805   7.214   0.897 -0.4467 -0.3949 -1.5317
 2203TIP3   OH228243   5.179   5.408   0.133  0.3154  0.0021  0.2794
 2203TIP3    H128244   5.261   5.382   0.092  0.8725  0.4914  1.0723
 2203TIP3    H228245   5.125   5.330   0.130  0.8213 -0.3357 -0.2092
 2204TIP3   OH228246   6.657   5.065   6.960  0.1100 -0.2585 -0.3860
 2204TIP3    H128247   6.691   5.151   6.936  1.2832 -0.4356  0.5393
 2204TIP3    H228248   6.642   5.021   6.877 -1.1515  1.0693 -0.8903
 2205TIP3   OH228249   5.458   4.362   6.089 -0.0024  0.6166 -0.0292
 2205TIP3    H128250   5.366   4.335   6.081  0.1664 -0.1130  0.4864
 2205TIP3    H228251   5.454   4.439   6.146 -0.3375  0.8366 -0.3478
 2206TIP3   OH228252   2.552   5.955   2.428 -0.2009  0.1991 -0.1246
 2206TIP3    H128253   2.524   5.864   2.418 -0.1961  0.1541  0.2757
 2206TIP3    H228254   2.477   6.006   2.396 -1.3304  0.1073  2.2716
 2207TIP3   OH228255   4.290   5.034   6.444  0.3699 -0.4150  0.0236
 2207TIP3    H128256   4.272   5.098   6.375 -0.0622  1.0899  1.5031
 2207TIP3    H228257   4.362   4.981   6.409  0.0232  0.1916 -1.6591
 2208TIP3   OH228258   4.281   6.310   7.510 -0.3727  0.2986 -0.6547
 2208TIP3    H128259   4.325   6.276   7.588  1.1909  0.3059 -1.4962
 2208TIP3    H228260   4.214   6.245   7.489  1.2854 -1.3120 -1.1150
 2209TIP3   OH228261   6.281   5.420   7.329  0.3877  0.2333  0.1181
 2209TIP3    H128262   6.241   5.431   7.243  1.3122 -0.1866 -0.3808
 2209TIP3    H228263   6.302   5.509   7.357 -0.8224  0.4446  0.3508
 2210TIP3   OH228264   3.524   5.584   7.044  0.6045 -0.3062  0.1995
 2210TIP3    H128265   3.563   5.517   6.987  1.3820  0.6828 -0.4409
 2210TIP3    H228266   3.448   5.541   7.083  0.5677 -1.2739 -0.9169
 2211TIP3   OH228267   4.878   4.926   6.683 -0.0977 -0.1878  0.6091
 2211TIP3    H128268   4.812   4.952   6.619  2.0929 -0.5087 -1.9090
 2211TIP3    H228269   4.856   4.974   6.762 -2.7296  0.4649 -0.4663
 2212TIP3   OH228270   6.204   6.740   7.437  0.2519 -0.0192 -0.5142
 2212TIP3    H128271   6.125   6.777   7.397  0.0268 -1.1396 -1.1363
 2212TIP3    H228272   6.172   6.666   7.490  0.8826 -0.5106 -0.8127
 2213TIP3   OH228273   5.472   4.284   8.489  0.4060 -0.2716  0.2135
 2213TIP3    H128274   5.533   4.358   8.496  0.2151  0.0783 -1.6095
 2213TIP3    H228275   5.421   4.302   8.410  0.1570 -2.2199 -0.0933
 2214TIP3   OH228276   4.900   2.315   7.469 -0.1610 -0.6758 -0.4474
 2214TIP3    H128277   4.909   2.410   7.480 -0.8927 -0.7058  0.4565
 2214TIP3    H228278   4.989   2.284   7.456  0.1553  0.0504 -0.0342
 2215TIP3   OH228279   5.734   4.636   7.664 -0.0189  0.4463  0.2269
 2215TIP3    H128280   5.703   4.673   7.582  1.6384 -1.1640 -1.1767
 2215TIP3    H228281   5.814   4.588   7.640  0.4625 -0.0905  2.7596
 2216TIP3   OH228282   4.805   5.654   0.167 -0.2646  0.1749  0.7720
 2216TIP3    H128283   4.881   5.711   0.183  1.0668 -1.1913 -0.5495
 2216TIP3    H228284   4.732   5.714   0.153  0.5947  1.5131  1.9843
 2217TIP3   OH228285   3.997   4.038   7.398  0.2790 -0.3515  0.8104
 2217TIP3    H128286   3.962   4.055   7.311 -1.7667  0.4336  1.7599
 2217TIP3    H228287   4.084   4.000   7.382  0.8462  1.8060 -1.5072
 2218TIP3   OH228288   6.424   4.525   6.518 -0.1185  0.4458  0.1317
 2218TIP3    H128289   6.513   4.561   6.519 -0.6173  1.6996  1.2690
 2218TIP3    H228290   6.400   4.524   6.426  0.2024  2.3453 -0.0111
 2219TIP3   OH228291   5.197   5.007   7.875 -1.0016  0.2548  0.2294
 2219TIP3    H128292   5.287   5.027   7.900 -0.4034 -2.4634  0.4958
 2219TIP3    H228293   5.186   5.048   7.789  0.0875  1.6050  0.7131
 2220TIP3   OH228294   3.432   5.836   8.131 -1.0865  0.2708 -0.3089
 2220TIP3    H128295   3.399   5.747   8.137  0.2187 -0.1746  0.3787
 2220TIP3    H228296   3.498   5.833   8.062 -0.4840  0.5219  0.2459
 2221TIP3   OH228297   4.984   4.477   1.789 -0.2168 -0.2561 -0.3018
 2221TIP3    H128298   5.043   4.507   1.858 -0.0009  0.8937 -0.9749
 2221TIP3    H228299   4.899   4.513   1.813  0.2537  1.8684 -1.6816
 2222TIP3   OH228300   6.042   4.697   6.175  0.1840 -0.6729  0.0243
 2222TIP3    H128301   6.009   4.665   6.092  0.0171  0.4437 -0.3434
 2222TIP3    H228302   6.026   4.792   6.173 -0.2856 -0.7033  1.5287
 2223TIP3   OH228303   4.547   5.823   6.099  0.3219 -0.6200  0.0031
 2223TIP3    H128304   4.596   5.853   6.022  0.9589 -1.2519  0.1613
 2223TIP3    H228305   4.515   5.903   6.139 -0.1584 -0.2939 -1.0216
 2224TIP3   OH228306   5.775   3.312   0.000  0.2639 -0.0236 -0.1955
 2224TIP3    H128307   5.788   3.296  -0.093  0.5795  0.6357 -0.2684
 2224TIP3    H228308   5.864   3.309   0.037  0.0890 -0.8101  0.1693
 2225TIP3   OH228309   4.557   3.890   8.280  0.2399  0.5191  0.9213
 2225TIP3    H128310   4.592   3.802   8.269  0.7555  0.7180  0.9920
 2225TIP3    H228311   4.633   3.945   8.298  0.3236  1.5657 -2.3146
 2226TIP3   OH228312   4.956   4.562   0.116 -0.0241  0.5025 -0.0175
 2226TIP3    H128313   4.999   4.492   0.165  0.2045  0.5086 -0.2106
 2226TIP3    H228314   5.007   4.641   0.135  0.1756  0.4675 -0.4175
 2227TIP3   OH228315   6.748   4.918   7.197 -0.1088  0.3066  0.4002
 2227TIP3    H128316   6.691   4.952   7.127  0.2779 -2.2641 -1.2374
 2227TIP3    H228317   6.695   4.922   7.276 -1.3135  1.2802 -0.4394
 2228TIP3   OH228318   4.557   4.324   0.765 -0.1642  0.1359 -0.1052
 2228TIP3    H128319   4.633   4.333   0.708  1.5503  1.0644  2.2732
 2228TIP3    H228320   4.496   4.391   0.734 -0.1683 -0.7878 -2.1896
 2229TIP3   OH228321   2.758   6.136   0.055 -0.1763  0.1619  0.0088
 2229TIP3    H128322   2.699   6.159   0.127 -0.7988  0.4484 -0.5923
 2229TIP3    H228323   2.841   6.115   0.098 -0.5341  0.3729  0.8089
 2230TIP3   OH228324   4.147   4.589   6.248  0.7331 -0.2397 -0.0308
 2230TIP3    H128325   4.117   4.517   6.193  0.5187 -1.2290  1.3612
 2230TIP3    H228326   4.202   4.642   6.191  0.2296 -1.0592 -1.2828
 2231TIP3   OH228327   3.398   0.072   7.760 -0.1993  0.3873  0.0460
 2231TIP3    H128328   3.458   0.006   7.795 -0.9353 -0.6882 -0.6910
 2231TIP3    H228329   3.368   0.036   7.677 -0.8615  1.5041 -0.2126
 2232TIP3   OH228330   6.187   0.306   6.465  0.3680 -0.3182 -0.4615
 2232TIP3    H128331   6.160   0.309   6.373 -0.9193  2.5235 -0.0620
 2232TIP3    H228332   6.135   0.235   6.503  0.3702 -1.0252 -1.7468
 2233TIP3   OH228333   4.668   4.779   1.098  0.4993 -0.2756 -0.3903
 2233TIP3    H128334   4.656   4.743   1.010  0.3395 -1.7657  0.2312
 2233TIP3    H228335   4.606   4.852   1.102 -1.1210 -1.5888 -0.7529
 2234TIP3   OH228336   4.332   2.871   0.333  0.4351  0.0067 -0.2020
 2234TIP3    H128337   4.373   2.856   0.418 -0.8676 -1.3314  0.2079
 2234TIP3    H228338   4.379   2.813   0.273  0.0788 -0.4855 -0.0080
 2235TIP3   OH228339   4.856   5.907   6.438  0.2007  0.3522 -0.4227
 2235TIP3    H128340   4.916   5.949   6.499 -1.1321 -0.2851  1.3801
 2235TIP3    H228341   4.793   5.862   6.494 -2.2601  1.4286 -2.2338
 2236TIP3   OH228342   3.752   5.705   6.937  0.5750  0.2942  0.0738
 2236TIP3    H128343   3.792   5.738   7.018  1.1203  0.1876 -0.1542
 2236TIP3    H228344   3.668   5.667   6.966  1.5927 -1.4174  0.8752
 2237TIP3   OH228345   5.884   5.736   8.325  0.4353  0.3524 -0.2077
 2237TIP3    H128346   5.889   5.647   8.360  0.9755  1.2665  2.1091
 2237TIP3    H228347   5.969   5.751   8.284  0.4322 -0.1046 -0.3839
 2238TIP3   OH228348   2.885   5.516   0.219  0.0779 -0.2285 -0.0579
 2238TIP3    H128349   2.935   5.492   0.141  0.3543 -0.2850  0.1387
 2238TIP3    H228350   2.875   5.611   0.213  1.4225 -0.0329  0.6312
 2239TIP3   OH228351   5.066   3.063   7.983 -0.2499  0.6355  0.3261
 2239TIP3    H128352   5.137   3.014   8.026 -1.7737 -1.5476  0.4485
 2239TIP3    H228353   5.034   3.122   8.051 -1.0649 -1.1029  1.5051
 2240TIP3   OH228354   4.113   4.168   6.968 -0.1000 -0.0172 -0.5583
 2240TIP3    H128355   4.057   4.227   6.919 -1.7803 -1.0783  0.0501
 2240TIP3    H228356   4.063   4.086   6.974  1.1002 -0.6744  0.8291
 2241TIP3   OH228357   3.204   6.650   7.700 -0.1790  0.1568  0.0178
 2241TIP3    H128358   3.255   6.572   7.720 -1.2124 -0.1037  1.6867
 2241TIP3    H228359   3.118   6.617   7.675 -0.7313  0.7682  1.0764
 2242TIP3   OH228360   4.289   4.581   0.070  0.2832 -0.0512  0.4119
 2242TIP3    H128361   4.381   4.591   0.046 -0.2135 -2.1811 -2.6808
 2242TIP3    H228362   4.242   4.639   0.010 -0.4843  0.3989  1.4235
 2243TIP3   OH228363   3.937   5.179   7.678 -0.2842 -0.1085 -0.5407
 2243TIP3    H128364   3.868   5.147   7.620 -1.4185 -0.3011  0.8990
 2243TIP3    H228365   4.011   5.196   7.620 -1.3184 -0.5476 -2.0060
 2244TIP3   OH228366   3.780   3.920   8.377  0.1354 -0.2461 -0.4650
 2244TIP3    H128367   3.810   3.831   8.359  0.2756 -0.6665  1.7123
 2244TIP3    H228368   3.698   3.929   8.328  0.4784 -1.3250 -1.2447
 2245TIP3   OH228369   5.024   2.408   0.484  0.3220 -0.2445  0.2423
 2245TIP3    H128370   5.029   2.414   0.580 -0.1793 -0.1582  0.2656
 2245TIP3    H228371   4.934   2.381   0.467  0.0299  1.0206 -0.2588
 2246TIP3   OH228372   5.396   5.810   0.264  0.3551 -0.2691 -0.5550
 2246TIP3    H128373   5.310   5.823   0.225  0.3411 -0.4393 -0.5822
 2246TIP3    H228374   5.404   5.715   0.275  0.6893 -0.2835 -0.9022
 2247TIP3   OH228375   7.215   6.434   1.571  0.0387  0.4000 -0.6025
 2247TIP3    H128376   7.228   6.363   1.508  0.7045 -0.5307  0.5733
 2247TIP3    H228377   7.129   6.415   1.610 -0.3667  0.9685 -1.2063
 2248TIP3   OH228378   6.828   5.627   1.408  0.4424  0.2765  0.5882
 2248TIP3    H128379   6.910   5.579   1.402  0.6851  0.8369 -0.9572
 2248TIP3    H228380   6.789   5.617   1.321 -0.3878  1.3125  0.8377
 2249TIP3   OH228381   4.211   4.891   0.238 -0.3682 -0.1280 -0.2680
 2249TIP3    H128382   4.257   4.961   0.191  2.6395 -1.2913  0.8181
 2249TIP3    H228383   4.217   4.815   0.180 -1.0927 -0.2544 -0.1836
 2250TIP3   OH228384   5.381   3.791   7.738  0.0898 -0.9444 -0.0745
 2250TIP3    H128385   5.308   3.849   7.717 -0.3013 -1.3924  0.0718
 2250TIP3    H228386   5.458   3.839   7.707 -0.3684 -1.0470 -1.4127
 2251TIP3   OH228387   4.633   3.794   6.033 -0.5415 -0.0486  0.5487
 2251TIP3    H128388   4.686   3.718   6.010 -1.1973 -0.0182 -1.0902
 2251TIP3    H228389   4.679   3.868   5.994 -0.9116  0.1785  0.5379
 2252TIP3   OH228390   4.123   6.393   6.470 -0.1452 -0.5130  0.3108
 2252TIP3    H128391   4.119   6.298   6.459 -0.5850 -0.4951  0.2914
 2252TIP3    H228392   4.101   6.428   6.384 -1.0495 -0.3866  0.5895
 2253TIP3   OH228393   4.705   4.430   7.850  0.2397 -0.4781 -0.1733
 2253TIP3    H128394   4.675   4.390   7.768 -0.0980  0.9692 -0.7620
 2253TIP3    H228395   4.651   4.389   7.917 -1.2415  0.1590 -0.9463
 2254TIP3   OH228396   4.552   7.014   7.223 -0.0961  0.0451 -0.3945
 2254TIP3    H128397   4.604   7.001   7.144 -0.7912  0.5126 -0.9382
 2254TIP3    H228398   4.498   7.091   7.204  0.9462  1.2087  1.1836
 2255TIP3   OH228399   7.222   6.939   7.453  0.3067  0.3668 -0.1589
 2255TIP3    H128400   7.222   6.984   7.538  1.4110  0.7673 -0.3650
 2255TIP3    H228401   7.133   6.950   7.420 -0.8128 -1.7556  1.9768
 2256TIP3   OH228402   2.694   6.386   7.681  0.2009  0.2801 -0.2122
 2256TIP3    H128403   2.690   6.408   7.587 -0.6093 -0.4706 -0.3576
 2256TIP3    H228404   2.701   6.291   7.683 -0.8493  0.2129  0.5080
 2257TIP3   OH228405   5.107   4.834   6.911  0.1914 -0.2227  0.5020
 2257TIP3    H128406   5.105   4.743   6.880  0.8765 -0.9454  2.4852
 2257TIP3    H228407   5.196   4.846   6.943 -0.1563  0.8810  1.0633
 2258TIP3   OH228408   6.208   5.189   5.941  0.3908 -0.3958  0.3467
 2258TIP3    H128409   6.263   5.262   5.911 -0.3512 -0.1987 -0.5665
 2258TIP3    H228410   6.252   5.156   6.020  0.2126  1.6522  1.3216
 2259TIP3   OH228411   6.360   4.415   1.086  0.0953 -0.2800  0.1866
 2259TIP3    H128412   6.284   4.376   1.043 -0.0438 -0.5922  0.7100
 2259TIP3    H228413   6.373   4.361   1.164 -0.7533  1.3884  1.5102
 2260TIP3   OH228414   6.396   6.050   7.509 -0.0586  0.2069 -0.1969
 2260TIP3    H128415   6.384   6.031   7.416  0.2703  0.1548 -0.2282
 2260TIP3    H228416   6.450   6.129   7.510  1.4939 -0.8560 -0.0249
 2261TIP3   OH228417   5.207   5.223   0.482 -0.0403  0.6794  0.2673
 2261TIP3    H128418   5.217   5.261   0.570 -1.0223  0.9223  0.2841
 2261TIP3    H228419   5.135   5.273   0.443 -1.4640 -1.2749  0.3437
 2262TIP3   OH228420   4.845   4.262   6.437 -0.6154  0.1101  0.9384
 2262TIP3    H128421   4.932   4.222   6.430 -0.6858  0.3166 -1.6247
 2262TIP3    H228422   4.785   4.191   6.414 -0.8396  1.0886 -1.7323
 2263TIP3   OH228423   5.202   4.294   5.992  0.6646  0.3232 -0.3852
 2263TIP3    H128424   5.138   4.318   6.059  0.3036 -1.6246 -0.0111
 2263TIP3    H228425   5.150   4.271   5.915  0.9119 -0.8048 -0.2293
 2264TIP3   OH228426   6.019   4.960   6.175  0.3936  0.1820 -0.0840
 2264TIP3    H128427   6.092   5.017   6.198 -1.5174  2.8701 -0.4897
 2264TIP3    H228428   5.948   4.986   6.233 -0.6095 -1.6638 -0.4274
 2265TIP3   OH228429   5.650   4.800   7.985 -0.2547 -0.7086  0.5968
 2265TIP3    H128430   5.597   4.725   7.959 -0.0626  0.1158 -2.4574
 2265TIP3    H228431   5.596   4.876   7.961  1.4330  0.1192 -0.7445
 2266TIP3   OH228432   0.032   3.928   6.801 -0.5814 -0.4119  0.1117
 2266TIP3    H128433  -0.025   3.925   6.877 -0.1678  3.3484  0.6522
 2266TIP3    H228434  -0.024   3.955   6.729 -0.3752 -1.0457 -0.2884
 2267TIP3   OH228435   6.182   5.201   7.483  0.1312  0.2489  0.7666
 2267TIP3    H128436   6.193   5.285   7.438 -1.2559  0.4463  0.7701
 2267TIP3    H228437   6.222   5.138   7.424 -0.2565  0.7123 -0.0099
 2268TIP3   OH228438   5.248   4.025   7.078  0.8447  0.2744  0.1042
 2268TIP3    H128439   5.340   3.999   7.079  0.6611 -0.4182 -0.3804
 2268TIP3    H228440   5.200   3.947   7.105  0.4279  0.7982  0.9300
 2269TIP3   OH228441   5.190   4.999   8.346  0.0690  0.2337  0.3920
 2269TIP3    H128442   5.158   4.919   8.388  0.7355 -2.1744 -3.3714
 2269TIP3    H228443   5.113   5.055   8.340 -0.5375 -0.3020  2.6045
 2270TIP3   OH228444   2.732   4.556   8.335  0.4295 -0.1204 -0.1656
 2270TIP3    H128445   2.737   4.521   8.246 -2.0096  1.7442 -1.0966
 2270TIP3    H228446   2.668   4.626   8.330  0.8250  0.5593  2.9239
 2271TIP3   OH228447   4.350   4.287   6.894 -0.2778 -0.0955 -0.5061
 2271TIP3    H128448   4.260   4.254   6.889 -0.2523 -0.1923 -0.3385
 2271TIP3    H228449   4.405   4.209   6.895 -0.2551 -0.0760  0.5894
 2272TIP3   OH228450   3.963   3.136   6.796  0.1203 -0.4967 -0.5601
 2272TIP3    H128451   3.977   3.060   6.740 -2.1070 -1.8060  0.6269
 2272TIP3    H228452   3.899   3.189   6.748  0.0591 -0.4037 -0.3741
 2273TIP3   OH228453   4.104   2.461   6.770 -0.5620  0.0109  0.1043
 2273TIP3    H128454   4.167   2.392   6.791  1.8123  2.1246  0.1225
 2273TIP3    H228455   4.045   2.463   6.845  0.2544 -0.9788  0.8001
 2274TIP3   OH228456   2.033   3.152   6.638  1.0655 -0.4870 -0.3108
 2274TIP3    H128457   2.006   3.066   6.606 -1.9007  0.8088 -1.4641
 2274TIP3    H228458   2.002   3.155   6.728  2.7635 -1.2615  0.3293
 2275TIP3   OH228459   5.152   2.752   6.222  0.0548  0.3744  0.2016
 2275TIP3    H128460   5.157   2.692   6.147  2.6053 -0.0205  0.6543
 2275TIP3    H228461   5.132   2.695   6.297 -2.6160  0.7831 -0.1390
 2276TIP3   OH228462   6.470   4.527   7.902 -0.3928 -0.4421  0.6705
 2276TIP3    H128463   6.538   4.479   7.855 -0.9004 -0.3065 -0.2217
 2276TIP3    H228464   6.513   4.608   7.931  0.0364 -0.7204  0.8098
 2277TIP3   OH228465   4.400   3.831   5.914 -0.0449 -0.3304 -0.6859
 2277TIP3    H128466   4.481   3.794   5.951 -0.4051 -0.8646 -0.4263
 2277TIP3    H228467   4.430   3.902   5.857  0.5277  0.7030  0.8409
 2278TIP3   OH228468   4.462   5.702   6.346  0.0965  0.5423 -0.6516
 2278TIP3    H128469   4.512   5.756   6.284  1.1835  0.9942  0.6038
 2278TIP3    H228470   4.428   5.764   6.410 -0.8876  0.0540 -0.6936
 2279TIP3   OH228471   4.019   3.544   6.632  0.0735 -0.5053 -0.6245
 2279TIP3    H128472   3.947   3.483   6.618 -1.6099  1.2853  0.0547
 2279TIP3    H228473   4.025   3.594   6.551  0.9054 -0.9864 -0.8704
 2280TIP3   OH228474   3.470   5.314   6.906 -0.2962 -0.5344  0.0310
 2280TIP3    H128475   3.474   5.350   6.818 -0.0247 -1.0385 -0.1689
 2280TIP3    H228476   3.383   5.275   6.913  0.0793 -1.4748 -0.4132
 2281TIP3   OH228477   2.416   7.339   7.627  0.2307  0.1020  0.2526
 2281TIP3    H128478   2.386   7.417   7.581  0.2045 -0.1104 -0.0947
 2281TIP3    H228479   2.346   7.320   7.691  0.0362  0.1144  0.0439
 2282TIP3   OH228480   4.107   5.899   0.053 -0.2374 -0.1899  0.0832
 2282TIP3    H128481   4.142   5.987   0.037  0.0648 -0.7310 -2.4438
 2282TIP3    H228482   4.168   5.841   0.008 -1.9391 -1.4905 -0.5756
 2283TIP3   OH228483   3.027   5.119   7.983 -0.5350  1.0237 -0.3745
 2283TIP3    H128484   3.022   5.085   7.893 -0.4799  0.2864 -0.0971
 2283TIP3    H228485   2.988   5.206   7.977 -0.2967  1.0825 -1.1699
 2284TIP3   OH228486   6.028   5.501   6.488  0.6257  0.5985  0.2407
 2284TIP3    H128487   6.063   5.509   6.400  1.1861 -1.1415  0.2894
 2284TIP3    H228488   6.032   5.408   6.507  1.5892  1.0634  2.5384
 2285TIP3   OH228489   3.508   3.841   6.751  0.1326  0.3469 -0.3922
 2285TIP3    H128490   3.430   3.786   6.737  0.5474 -0.7304  1.3231
 2285TIP3    H228491   3.476   3.930   6.742 -1.7440 -0.0008  2.0389
 2286TIP3   OH228492   5.783   5.313   7.505 -0.3923  0.1993 -0.6131
 2286TIP3    H128493   5.875   5.335   7.516 -0.7304  1.4584 -0.1953
 2286TIP3    H228494   5.783   5.222   7.478  1.0177  0.4634 -1.5469
 2287TIP3   OH228495   2.839   4.363   7.544 -0.6269 -0.0053  0.4284
 2287TIP3    H128496   2.904   4.400   7.604  0.4156 -1.4555  0.2244
 2287TIP3    H228497   2.879   4.371   7.457 -0.8341 -0.6414  0.2695
 2288TIP3   OH228498   5.004   6.023   7.430  0.2337 -0.1619 -0.1930
 2288TIP3    H128499   5.026   6.109   7.465 -0.8835  0.4555 -0.9774
 2288TIP3    H228500   4.909   6.022   7.426  0.2660 -1.1384 -0.9281
 2289TIP3   OH228501   6.696   4.617   6.482 -0.5548  0.0288 -0.6649
 2289TIP3    H128502   6.742   4.621   6.398 -0.8072  2.9196 -0.7094
 2289TIP3    H228503   6.764   4.625   6.548 -0.8152  3.1803 -0.7151
 2290TIP3   OH228504   4.231   2.876   7.130  0.2108  0.2475 -0.3363
 2290TIP3    H128505   4.221   2.790   7.089 -0.4074 -0.2757  0.8855
 2290TIP3    H228506   4.170   2.875   7.204  2.1639  0.7118  1.3258
 2291TIP3   OH228507   4.354   4.100   1.054  0.2940  0.3349 -0.3658
 2291TIP3    H128508   4.417   4.034   1.082  0.9817  0.4991 -1.4895
 2291TIP3    H228509   4.358   4.098   0.959 -0.9927  0.7486 -0.4398
 2292TIP3   OH228510   5.106   5.229   6.368  0.2197 -0.2521  0.1288
 2292TIP3    H128511   5.077   5.145   6.332 -0.6595  0.0799  0.0449
 2292TIP3    H228512   5.169   5.262   6.303  0.3865 -0.7285  0.0444
 2293TIP3   OH228513   4.454   4.195   6.626 -0.6530  0.4352  0.3159
 2293TIP3    H128514   4.506   4.275   6.622 -0.0029 -0.0650 -1.5527
 2293TIP3    H228515   4.465   4.164   6.716  0.5460  1.4798  0.5460
 2294TIP3   OH228516   4.723   4.950   6.463  0.0754  0.2544 -0.6998
 2294TIP3    H128517   4.644   4.901   6.439 -0.1792  1.2333 -1.9155
 2294TIP3    H228518   4.794   4.906   6.417  0.1037 -0.0142 -0.4063
 2295TIP3   OH228519   4.770   3.719   7.266 -0.4522 -0.3636 -0.4536
 2295TIP3    H128520   4.819   3.768   7.333 -1.1211 -0.2079 -0.0703
 2295TIP3    H228521   4.702   3.780   7.237  0.6219  0.0288 -2.2147
 2296TIP3   OH228522   4.275   3.878   6.151 -0.6073  0.4586  0.5166
 2296TIP3    H128523   4.286   3.841   6.063 -0.1204  0.0329  0.7531
 2296TIP3    H228524   4.344   3.943   6.159 -1.9931  2.0561 -0.2168
 2297TIP3   OH228525   5.323   4.825   8.193  0.2325 -0.2019 -0.3463
 2297TIP3    H128526   5.292   4.903   8.241  0.1062  0.3636 -1.3375
 2297TIP3    H228527   5.262   4.756   8.218 -0.3479  0.2997 -0.3573
 2298TIP3   OH228528   5.819   4.075   7.207  0.1611 -0.2851 -0.6627
 2298TIP3    H128529   5.742   4.128   7.186  0.2815 -0.0589 -0.5344
 2298TIP3    H228530   5.893   4.134   7.191  0.2864 -0.3568 -0.3383
 2299TIP3   OH228531   5.659   3.507   7.026 -0.8792  0.3229 -0.4450
 2299TIP3    H128532   5.735   3.515   7.083 -0.1215  0.3555 -1.4448
 2299TIP3    H228533   5.656   3.589   6.978 -1.1756  0.0685 -0.8643
 2300TIP3   OH228534   4.170   3.216   7.142 -0.4233 -0.0352  0.1929
 2300TIP3    H128535   4.208   3.130   7.126 -0.1769  0.0373  0.3975
 2300TIP3    H228536   4.103   3.225   7.074 -1.5009 -1.0286  1.1080
 2301TIP3   OH228537   6.238   6.419   7.296 -0.0055 -0.2007  0.2550
 2301TIP3    H128538   6.242   6.470   7.215  3.5708 -1.7750 -0.6451
 2301TIP3    H228539   6.260   6.330   7.270  0.2087 -0.9356  2.8019
 2302TIP3   OH228540   4.465   4.059   0.801  0.1027  0.1372  0.5655
 2302TIP3    H128541   4.478   4.154   0.806 -0.9107  0.3868 -1.4131
 2302TIP3    H228542   4.519   4.031   0.727 -1.0626 -0.5511 -0.0329
 2303TIP3   OH228543   5.379   4.276   0.571 -0.2535  0.4488 -0.5896
 2303TIP3    H128544   5.319   4.203   0.585  1.0076 -0.1733  1.8460
 2303TIP3    H228545   5.327   4.354   0.592 -0.9571  0.1073 -1.0318
 2304TIP3   OH228546   5.747   4.759   6.774 -0.3071 -0.0998 -0.1232
 2304TIP3    H128547   5.837   4.788   6.784 -0.2802  0.6644 -2.2907
 2304TIP3    H228548   5.740   4.681   6.828  1.1518  0.8332  1.4564
 2305TIP3   OH228549   6.180   5.604   6.869  0.2141 -0.2148  0.5974
 2305TIP3    H128550   6.265   5.586   6.829 -0.7359 -0.9292 -1.1732
 2305TIP3    H228551   6.131   5.649   6.800 -1.0664 -0.4247  1.3651
 2306TIP3   OH228552   6.245   6.399   8.295  0.8889 -0.2458  0.2264
 2306TIP3    H128553   6.280   6.310   8.290  3.6792  0.8306 -0.3113
 2306TIP3    H228554   6.277   6.433   8.378 -1.8193 -0.3766  1.3583
 2307TIP3   OH228555   5.348   4.900   7.428 -0.8384  0.2650 -0.1129
 2307TIP3    H128556   5.271   4.952   7.454 -0.5185  1.4069 -1.4054
 2307TIP3    H228557   5.314   4.834   7.369 -1.1062 -0.4397  0.8146
 2308TIP3   OH228558   4.642   4.948   0.175  0.4094 -0.0689 -0.0981
 2308TIP3    H128559   4.607   4.988   0.254  0.4663 -1.9020  0.8771
 2308TIP3    H228560   4.736   4.940   0.191  0.8463  2.0194 -1.4602
 2309TIP3   OH228561   4.790   4.693   8.416 -0.1407 -0.4040 -0.3877
 2309TIP3    H128562   4.840   4.774   8.421 -1.4333  0.4829 -1.6598
 2309TIP3    H228563   4.840   4.631   8.470  2.6275  0.2642 -2.0682
 2310TIP3   OH228564   6.813   6.131   6.380 -0.3500  0.2415 -0.7668
 2310TIP3    H128565   6.721   6.134   6.407 -0.4401 -0.4318 -1.0052
 2310TIP3    H228566   6.822   6.049   6.333 -0.0012  1.0583 -2.1465
 2311TIP3   OH228567   4.691   2.773   8.059  0.5260 -0.5187 -0.1384
 2311TIP3    H128568   4.595   2.765   8.058  0.5116 -0.6135  0.9625
 2311TIP3    H228569   4.721   2.708   7.995 -0.1420 -0.5279 -0.4470
 2312TIP3   OH228570   5.061   6.007   6.597  0.1021  0.3149  0.3375
 2312TIP3    H128571   5.136   5.961   6.634  1.3282  0.7995 -1.4720
 2312TIP3    H228572   5.076   6.099   6.621  1.2616  0.7384 -1.8192
 2313TIP3   OH228573   0.264   6.403   6.080  0.2136  0.6654 -0.4836
 2313TIP3    H128574   0.312   6.367   6.156  2.8963  0.1450 -2.3380
 2313TIP3    H228575   0.271   6.498   6.091 -1.4080  0.6336  1.0960
 2314TIP3   OH228576   0.893   6.139   8.383 -0.3883  0.0935  0.5749
 2314TIP3    H128577   0.980   6.110   8.411 -0.4060 -0.6370 -0.0963
 2314TIP3    H228578   0.863   6.069   8.325 -0.9191  0.9297 -0.1613
 2315TIP3   OH228579   0.719   4.772   7.570 -0.2167 -0.4698  0.5693
 2315TIP3    H128580   0.735   4.705   7.504  0.2934  0.3017 -0.1047
 2315TIP3    H228581   0.691   4.849   7.520 -1.3062 -0.3282  1.3663
 2316TIP3   OH228582   4.202   4.160   7.222  0.4251  0.4615  0.1328
 2316TIP3    H128583   4.181   4.187   7.132 -0.6603 -0.2551  0.1640
 2316TIP3    H228584   4.265   4.089   7.211  0.3099  0.3885 -0.0700
 2317TIP3   OH228585   6.801   4.285   6.774  0.2966 -0.2935 -0.1721
 2317TIP3    H128586   6.829   4.194   6.785 -0.6455 -0.7808 -1.7221
 2317TIP3    H228587   6.810   4.302   6.680  1.2314  1.4685  0.2215
 2318TIP3   OH228588   5.469   3.551   6.395 -0.3812 -0.0302 -0.5562
 2318TIP3    H128589   5.498   3.467   6.359 -0.5169 -0.4178  0.2314
 2318TIP3    H228590   5.374   3.552   6.379 -0.2780  0.2663 -1.1568
 2319TIP3   OH228591   3.928   4.846   0.228 -0.0194  0.0178 -0.0291
 2319TIP3    H128592   4.020   4.834   0.203 -0.0032 -0.6658  0.3459
 2319TIP3    H228593   3.888   4.760   0.213 -0.4329  0.1130  0.5206
 2320TIP3   OH228594   6.014   4.845   7.521 -0.2722  0.2935 -0.8307
 2320TIP3    H128595   5.978   4.912   7.462 -0.3875  1.4779  0.5459
 2320TIP3    H228596   6.052   4.895   7.593 -2.0352 -1.1870  1.1677
 2321TIP3   OH228597   6.665   3.712   6.692  0.6677 -0.7469 -0.3966
 2321TIP3    H128598   6.584   3.679   6.652  0.8944 -1.5764 -0.1841
 2321TIP3    H228599   6.735   3.666   6.646  0.9644 -1.0219  0.3273
 2322TIP3   OH228600   6.056   5.175   0.125 -0.1833  0.0689  0.3840
 2322TIP3    H128601   6.150   5.158   0.133  0.3122  3.4610  2.7036
 2322TIP3    H228602   6.038   5.163   0.032  2.5979 -0.4398 -0.1410
 2323TIP3   OH228603   5.842   1.880   7.151  0.1305 -0.3414 -0.1871
 2323TIP3    H128604   5.777   1.936   7.109  0.0024 -1.1132 -1.0283
 2323TIP3    H228605   5.912   1.871   7.086 -0.1781 -1.7337 -0.3411
 2324TIP3   OH228606   5.568   4.281   6.433 -0.2337  0.3500  0.1210
 2324TIP3    H128607   5.504   4.352   6.447 -0.3070  0.0364  1.4979
 2324TIP3    H228608   5.606   4.267   6.520 -1.1031 -2.1297  0.1331
 2325TIP3   OH228609   0.122   5.648   6.961  0.1712  0.2428  0.0889
 2325TIP3    H128610   0.096   5.699   6.884  0.8251 -1.1595 -1.0901
 2325TIP3    H228611   0.045   5.596   6.982 -0.0875  0.8076  0.5204
 2326TIP3   OH228612   7.323   4.431   7.055 -0.0607 -0.1951  0.2189
 2326TIP3    H128613   7.330   4.503   7.118  1.9107 -0.4935  0.3662
 2326TIP3    H228614   7.385   4.453   6.986 -0.2215 -1.2248 -0.2591
 2327TIP3   OH228615   1.228   5.852   1.478  0.4319 -0.0863  0.3456
 2327TIP3    H128616   1.209   5.913   1.549 -1.7180  0.5041 -0.7007
 2327TIP3    H228617   1.142   5.827   1.445  1.4179  0.0797 -2.4364
 2328TIP3   OH228618   5.067   4.178   1.315  0.0501  0.1246  0.5250
 2328TIP3    H128619   5.023   4.177   1.230  1.5896 -0.3057 -0.2845
 2328TIP3    H228620   5.111   4.093   1.320 -0.6221 -0.1518  2.0828
 2329TIP3   OH228621   3.669   3.832   7.411  0.0755 -0.1576  0.8479
 2329TIP3    H128622   3.699   3.749   7.375  0.6979 -0.0706  1.1547
 2329TIP3    H228623   3.590   3.811   7.460 -0.6487 -0.3187 -0.3700
 2330TIP3   OH228624   0.888   3.926   7.153  0.0771 -0.1460 -0.4153
 2330TIP3    H128625   0.821   3.919   7.085 -0.0250  2.3921 -0.6267
 2330TIP3    H228626   0.841   3.959   7.230  0.5300 -1.2924  0.3686
 2331TIP3   OH228627   5.627   4.988   7.668  0.1110 -0.3429  0.6467
 2331TIP3    H128628   5.657   4.947   7.586  0.5971 -0.4229  0.8658
 2331TIP3    H228629   5.705   5.028   7.705 -0.6566  2.2174 -0.3849
 2332TIP3   OH228630   5.373   5.543   6.518 -0.5783 -0.3719 -0.7150
 2332TIP3    H128631   5.460   5.549   6.478 -1.3184  0.5556 -2.2390
 2332TIP3    H228632   5.313   5.574   6.450 -2.0679 -0.5825  0.4688
 2333TIP3   OH228633   6.383   5.129   6.656 -0.3672 -0.1586  0.0337
 2333TIP3    H128634   6.379   5.049   6.709 -0.3744  0.3090  0.7477
 2333TIP3    H228635   6.344   5.104   6.572 -0.7614 -0.7911  0.4005
 2334TIP3   OH228636   6.245   3.250   6.942  0.0868 -0.1810  0.5695
 2334TIP3    H128637   6.246   3.339   6.908  0.8614 -0.1444  0.6776
 2334TIP3    H228638   6.262   3.195   6.866 -0.2096 -0.2258  0.5349
 2335TIP3   OH228639   6.026   3.744   7.640 -0.0527  0.9514 -0.1384
 2335TIP3    H128640   6.027   3.757   7.545 -0.1732 -0.9756 -0.4081
 2335TIP3    H228641   5.933   3.744   7.664 -0.0645  0.1619 -0.1936
 2336TIP3   OH228642   5.771   5.149   0.149  0.1958 -0.2798  0.1685
 2336TIP3    H128643   5.780   5.072   0.092 -0.1906 -0.7398  0.7286
 2336TIP3    H228644   5.848   5.203   0.129  0.1552 -0.5188 -0.6660
 2337TIP3   OH228645   5.991   6.749   6.734 -0.0115  0.0485  0.5300
 2337TIP3    H128646   6.084   6.730   6.723 -0.3028 -1.3894  0.4532
 2337TIP3    H228647   5.986   6.796   6.817  0.9294  1.3557 -0.1344
 2338TIP3   OH228648   5.701   4.944   6.571  0.2441 -0.1014 -0.2576
 2338TIP3    H128649   5.609   4.951   6.596 -0.1084 -0.4198 -1.4291
 2338TIP3    H228650   5.734   4.871   6.624 -0.3492 -0.4001 -0.2847
 2339TIP3   OH228651   7.092   6.199   0.438 -0.2136  0.5276 -0.1391
 2339TIP3    H128652   7.164   6.259   0.458  2.0498 -1.6405 -1.5823
 2339TIP3    H228653   7.115   6.117   0.482 -0.2013 -1.1446 -3.1428
 2340TIP3   OH228654   7.020   5.847   7.512  0.5089 -0.2997 -0.1694
 2340TIP3    H128655   7.061   5.761   7.521 -0.9581 -0.8325  1.7079
 2340TIP3    H228656   7.051   5.897   7.587 -0.8627 -0.1442  0.3164
 2341TIP3   OH228657   5.873   0.247   0.521 -1.0283 -0.0153 -0.1189
 2341TIP3    H128658   5.842   0.306   0.591 -0.8141 -0.4148  0.3091
 2341TIP3    H228659   5.968   0.250   0.527 -0.9648 -4.3281  3.2285
 2342TIP3   OH228660   7.242   3.938   7.025  0.4477 -0.3628  0.6409
 2342TIP3    H128661   7.183   4.013   7.033 -0.3591 -0.9298  0.1087
 2342TIP3    H228662   7.263   3.914   7.116  0.1596  0.0738  0.8241
 2343TIP3   OH228663   6.894   4.560   6.311 -0.1479  0.1911  0.5978
 2343TIP3    H128664   6.970   4.618   6.305  0.2128 -0.4349 -1.1244
 2343TIP3    H228665   6.889   4.518   6.225 -0.7402 -1.9151  1.6290
 2344TIP3   OH228666   0.161   3.851   5.961  0.6261 -0.0791  0.0270
 2344TIP3    H128667   0.124   3.940   5.964  1.3463  0.2076  0.6316
 2344TIP3    H228668   0.091   3.797   5.924 -0.1749  0.5612  0.5895
 2345TIP3   OH228669   6.715   4.703   6.876  0.2170 -0.5062 -0.5632
 2345TIP3    H128670   6.649   4.740   6.935  0.6165 -1.1184  0.2786
 2345TIP3    H228671   6.736   4.618   6.914  1.0413 -0.5749 -1.1655
 2346TIP3   OH228672   5.452   5.196   7.767 -0.0789  0.3993 -0.0283
 2346TIP3    H128673   5.398   5.210   7.844 -0.4925 -1.9291  0.1430
 2346TIP3    H228674   5.503   5.118   7.787  1.7924  1.3231 -1.0459
 2347TIP3   OH228675   6.741   5.317   6.896  0.0480 -0.2188 -0.0878
 2347TIP3    H128676   6.676   5.377   6.932  1.2385  0.6266  0.6891
 2347TIP3    H228677   6.703   5.288   6.812 -1.4947 -0.0705  0.5414
 2348TIP3   OH228678   1.088   5.798   6.316  0.0757  0.1400 -0.4336
 2348TIP3    H128679   1.014   5.738   6.324  0.1958 -0.0545 -0.8313
 2348TIP3    H228680   1.055   5.881   6.351 -0.9705  0.6042 -2.4539
 2349TIP3   OH228681   6.076   5.910   6.399 -0.3259 -0.3571  0.6026
 2349TIP3    H128682   5.982   5.893   6.405 -0.3106 -0.3114  0.9906
 2349TIP3    H228683   6.100   5.880   6.312 -1.1307  1.6584 -0.3644
 2350TIP3   OH228684   7.340   6.986   6.914 -0.6441  0.1353 -0.1656
 2350TIP3    H128685   7.429   6.966   6.884 -0.9857 -0.7856 -0.5911
 2350TIP3    H228686   7.293   7.013   6.835 -1.2152 -1.1100 -0.2614
 2351TIP3   OH228687   5.771   4.252   6.980  0.0793  0.0759  0.2833
 2351TIP3    H128688   5.863   4.260   7.001  0.5708 -1.1247 -1.2821
 2351TIP3    H228689   5.764   4.168   6.933 -1.4807  0.9824 -1.1834
 2352TIP3   OH228690   7.148   4.789   6.308 -0.0263 -0.4747 -0.1068
 2352TIP3    H128691   7.198   4.745   6.377  1.4639  0.6057 -0.4662
 2352TIP3    H228692   7.207   4.858   6.276 -1.6260  0.6276 -0.7698
 2353TIP3   OH228693   3.707   4.933   7.303 -0.4288  0.9337 -0.6482
 2353TIP3    H128694   3.648   4.928   7.228 -0.5925  0.4585 -0.4917
 2353TIP3    H228695   3.775   4.993   7.276 -0.0260  0.1020 -1.5056
 2354TIP3   OH228696   6.432   5.771   6.508  0.2574  0.6519 -0.7692
 2354TIP3    H128697   6.403   5.723   6.431  1.0311  1.0449 -1.3175
 2354TIP3    H228698   6.468   5.853   6.473 -1.5364  1.8854  0.1786
 2355TIP3   OH228699   6.054   5.605   7.941 -0.5524  0.1525 -0.3208
 2355TIP3    H128700   6.145   5.625   7.964 -0.5910 -0.9871  0.8288
 2355TIP3    H228701   6.006   5.611   8.023 -0.9732 -2.2888 -0.3495
 2356TIP3   OH228702   1.713   4.877   0.144  0.5335 -0.4557  0.0261
 2356TIP3    H128703   1.744   4.877   0.235 -2.6532  1.8698  1.2237
 2356TIP3    H228704   1.674   4.790   0.132 -0.3717 -0.2506  1.3945
 2357TIP3   OH228705   6.734   4.569   0.716  0.9443 -0.8850 -0.1819
 2357TIP3    H128706   6.698   4.554   0.803  1.3951  0.4819  0.2485
 2357TIP3    H228707   6.661   4.602   0.664  0.6993 -1.6060 -0.2995
 2358TIP3   OH228708   5.764   5.340   7.067  0.6638 -0.1189  0.3655
 2358TIP3    H128709   5.812   5.412   7.026  0.9770  0.5195  1.8080
 2358TIP3    H228710   5.683   5.333   7.017  1.2692  0.2660 -0.7011
 2359TIP3   OH228711   5.302   4.237   6.328  0.0331  0.2879 -0.4169
 2359TIP3    H128712   5.303   4.332   6.329  1.3838  0.2816 -0.0601
 2359TIP3    H228713   5.385   4.211   6.368 -0.9275 -1.0585  0.7737
 2360TIP3   OH228714   6.512   5.934   8.297  0.4992  0.1537 -0.1606
 2360TIP3    H128715   6.524   5.914   8.204 -1.0160  0.0387 -0.3420
 2360TIP3    H228716   6.469   5.856   8.333  1.0052  0.2329  0.6246
 2361TIP3   OH228717   5.946   2.356   0.028  0.0657  0.2049 -0.3956
 2361TIP3    H128718   6.030   2.393   0.055 -0.4897  0.1969  1.4169
 2361TIP3    H228719   5.894   2.353   0.109 -1.0660 -1.4083 -1.1503
 2362TIP3   OH228720   5.941   4.211   0.277  0.2288  0.4259 -0.7260
 2362TIP3    H128721   5.922   4.160   0.199 -0.8252 -0.0256 -0.1889
 2362TIP3    H228722   5.860   4.259   0.295 -0.5456 -1.7073  1.7402
 2363TIP3   OH228723   0.599   3.651   6.555  0.2254 -0.0361  0.2242
 2363TIP3    H128724   0.527   3.610   6.507 -0.8153  0.5295  1.2859
 2363TIP3    H228725   0.558   3.722   6.604  1.4712  0.1357  1.0309
 2364TIP3   OH228726   7.100   3.441   6.474 -0.4110  0.0380  0.4201
 2364TIP3    H128727   7.140   3.359   6.501 -1.1090 -0.3107  0.3967
 2364TIP3    H228728   7.122   3.450   6.382 -0.2813 -0.0847  0.4399
 2365TIP3   OH228729   6.457   6.626   7.404 -0.1443  0.1774  0.0577
 2365TIP3    H128730   6.371   6.665   7.416 -0.2698 -0.0271 -0.1686
 2365TIP3    H228731   6.460   6.602   7.312  0.2996  0.5285 -0.0224
 2366TIP3   OH228732   0.429   4.764   7.032 -0.6910  0.2772  0.0499
 2366TIP3    H128733   0.420   4.794   6.941 -2.3953  0.5910  0.3001
 2366TIP3    H228734   0.360   4.810   7.079 -2.1544 -2.5978  0.8209
 2367TIP3   OH228735   6.524   4.477   6.229  0.5193 -0.1212  0.5531
 2367TIP3    H128736   6.539   4.481   6.135  0.7135 -0.1892  0.5825
 2367TIP3    H228737   6.580   4.407   6.260 -0.9652 -1.3777  0.4337
 2368TIP3   OH228738   5.628   5.056   6.903 -0.4491  0.0183 -0.2170
 2368TIP3    H128739   5.588   5.138   6.875  1.9326  1.0855 -0.5897
 2368TIP3    H228740   5.591   4.990   6.844  1.5270  1.6447 -3.4551
 2369TIP3   OH228741   7.260   3.687   5.915  0.1402  0.0576  0.0564
 2369TIP3    H128742   7.173   3.663   5.883  0.1110  1.4609 -0.9700
 2369TIP3    H228743   7.310   3.605   5.913 -0.2502 -0.1537 -2.3961
 2370TIP3   OH228744   1.833   5.130   7.262  0.1727 -0.4771 -0.2389
 2370TIP3    H128745   1.802   5.178   7.339  0.5167  0.7722 -0.8534
 2370TIP3    H228746   1.765   5.145   7.196  1.1374  0.6635 -0.9922
 2371TIP3   OH228747   5.536   5.832   6.841 -0.1374 -0.1629  0.0717
 2371TIP3    H128748   5.546   5.927   6.851  3.1769 -0.4651  0.1575
 2371TIP3    H228749   5.508   5.802   6.928 -0.6530  0.6418  0.1917
 2372TIP3   OH228750   7.258   4.730   6.537  0.4158  0.5273  0.3506
 2372TIP3    H128751   7.252   4.699   6.627  0.5888  1.0558  0.5446
 2372TIP3    H228752   7.350   4.717   6.513 -0.3597 -3.0498 -0.9975
 2373TIP3   OH228753   5.569   4.606   6.257  0.0102  0.1168  0.0136
 2373TIP3    H128754   5.609   4.640   6.337  0.0982 -0.9029  0.4060
 2373TIP3    H228755   5.503   4.544   6.287 -1.3955  1.2525 -0.6555
 2374TIP3   OH228756   5.688   3.518   1.266 -0.1396  0.0433 -0.4574
 2374TIP3    H128757   5.748   3.450   1.235 -0.7696 -0.6329 -0.1809
 2374TIP3    H228758   5.676   3.500   1.359 -0.3969  0.4715 -0.4061
 2375TIP3   OH228759   7.159   4.687   7.992  0.2419  0.1571  0.8294
 2375TIP3    H128760   7.114   4.603   7.982 -0.7944  0.6047  1.6307
 2375TIP3    H228761   7.144   4.711   8.083  1.6980  0.5594  0.9774
 2376TIP3   OH228762   5.713   4.830   7.411  0.6672  0.0066  0.6344
 2376TIP3    H128763   5.802   4.814   7.379 -0.1364  0.1351 -1.7992
 2376TIP3    H228764   5.676   4.891   7.347 -2.5748 -3.3764 -0.9307
 2377TIP3   OH228765   6.730   4.658   5.909 -0.1602 -0.8559 -0.2038
 2377TIP3    H128766   6.795   4.680   5.843 -1.7915 -0.8149 -1.8412
 2377TIP3    H228767   6.769   4.586   5.958  2.1804  0.8465  0.5128
 2378TIP3   OH228768   6.331   6.870   6.863 -0.5788  0.1303  0.2861
 2378TIP3    H128769   6.250   6.890   6.911  0.6367  0.5983  2.2022
 2378TIP3    H228770   6.401   6.889   6.925  0.9372 -2.6779 -0.4669
 2379TIP3   OH228771   5.080   6.783   0.709  0.2046  0.5280 -0.2080
 2379TIP3    H128772   5.077   6.736   0.626 -1.6135  0.5927 -0.2054
 2379TIP3    H228773   5.171   6.777   0.738  0.9790  0.9746 -2.4766
 2380TIP3   OH228774   7.315   6.181   1.866  0.0566 -0.2364 -0.0440
 2380TIP3    H128775   7.374   6.223   1.928  1.3794 -0.2148 -1.2781
 2380TIP3    H228776   7.231   6.179   1.910  1.1594 -1.0741  2.1131
 2381TIP3   OH228777   0.369   5.486   6.777 -0.2883 -0.0003 -0.0154
 2381TIP3    H128778   0.404   5.505   6.864 -3.0680 -0.0693  1.1829
 2381TIP3    H228779   0.399   5.559   6.722  0.7451  0.5194  1.2220
 2382TIP3   OH228780   0.169   4.316   1.127  0.0138  0.1091 -0.2144
 2382TIP3    H128781   0.211   4.401   1.113 -1.1542  0.8644  0.6788
 2382TIP3    H228782   0.079   4.330   1.096  0.3144 -1.3791 -1.8284
 2383TIP3   OH228783   0.082   4.199   6.844  0.2577  0.0338 -0.0381
 2383TIP3    H128784   0.160   4.217   6.897  0.7321 -1.4029 -0.2405
 2383TIP3    H228785   0.085   4.105   6.827 -1.7234 -0.1031  0.2610
 2384TIP3   OH228786   6.834   6.163   6.956 -0.4066  0.3604  0.1924
 2384TIP3    H128787   6.821   6.091   7.017 -1.3200  0.4600  0.1242
 2384TIP3    H228788   6.824   6.124   6.869 -3.5933  1.0414  0.1908
 2385TIP3   OH228789   6.246   3.241   7.240  0.8392  0.0646 -0.5009
 2385TIP3    H128790   6.331   3.284   7.236  1.2140 -0.7874 -2.4030
 2385TIP3    H228791   6.210   3.250   7.152 -1.2101  0.6911  0.3486
 2386TIP3   OH228792   4.796   4.741   7.750  0.0628 -0.9661  0.0812
 2386TIP3    H128793   4.789   4.646   7.752  2.3635 -1.1773 -0.0342
 2386TIP3    H228794   4.874   4.761   7.802 -0.3336  0.8392  0.0430
 2387TIP3   OH228795   0.118   6.781   7.453  0.1422 -0.7722 -0.2497
 2387TIP3    H128796   0.032   6.817   7.433  0.6770 -0.1272 -1.4655
 2387TIP3    H228797   0.110   6.687   7.438 -0.0084 -0.5474 -1.6237
 2388TIP3   OH228798   5.471   4.636   7.053 -0.4548 -0.4742  0.1961
 2388TIP3    H128799   5.461   4.608   6.962  0.7904 -3.0204  0.8142
 2388TIP3    H228800   5.562   4.617   7.074 -0.0703  2.3470  1.2541
 2389TIP3   OH228801   0.393   5.475   8.361  0.0499 -0.5018 -0.8037
 2389TIP3    H128802   0.367   5.567   8.366  2.1741  0.1388 -1.1416
 2389TIP3    H228803   0.380   5.441   8.449  0.0047  0.3320 -0.4863
 2390TIP3   OH228804   5.845   4.943   1.412 -0.5301 -0.1792  0.3201
 2390TIP3    H128805   5.754   4.932   1.442 -0.3980 -0.9530  0.4635
 2390TIP3    H228806   5.856   4.876   1.345 -0.0472 -0.1181  0.3383
 2391TIP3   OH228807   6.799   3.277   6.502  0.2144  0.6043 -0.4547
 2391TIP3    H128808   6.861   3.347   6.523 -0.5993  1.0169  0.6366
 2391TIP3    H228809   6.852   3.198   6.493  1.0564  1.2284 -0.9713
 2392TIP3   OH228810   5.645   6.958   6.882  0.3930  0.3187  0.2689
 2392TIP3    H128811   5.696   6.996   6.953  0.8344  0.0488  0.1030
 2392TIP3    H228812   5.579   7.023   6.862  0.9577  0.8744  0.1861
 2393TIP3   OH228813   0.326   4.201   6.982  0.1704  0.1828 -0.1002
 2393TIP3    H128814   0.305   4.183   7.074  0.0858  0.2723 -0.1010
 2393TIP3    H228815   0.375   4.283   6.984 -0.7569  0.7443 -0.2301
 2394TIP3   OH228816   0.428   4.465   7.003 -0.5886  0.5358  0.2866
 2394TIP3    H128817   0.510   4.442   6.959 -1.2506 -1.8741  0.2569
 2394TIP3    H228818   0.426   4.561   7.001  0.4874  0.5435 -2.9089
 2395TIP3   OH228819   0.324   3.499   6.578 -0.1194  0.1405 -0.4737
 2395TIP3    H128820   0.251   3.559   6.594 -2.1476 -2.4830  0.3592
 2395TIP3    H228821   0.314   3.475   6.485  0.4253  0.7018 -0.6837
 2396TIP3   OH228822   0.264   4.228   7.681 -0.3378  0.5041  0.2476
 2396TIP3    H128823   0.283   4.186   7.598 -0.8966 -1.8471  1.2779
 2396TIP3    H228824   0.349   4.254   7.715 -0.0772  1.1158 -0.8648
 2397TIP3   OH228825   4.695   2.353   0.535  0.7478  0.1279 -0.2722
 2397TIP3    H128826   4.612   2.305   0.538  0.9177 -0.0964  1.2413
 2397TIP3    H228827   4.762   2.286   0.545  1.0824  0.4084 -0.6172
 2398TIP3   OH228828   5.545   4.110   7.344 -0.7950  0.0152  0.3811
 2398TIP3    H128829   5.539   4.203   7.366 -1.0674 -0.3546  1.9512
 2398TIP3    H228830   5.482   4.097   7.273 -0.3426  1.1322 -0.2303
 2399TIP3   OH228831   3.458   4.596   6.172  0.5278  0.8198  0.0661
 2399TIP3    H128832   3.399   4.533   6.213 -0.2541  1.4762 -0.0537
 2399TIP3    H228833   3.411   4.679   6.174  2.0838  1.7163  1.4488
 2400TIP3   OH228834   6.230   4.288   6.544 -0.2517 -0.2458 -0.6850
 2400TIP3    H128835   6.222   4.232   6.466 -0.6715 -0.0367 -0.7941
 2400TIP3    H228836   6.285   4.361   6.515 -1.1634  0.3083 -1.0592
 2401TIP3   OH228837   0.739   5.260   8.066  0.2246 -0.3917  0.4610
 2401TIP3    H128838   0.683   5.338   8.071  1.1413  0.2821  0.2497
 2401TIP3    H228839   0.702   5.200   8.132 -0.4112  0.2588  0.7039
 2402TIP3   OH228840   6.028   4.456   7.250 -0.4476  0.2328 -0.1026
 2402TIP3    H128841   6.110   4.503   7.231 -1.4065  2.1772  0.3818
 2402TIP3    H228842   6.034   4.376   7.198 -0.0729  2.3114 -3.4645
 2403TIP3   OH228843   5.021   4.571   6.658 -0.3173 -0.2168  0.1128
 2403TIP3    H128844   4.958   4.558   6.730 -1.2860 -2.1097 -1.0486
 2403TIP3    H228845   5.079   4.495   6.663 -0.9130 -0.8126 -1.6047
 2404TIP3   OH228846   0.419   4.939   1.339  0.1581  0.1475  0.6306
 2404TIP3    H128847   0.444   4.969   1.427  0.7892 -0.6588  0.7255
 2404TIP3    H228848   0.376   4.855   1.354  0.6617 -0.2012  0.1351
 2405TIP3   OH228849   3.799   4.841   0.573  0.2061 -0.5277 -0.1836
 2405TIP3    H128850   3.804   4.917   0.515 -0.9267  0.2260  0.6851
 2405TIP3    H228851   3.760   4.875   0.654  2.2319 -1.4528  1.2284
 2406TIP3   OH228852   0.219   5.992   2.003  0.2356  0.0950  0.2370
 2406TIP3    H128853   0.188   5.992   1.912 -0.3078  1.0796  0.4100
 2406TIP3    H228854   0.266   6.075   2.011  2.6224 -1.2257  0.0871
 2407TIP3   OH228855   0.153   5.561   7.843  0.0635 -0.3290  0.1505
 2407TIP3    H128856   0.118   5.633   7.895  2.3487 -0.1433  1.5315
 2407TIP3    H228857   0.201   5.507   7.906 -0.5316 -2.3645 -1.0896
 2408TIP3   OH228858   3.945   6.237   1.075  0.0651  0.2020 -0.2954
 2408TIP3    H128859   4.031   6.199   1.095  0.7815  1.8403 -0.2127
 2408TIP3    H228860   3.883   6.174   1.110  1.2629  0.2539  2.0358
 2409TIP3   OH228861   4.822   4.111   8.257  0.2344  0.1679 -0.3267
 2409TIP3    H128862   4.812   4.120   8.352  1.6626  2.0820 -0.3230
 2409TIP3    H228863   4.868   4.028   8.245 -1.7758 -1.1029  0.5095
 2410TIP3   OH228864   6.538   5.223   1.539 -0.2041  0.0646  0.2478
 2410TIP3    H128865   6.467   5.181   1.491 -1.5527 -0.0647  2.3121
 2410TIP3    H228866   6.569   5.292   1.480 -0.8524 -1.0000 -1.3778
 2411TIP3   OH228867   6.953   2.565   6.869 -0.0445 -0.9592 -0.7366
 2411TIP3    H128868   6.966   2.502   6.799  2.4224 -0.0838 -1.1209
 2411TIP3    H228869   6.969   2.515   6.949 -2.5896 -1.8891 -0.7744
 2412TIP3   OH228870   6.168   5.662   7.537 -0.2686 -0.6670  0.4888
 2412TIP3    H128871   6.104   5.681   7.469 -0.8058 -3.8936  0.0170
 2412TIP3    H228872   6.252   5.681   7.497 -0.6897 -0.7864 -0.4750
 2413TIP3   OH228873   1.644   4.750   0.669 -0.3963  0.3931  0.3205
 2413TIP3    H128874   1.630   4.688   0.740 -0.1222  0.8950  0.8203
 2413TIP3    H228875   1.728   4.791   0.690  0.9662 -1.2670 -1.6298
 2414TIP3   OH228876   3.708   4.457   6.181 -0.8378 -0.1461  0.4122
 2414TIP3    H128877   3.618   4.489   6.176 -0.6218  0.6722  1.5646
 2414TIP3    H228878   3.753   4.520   6.237 -0.0200 -1.6239  1.4638
 2415TIP3   OH228879   7.009   4.385   8.347 -0.0228  0.1485 -0.0068
 2415TIP3    H128880   6.931   4.439   8.345  0.5111  0.8526 -2.7172
 2415TIP3    H228881   7.072   4.431   8.292  2.0446 -0.8111  1.4989
 2416TIP3   OH228882   6.000   6.319   6.924 -0.1438 -0.6748  0.6830
 2416TIP3    H128883   6.040   6.331   6.837  0.1757  2.1238  1.1739
 2416TIP3    H228884   6.071   6.338   6.986 -1.0240 -0.1350  1.5424
 2417TIP3   OH228885   6.716   5.622   7.163  0.4829 -0.3525  0.2362
 2417TIP3    H128886   6.771   5.671   7.102  2.6272 -1.8779  0.8939
 2417TIP3    H228887   6.655   5.574   7.108  1.8105 -1.0112 -0.6622
 2418TIP3   OH228888   7.333   5.439   1.499 -0.1861 -0.1396  0.5327
 2418TIP3    H128889   7.425   5.433   1.471 -0.4990 -1.6397 -0.2241
 2418TIP3    H228890   7.338   5.476   1.587  1.3651 -2.6973  1.5915
 2419TIP3   OH228891   1.462   4.016   0.287 -0.2433  0.3720 -0.5545
 2419TIP3    H128892   1.535   3.959   0.263 -1.3305 -1.1281 -0.4395
 2419TIP3    H228893   1.387   3.981   0.238 -1.5666 -0.1226  1.7402
 2420TIP3   OH228894   5.552   4.913   1.079  0.2207 -0.6873  0.3499
 2420TIP3    H128895   5.605   4.992   1.079 -0.1263 -0.4435  1.4919
 2420TIP3    H228896   5.606   4.847   1.034  0.7867 -0.0001  0.0104
 2421TIP3   OH228897   6.598   5.066   1.188  0.3280  0.2037 -0.1349
 2421TIP3    H128898   6.595   5.098   1.098  0.1371 -0.0560 -0.2220
 2421TIP3    H228899   6.509   5.079   1.221 -0.0656 -1.3148 -0.5518
 2422TIP3   OH228900   6.993   4.057   7.078  0.1562 -0.7216 -0.1857
 2422TIP3    H128901   7.027   4.125   7.136  1.6822 -1.8604  0.2678
 2422TIP3    H228902   6.899   4.055   7.096  0.4626 -0.3900  1.5162
 2423TIP3   OH228903   5.031   5.321   1.022  0.1775 -0.6493 -0.6263
 2423TIP3    H128904   4.977   5.243   1.006 -0.0470 -0.5620 -0.3014
 2423TIP3    H228905   4.968   5.393   1.025  0.4089 -0.4213 -1.1596
 2424TIP3   OH228906   6.585   5.373   8.033 -0.7074 -0.0593  0.2653
 2424TIP3    H128907   6.536   5.325   7.966 -0.6452  1.4631 -0.9149
 2424TIP3    H228908   6.519   5.411   8.090 -0.8329  0.1582 -0.0229
 2425TIP3   OH228909   4.873   3.030   1.786  0.3223 -0.1770 -0.7258
 2425TIP3    H128910   4.950   2.988   1.822 -0.7131 -2.5854 -1.1987
 2425TIP3    H228911   4.799   2.991   1.834 -0.7111  0.5242 -1.7036
 2426TIP3   OH228912   5.495   3.981   7.567  0.1288 -0.3810  0.0558
 2426TIP3    H128913   5.478   4.058   7.622 -0.0438 -0.7530  0.5218
 2426TIP3    H228914   5.529   4.018   7.485 -1.6473  0.2836 -0.3964
 2427TIP3   OH228915   5.884   5.142   6.725 -0.1459  0.1077 -0.1885
 2427TIP3    H128916   5.840   5.226   6.711 -0.9243 -0.1684  0.5462
 2427TIP3    H228917   5.813   5.083   6.751  0.5848 -0.4560  0.5353
 2428TIP3   OH228918   5.804   5.565   6.918 -0.1400 -0.2288 -0.3563
 2428TIP3    H128919   5.744   5.587   6.990 -0.6160 -1.5874 -0.3211
 2428TIP3    H228920   5.747   5.554   6.842  0.3152  0.7252 -0.8516
 2429TIP3   OH228921   6.223   4.506   7.011 -0.0238 -0.1516 -0.1582
 2429TIP3    H128922   6.200   4.413   7.009 -0.9396  0.0757 -0.0061
 2429TIP3    H228923   6.307   4.508   7.058 -0.5973 -0.7832  0.9130
 2430TIP3   OH228924   6.973   4.884   6.509  0.1960 -0.4942  0.4089
 2430TIP3    H128925   6.989   4.836   6.590 -1.2425 -0.8975  0.4687
 2430TIP3    H228926   7.031   4.842   6.445 -0.5658 -1.9029  0.6122
 2431TIP3   OH228927   0.240   4.501   5.966  0.1924 -0.5352  0.2621
 2431TIP3    H128928   0.287   4.579   5.938 -1.8025  0.4483 -0.4653
 2431TIP3    H228929   0.253   4.438   5.895  0.4755 -0.2896  0.0963
 2432TIP3   OH228930   6.702   4.024   6.110  0.1214  0.1359 -0.0733
 2432TIP3    H128931   6.778   3.975   6.079 -0.4271 -0.3321 -0.7104
 2432TIP3    H228932   6.640   4.020   6.037  0.2883  2.2920 -0.3797
 2433TIP3   OH228933   6.116   4.920   7.772 -0.7682  0.5367 -0.3683
 2433TIP3    H128934   6.036   4.880   7.806 -0.4926  1.1989  1.1216
 2433TIP3    H228935   6.106   5.013   7.792  0.4490  0.5986  0.0015
 2434TIP3   OH228936   5.408   2.712   6.791 -0.1354 -0.1873 -0.2857
 2434TIP3    H128937   5.412   2.707   6.887 -0.8390  0.5491 -0.2164
 2434TIP3    H228938   5.323   2.750   6.772  0.7524  1.4440 -1.1285
 2435TIP3   OH228939   6.846   4.483   6.968 -0.7805  0.2164  0.5165
 2435TIP3    H128940   6.904   4.453   7.038  0.0074  1.1527  0.2863
 2435TIP3    H228941   6.843   4.410   6.907 -0.4093 -0.1143  0.8835
 2436TIP3   OH228942   4.680   2.715   7.573 -0.0103 -0.1335 -0.2320
 2436TIP3    H128943   4.681   2.799   7.527 -1.4923 -0.7552 -1.4724
 2436TIP3    H228944   4.758   2.669   7.541 -0.1327  0.1000 -0.8825
 2437TIP3   OH228945   5.773   5.595   7.747 -0.5424  0.1637  0.0530
 2437TIP3    H128946   5.843   5.569   7.686 -2.2352  0.2975 -1.9985
 2437TIP3    H228947   5.698   5.542   7.722 -1.4845  0.7260  1.5993
 2438TIP3   OH228948   5.682   6.298   6.267  0.2766  0.6864 -0.4171
 2438TIP3    H128949   5.611   6.325   6.209 -1.2210 -1.2668  0.4913
 2438TIP3    H228950   5.720   6.221   6.224 -1.2467 -1.1500  1.4913
 2439TIP3   OH228951   6.951   4.770   6.761  0.3184  0.4322 -0.0469
 2439TIP3    H128952   6.872   4.731   6.800 -1.0643  1.5109 -1.7028
 2439TIP3    H228953   7.023   4.737   6.816 -1.0785 -2.0865  0.3772
 2440TIP3   OH228954   5.970   3.724   7.359  0.2601 -0.3869  0.5983
 2440TIP3    H128955   6.014   3.790   7.305 -0.1589 -2.1603 -1.9715
 2440TIP3    H228956   5.884   3.762   7.378 -0.0326 -0.2217 -0.9718
 2441TIP3   OH228957   5.174   3.820   6.403 -0.5126  0.4424 -0.1687
 2441TIP3    H128958   5.087   3.784   6.387 -1.1236  1.1367  1.4783
 2441TIP3    H228959   5.231   3.743   6.411 -1.0617 -0.0301 -0.8142
 2442TIP3   OH228960   5.397   4.296   6.771 -0.0576  0.3242 -0.2160
 2442TIP3    H128961   5.367   4.349   6.697  0.6198  3.1386  1.4743
 2442TIP3    H228962   5.486   4.270   6.746  0.9555  2.9990  0.4533
 2443TIP3   OH228963   0.495   5.594   6.418  0.4042  0.8191  0.1995
 2443TIP3    H128964   0.450   5.513   6.395  0.0672  0.9422  0.4297
 2443TIP3    H228965   0.465   5.615   6.506  2.3740 -0.1161  1.1155
 2444TIP3   OH228966   5.773   4.137   7.952  0.1207 -0.3421  0.4883
 2444TIP3    H128967   5.834   4.083   8.003 -0.3404 -2.2127 -0.8827
 2444TIP3    H228968   5.826   4.170   7.879  0.0600 -0.0941  0.5583
 2445TIP3   OH228969   6.593   4.860   6.512  0.5743 -0.0425 -0.2344
 2445TIP3    H128970   6.537   4.882   6.438 -1.5586 -1.0943  1.0406
 2445TIP3    H228971   6.613   4.766   6.500 -1.0395 -0.5981  1.3295
 2446TIP3   OH228972   6.757   4.334   0.199 -0.7300  0.6152  0.4154
 2446TIP3    H128973   6.816   4.388   0.146 -0.3179  1.6532  1.9080
 2446TIP3    H228974   6.814   4.271   0.243 -1.1083 -0.4557 -0.6058
 2447TIP3   OH228975   6.215   5.805   8.189  0.2876 -0.0599 -0.0179
 2447TIP3    H128976   6.253   5.717   8.193  1.1903  0.3113 -0.1256
 2447TIP3    H228977   6.257   5.845   8.112 -0.1074  0.4698  0.0401
 2448TIP3   OH228978   5.181   3.557   7.707 -0.1847 -0.0891  0.5860
 2448TIP3    H128979   5.184   3.503   7.786  1.1678  2.3414  2.2958
 2448TIP3    H228980   5.181   3.647   7.741 -3.8095  1.0211 -2.0817
 2449TIP3   OH228981   6.146   3.607   7.852 -0.0146 -0.2774  0.4066
 2449TIP3    H128982   6.232   3.578   7.821 -0.1699 -0.7380  0.4122
 2449TIP3    H228983   6.092   3.611   7.773 -0.5191 -1.8227  0.6589
 2450TIP3   OH228984   4.605   4.747   7.242 -0.6471 -0.3192 -0.1172
 2450TIP3    H128985   4.637   4.664   7.275  0.8056  0.1902 -0.2015
 2450TIP3    H228986   4.573   4.794   7.319 -2.0546 -1.1743 -0.1473
 2451TIP3   OH228987   7.176   4.320   7.397 -0.6206 -0.8884  0.4196
 2451TIP3    H128988   7.198   4.242   7.449  0.9149 -1.0069 -0.3792
 2451TIP3    H228989   7.250   4.380   7.413 -1.3632  0.0546  0.3288
 2452TIP3   OH228990   0.599   5.014   7.483 -0.0346 -0.1255 -0.4452
 2452TIP3    H128991   0.660   5.087   7.492  0.5163 -0.8461  2.3270
 2452TIP3    H228992   0.525   5.049   7.435  0.9201  1.8265 -0.5161
 2453TIP3   OH228993   6.369   5.023   7.617  0.4988 -0.0721  0.9879
 2453TIP3    H128994   6.273   5.013   7.620  0.5040  0.0701  1.6842
 2453TIP3    H228995   6.383   5.117   7.616  0.6087 -0.0966 -0.1265
 2454TIP3   OH228996   4.847   5.461   6.801 -0.2446  0.1390 -0.1178
 2454TIP3    H128997   4.767   5.411   6.785 -0.0751  0.2034 -1.2227
 2454TIP3    H228998   4.898   5.406   6.860 -1.6777  0.7033  1.6971
 2455TIP3   OH228999   4.816   7.083   8.090 -0.1534 -0.5334  0.0805
 2455TIP3    H129000   4.819   6.997   8.132  0.7402 -0.6875 -0.3001
 2455TIP3    H229001   4.856   7.142   8.153 -0.0973 -0.5191  0.0300
 2456TIP3   OH229002   6.691   6.313   7.286 -0.1591 -0.5307 -0.0085
 2456TIP3    H129003   6.674   6.306   7.192 -1.5385 -0.1428  0.2051
 2456TIP3    H229004   6.777   6.355   7.292 -0.3626  0.0487 -1.0867
 2457TIP3   OH229005   0.446   3.251   6.635 -0.4541  0.5278 -0.3343
 2457TIP3    H129006   0.384   3.321   6.618 -1.2154  0.5820  2.4538
 2457TIP3    H229007   0.416   3.178   6.581 -3.6159  0.2176  1.6853
 2458TIP3   OH229008   5.440   1.114   7.299  0.0329 -0.0648  0.1403
 2458TIP3    H129009   5.508   1.175   7.273  1.4261 -2.1551 -1.3124
 2458TIP3    H229010   5.476   1.028   7.278 -4.0283 -1.1360 -3.0469
 2459TIP3   OH229011   6.178   3.355   1.686  0.0670 -0.1498 -0.1061
 2459TIP3    H129012   6.213   3.438   1.718  0.7765 -0.7339  0.6263
 2459TIP3    H229013   6.112   3.381   1.621  2.0067  0.9538 -1.6978
 2460TIP3   OH229014   5.441   2.734   6.319 -0.4968 -0.2303  0.0991
 2460TIP3    H129015   5.480   2.714   6.234  1.2570  0.5687  0.6829
 2460TIP3    H229016   5.348   2.749   6.301 -0.6265 -2.5192 -1.2905
 2461TIP3   OH229017   5.294   4.793   7.179 -0.3975  0.1163 -0.3491
 2461TIP3    H129018   5.355   4.732   7.138  2.9842  1.5325  2.3085
 2461TIP3    H229019   5.327   4.880   7.155 -2.4548  0.9255 -0.3643
 2462TIP3   OH229020   0.721   4.045   6.453 -0.1827  0.0103 -0.3240
 2462TIP3    H129021   0.727   4.074   6.362  2.3636 -0.1190 -0.2313
 2462TIP3    H229022   0.797   3.987   6.465 -1.7962 -1.8596  1.2125
 2463TIP3   OH229023   6.075   5.236   6.541 -0.1893  0.0401 -0.2410
 2463TIP3    H129024   6.131   5.170   6.500  1.2848  0.6137  0.8450
 2463TIP3    H229025   6.021   5.186   6.602  0.5680 -0.2360  0.2076
 2464TIP3   OH229026   6.249   7.095   7.061 -0.1468 -0.0649 -0.3604
 2464TIP3    H129027   6.264   7.183   7.027 -0.0392  0.3430  0.7261
 2464TIP3    H229028   6.331   7.049   7.044  0.5842  0.6899  1.0264
 2465TIP3   OH229029   6.948   5.488   6.966 -0.0883  0.5193  0.3170
 2465TIP3    H129030   6.896   5.408   6.955  2.0145 -0.8643  0.3187
 2465TIP3    H229031   6.898   5.555   6.919 -0.3356 -1.4460 -2.3381
 2466TIP3   OH229032   6.289   2.765   6.889  0.4970 -0.6924  0.2745
 2466TIP3    H129033   6.234   2.841   6.904  1.5366  0.1717 -0.2222
 2466TIP3    H229034   6.279   2.712   6.968  0.1041  0.1662  0.8063
 2467TIP3   OH229035   1.322   4.372   0.085  0.3157  0.1120 -1.0488
 2467TIP3    H129036   1.251   4.319   0.122 -0.2595  2.2604  1.0307
 2467TIP3    H229037   1.280   4.421   0.014  0.3804 -0.6250 -1.6117
 2468TIP3   OH229038   0.910   5.681   0.581  0.8563 -0.7367  0.2900
 2468TIP3    H129039   0.905   5.777   0.582  0.4956 -0.7510 -0.2807
 2468TIP3    H229040   0.841   5.653   0.642 -0.2541 -0.6778 -0.9098
 2469TIP3   OH229041   0.646   6.175   7.505  0.2865  0.3585  0.4021
 2469TIP3    H129042   0.578   6.185   7.438  0.1027 -0.2266  0.5005
 2469TIP3    H229043   0.609   6.216   7.583  0.3215  0.6447  0.2698
 2470TIP3   OH229044   1.163   7.223   6.513  0.0099 -0.8274  0.2139
 2470TIP3    H129045   1.197   7.302   6.472 -0.1931 -0.1173  1.4077
 2470TIP3    H229046   1.144   7.248   6.603  0.3728 -2.3468  0.7402
 2471TIP3   OH229047   0.018   6.834   7.167  0.2577  0.0753  0.5059
 2471TIP3    H129048   0.007   6.863   7.076 -0.2166  3.1790  1.4869
 2471TIP3    H229049   0.102   6.787   7.167  0.7294  0.8549 -1.3654
 2472TIP3   OH229050   2.624   1.513   7.207  0.5726 -0.5820  0.1239
 2472TIP3    H129051   2.562   1.486   7.140  0.3370 -1.5399  0.7025
 2472TIP3    H229052   2.710   1.492   7.170  0.5345  0.4397 -0.5448
 2473TIP3   OH229053   5.017   5.373   8.092  0.2062 -0.3792 -0.2380
 2473TIP3    H129054   5.065   5.355   8.172 -0.9661 -3.0932 -0.0793
 2473TIP3    H229055   5.030   5.466   8.076  0.6864  0.1395  2.9249
 2474TIP3   OH229056   0.183   6.619   6.851  0.0175  0.5028  0.0148
 2474TIP3    H129057   0.179   6.551   6.918 -0.3557 -1.7756 -2.2668
 2474TIP3    H229058   0.099   6.665   6.857  0.1642  0.5974  1.3804
 2475TIP3   OH229059   1.372   6.432   6.414  0.7468  0.1550 -0.1097
 2475TIP3    H129060   1.311   6.444   6.342  1.8711  1.8271 -0.8130
 2475TIP3    H229061   1.333   6.363   6.467 -0.5567 -0.4659 -1.8166
 2476TIP3   OH229062   0.341   0.390   6.647 -0.2741 -0.2060  0.6660
 2476TIP3    H129063   0.263   0.337   6.634 -0.1969 -0.5512  1.5223
 2476TIP3    H229064   0.411   0.340   6.604 -0.5013  0.0439  0.0053
 2477TIP3   OH229065   1.833   5.638   6.140 -0.2080 -0.6270 -0.0400
 2477TIP3    H129066   1.842   5.559   6.087  0.3862 -0.8560  0.3991
 2477TIP3    H229067   1.868   5.708   6.084  0.7313 -0.9182  0.1644
 2478TIP3   OH229068   7.254   6.461   7.738  0.6004 -0.4393 -0.2964
 2478TIP3    H129069   7.178   6.489   7.790  0.1760  0.3687 -1.3428
 2478TIP3    H229070   7.319   6.529   7.751  1.4151 -1.4471  1.1151
 2479TIP3   OH229071   0.980   6.461   6.519  0.1245  0.8864  0.0978
 2479TIP3    H129072   0.999   6.555   6.522  0.6901  0.7802 -0.1177
 2479TIP3    H229073   0.884   6.456   6.515  0.1501  1.5063 -1.8865
 2480TIP3   OH229074   6.982   7.041   6.726 -0.2910 -0.1250 -0.2419
 2480TIP3    H129075   6.909   7.065   6.669 -1.3056  0.7255  1.3816
 2480TIP3    H229076   6.942   6.988   6.795  0.5831  0.5874  0.8218
 2481TIP3   OH229077   6.621   5.728   6.248  0.4802  0.2112  0.1312
 2481TIP3    H129078   6.557   5.660   6.266 -0.2371  0.8289 -0.0418
 2481TIP3    H229079   6.571   5.810   6.250  1.0307  0.5988 -1.2015
 2482TIP3   OH229080   2.305   5.739   7.473  0.9805  0.3984  0.2931
 2482TIP3    H129081   2.370   5.687   7.426  1.1570 -0.5243  1.5526
 2482TIP3    H229082   2.352   5.772   7.550  0.2111  0.4645  0.7353
 2483TIP3   OH229083   2.381   3.146   7.559  0.1684 -0.3462 -0.1171
 2483TIP3    H129084   2.288   3.169   7.562 -0.1688 -1.7175  0.3744
 2483TIP3    H229085   2.411   3.159   7.649 -0.0309 -1.7932  0.1723
 2484TIP3   OH229086   6.358   6.640   0.058  0.1719 -0.0141  0.6924
 2484TIP3    H129087   6.374   6.551   0.026 -1.1354 -0.2088  0.5737
 2484TIP3    H229088   6.306   6.681  -0.011  1.6827  1.1986  0.2412
 2485TIP3   OH229089   0.844   0.216   7.170 -0.5838 -0.3594  0.1226
 2485TIP3    H129090   0.781   0.214   7.242 -0.1594  0.0513  0.5129
 2485TIP3    H229091   0.814   0.288   7.114 -1.4208 -1.2487 -0.5873
 2486TIP3   OH229092   1.254   0.880   6.795 -0.1075  0.1738  0.0802
 2486TIP3    H129093   1.185   0.922   6.847  0.0773 -1.0774  1.3749
 2486TIP3    H229094   1.208   0.843   6.719 -0.6116  0.7599  0.0984
 2487TIP3   OH229095   2.437   6.387   6.504 -0.2489 -0.1919 -0.1698
 2487TIP3    H129096   2.347   6.420   6.495  1.2204  4.7418  1.9421
 2487TIP3    H229097   2.485   6.427   6.431  0.9945  0.0310  0.7667
 2488TIP3   OH229098   6.685   1.194   6.780  0.0721  0.2044  0.7205
 2488TIP3    H129099   6.766   1.182   6.830  0.5417 -0.5174 -0.2088
 2488TIP3    H229100   6.695   1.279   6.738  0.8131 -0.3606 -0.2491
 2489TIP3   OH229101   6.490   4.969   0.477 -0.0856  0.3312  0.9249
 2489TIP3    H129102   6.498   5.000   0.386  1.7394  1.8719  1.5939
 2489TIP3    H229103   6.421   4.902   0.473  1.9406 -1.7068 -2.1247
 2490TIP3   OH229104   0.152   6.776   6.184 -0.1756 -0.1950 -0.2804
 2490TIP3    H129105   0.118   6.826   6.258 -1.1222  1.0380 -1.5340
 2490TIP3    H229106   0.092   6.703   6.175  0.0547 -0.4619  0.2743
 2491TIP3   OH229107   2.000   5.092   7.957  0.2641  0.3449  0.2404
 2491TIP3    H129108   1.958   5.042   7.887 -0.8536  0.3802  0.8582
 2491TIP3    H229109   1.945   5.170   7.968  0.2889  0.2325  1.2909
 2492TIP3   OH229110   2.040   6.077   7.627 -0.6089  0.4069  0.0383
 2492TIP3    H129111   1.956   6.063   7.583  0.3337 -3.0129 -0.8084
 2492TIP3    H229112   2.033   6.026   7.708  0.4357  0.5284  0.2092
 2493TIP3   OH229113   2.101   6.050   7.325  0.1212  0.3561  0.0834
 2493TIP3    H129114   2.096   6.062   7.420  0.1511  0.1820  0.1080
 2493TIP3    H229115   2.032   5.987   7.305  0.6320 -0.2155  0.1002
 2494TIP3   OH229116   0.088   6.943   6.416  0.4777 -0.4607 -0.3075
 2494TIP3    H129117  -0.005   6.925   6.425  0.2822 -0.3369 -1.8922
 2494TIP3    H229118   0.096   7.038   6.416  0.4598 -0.4498 -1.3412
 2495TIP3   OH229119   1.395   0.305   6.480  0.1488  0.4923  0.5417
 2495TIP3    H129120   1.339   0.269   6.411  0.8152 -2.2155  1.3861
 2495TIP3    H229121   1.425   0.389   6.445 -0.7863 -0.1199 -1.7907
 2496TIP3   OH229122   1.606   6.764   7.673  0.1545  0.2201  0.2113
 2496TIP3    H129123   1.605   6.674   7.705 -1.5833  0.0746 -0.2476
 2496TIP3    H229124   1.676   6.765   7.608  0.7430 -0.5762  0.8100
 2497TIP3   OH229125   0.340   6.386   6.346  0.0813  0.4920 -0.0628
 2497TIP3    H129126   0.356   6.292   6.357 -0.7358  0.1964 -1.2055
 2497TIP3    H229127   0.250   6.398   6.376  0.1607  0.8887  0.0080
 2498TIP3   OH229128   1.579   0.721   7.731 -0.2174 -0.3950 -0.0829
 2498TIP3    H129129   1.514   0.653   7.747 -0.6306  0.1506  0.5906
 2498TIP3    H229130   1.556   0.757   7.645 -0.6395 -0.3828  0.0356
 2499TIP3   OH229131   1.714   5.720   6.359 -0.0520 -0.0914 -0.8174
 2499TIP3    H129132   1.750   5.674   6.283 -0.0320 -3.0095  0.9011
 2499TIP3    H229133   1.784   5.780   6.385  0.0397  0.7747 -2.9099
 2500TIP3   OH229134   1.486   4.592   7.470 -0.1291 -0.1666  0.3769
 2500TIP3    H129135   1.553   4.568   7.407 -0.8112 -0.3465 -0.2912
 2500TIP3    H229136   1.433   4.658   7.425  0.2124  0.7375  1.2682
 2501TIP3   OH229137   1.367   0.129   7.839  0.4646  0.7663  0.5539
 2501TIP3    H129138   1.428   0.093   7.903 -0.0461 -0.3589  0.4201
 2501TIP3    H229139   1.322   0.052   7.802 -1.4086  1.5990  1.0207
 2502TIP3   OH229140   1.199   0.576   7.865 -0.3307 -0.1170 -0.4127
 2502TIP3    H129141   1.230   0.648   7.810  0.5049  0.5518  0.9029
 2502TIP3    H229142   1.170   0.509   7.804 -1.5400  1.5127 -1.6810
 2503TIP3   OH229143   1.825   5.514   7.418  0.0829 -0.3303  0.2390
 2503TIP3    H129144   1.834   5.496   7.325 -0.3189 -2.1838  0.5238
 2503TIP3    H229145   1.916   5.518   7.450  0.2322  0.9260 -0.3247
 2504TIP3   OH229146   1.929   0.821   2.182 -0.3374  0.4904  0.3638
 2504TIP3    H129147   1.987   0.776   2.244  1.6291  0.8010 -1.1833
 2504TIP3    H229148   1.910   0.906   2.224  0.0267  0.2344  1.0532
 2505TIP3   OH229149   2.387   6.919   0.018  0.1574  0.4771 -0.5737
 2505TIP3    H129150   2.334   6.865   0.077 -0.3598  2.6314  0.9887
 2505TIP3    H229151   2.330   6.934  -0.058 -0.5404  0.6546 -0.0242
 2506TIP3   OH229152   3.087   3.949   7.865  0.5646 -0.2119 -0.0135
 2506TIP3    H129153   3.097   4.036   7.826 -1.6065  0.1027  0.0643
 2506TIP3    H229154   3.107   3.889   7.793  0.5385  0.3557 -0.5029
 2507TIP3   OH229155   2.498   1.389   7.000 -0.7703 -0.1544 -0.3708
 2507TIP3    H129156   2.492   1.294   7.007 -0.3442 -0.1553  0.0123
 2507TIP3    H229157   2.529   1.405   6.911 -2.7918 -0.2888 -1.1242
 2508TIP3   OH229158   2.033   6.546   7.271  0.1935 -0.3025  0.5663
 2508TIP3    H129159   2.080   6.464   7.257  0.1183 -0.0193 -1.4561
 2508TIP3    H229160   2.101   6.609   7.297  0.6890 -0.2850 -0.7728
 2509TIP3   OH229161   0.324   5.752   7.126  0.0495 -0.0379 -0.1180
 2509TIP3    H129162   0.320   5.722   7.217  0.2942  0.7686  0.1581
 2509TIP3    H229163   0.262   5.695   7.080 -1.1254  0.4630  0.8147
 2510TIP3   OH229164   1.577   4.883   6.737  0.3131 -0.4316 -0.1219
 2510TIP3    H129165   1.617   4.910   6.653  2.3607 -2.8024  0.0420
 2510TIP3    H229166   1.581   4.788   6.736 -3.4771 -0.6669  0.9044
 2511TIP3   OH229167   0.225   6.909   7.666  0.6741  0.6036  0.3276
 2511TIP3    H129168   0.185   6.881   7.583 -0.0388 -2.2639  1.5849
 2511TIP3    H229169   0.152   6.943   7.717  0.1990 -2.2152  1.6205
 2512TIP3   OH229170   0.228   5.061   6.909 -0.6366  0.1297  0.1901
 2512TIP3    H129171   0.177   5.140   6.924 -1.3301 -0.7734  2.7312
 2512TIP3    H229172   0.167   4.989   6.924  0.3104 -0.9172 -0.8448
 2513TIP3   OH229173   2.169   1.942   6.870  0.0233  0.2277 -0.5610
 2513TIP3    H129174   2.264   1.938   6.884 -0.2284  0.3688  1.3260
 2513TIP3    H229175   2.132   1.908   6.951 -1.5312 -1.4561 -1.9531
 2514TIP3   OH229176   2.362   7.177   0.269  1.1063  0.1889 -0.3820
 2514TIP3    H129177   2.434   7.144   0.214  0.4093  0.8884 -1.7396
 2514TIP3    H229178   2.286   7.176   0.211 -0.0877 -0.9061  1.1548
 2515TIP3   OH229179   1.387   6.492   7.316  0.3002  0.4140  0.5408
 2515TIP3    H129180   1.343   6.560   7.367  0.9643  0.0108  1.6846
 2515TIP3    H229181   1.374   6.517   7.225 -1.1896  0.9757  0.9008
 2516TIP3   OH229182   0.164   7.041   6.054  0.3202  0.0144 -0.8032
 2516TIP3    H129183   0.182   6.947   6.059  0.0260 -0.1229 -2.0946
 2516TIP3    H229184   0.100   7.049   5.984  0.3591  1.1868 -0.7128
 2517TIP3   OH229185   5.869   6.147   7.319  0.5495  0.2142  0.5178
 2517TIP3    H129186   5.801   6.114   7.378  1.1083  1.5482  1.9635
 2517TIP3    H229187   5.948   6.151   7.373  1.6119 -0.6079 -0.9365
 2518TIP3   OH229188   2.655   5.376   8.456  0.5502 -0.6742 -0.5344
 2518TIP3    H129189   2.692   5.354   8.371 -1.0308 -0.6813 -1.2485
 2518TIP3    H229190   2.652   5.472   8.456 -0.5130 -0.6991 -0.9771
 2519TIP3   OH229191   1.885   5.898   7.283  0.0286 -0.5800 -0.1101
 2519TIP3    H129192   1.869   5.818   7.233  1.0261 -0.9801  0.2080
 2519TIP3    H229193   1.878   5.871   7.374 -0.9063 -0.0323 -0.0131
 2520TIP3   OH229194   3.190   6.988   8.299 -0.1641 -0.1582  0.3763
 2520TIP3    H129195   3.107   7.025   8.331  0.5009  1.7763 -0.0811
 2520TIP3    H229196   3.257   7.035   8.348  0.8072  1.3599 -2.3300
 2521TIP3   OH229197   1.539   7.340   8.196 -0.3040 -0.5349  0.1534
 2521TIP3    H129198   1.557   7.251   8.228  1.1687 -0.5267 -0.5826
 2521TIP3    H229199   1.616   7.362   8.143 -1.5823  0.4058 -1.3351
 2522TIP3   OH229200   0.637   7.180   5.532  0.0501 -0.0359  0.5793
 2522TIP3    H129201   0.564   7.190   5.472 -1.0370 -0.9599  1.7102
 2522TIP3    H229202   0.599   7.139   5.610  2.0000 -1.6988  0.7124
 2523TIP3   OH229203   0.335   0.079   6.862  0.3207 -0.4997 -0.0487
 2523TIP3    H129204   0.275   0.030   6.917 -2.7595  1.6037 -1.4265
 2523TIP3    H229205   0.340   0.029   6.780 -0.0673 -0.3380 -0.1714
 2524TIP3   OH229206   1.648   6.177   7.917 -0.2364 -0.2202  0.5649
 2524TIP3    H129207   1.664   6.197   7.825 -1.1879 -0.8862  0.2501
 2524TIP3    H229208   1.708   6.235   7.965 -1.3548  1.7537 -0.3837
 2525TIP3   OH229209   2.721   0.332   6.246  0.3112  0.1042 -0.2118
 2525TIP3    H129210   2.755   0.261   6.191  0.5548 -1.3773  1.7609
 2525TIP3    H229211   2.796   0.359   6.299 -0.3382  0.2526  0.6430
 2526TIP3   OH229212   1.480   5.376   6.488  0.5196 -0.1987  0.3296
 2526TIP3    H129213   1.494   5.385   6.582 -1.1711 -0.0952  0.5977
 2526TIP3    H229214   1.449   5.462   6.460  3.0723  0.4206 -0.7466
 2527TIP3   OH229215   6.798   3.751   6.926 -0.0437  0.4407  0.6023
 2527TIP3    H129216   6.754   3.708   6.852 -0.1458  1.0289  0.3131
 2527TIP3    H229217   6.875   3.698   6.942 -1.5587 -1.3984  2.0015
 2528TIP3   OH229218   2.608   0.346   8.263 -0.2947  0.0039 -1.0992
 2528TIP3    H129219   2.533   0.315   8.315 -0.6382 -0.6660 -1.9667
 2528TIP3    H229220   2.597   0.302   8.179  0.3836  0.9003 -1.6580
 2529TIP3   OH229221   2.245   5.945   6.568 -0.0507  0.2508 -0.0765
 2529TIP3    H129222   2.210   5.917   6.483  1.5171  0.2465 -0.7469
 2529TIP3    H229223   2.273   5.864   6.610  0.2890  0.3590 -0.0872
 2530TIP3   OH229224   7.324   6.976   8.138  0.2145 -1.1086 -0.6295
 2530TIP3    H129225   7.420   6.973   8.138  0.2165 -2.1667  1.5314
 2530TIP3    H229226   7.303   7.065   8.164  0.5623 -0.4313 -2.5220
 2531TIP3   OH229227   6.274   1.630   7.270 -0.1120  0.5315  0.4062
 2531TIP3    H129228   6.266   1.716   7.310 -0.0535 -0.1417  1.9385
 2531TIP3    H229229   6.241   1.570   7.337  2.1129 -0.8335  0.3138
 2532TIP3   OH229230   0.705   7.039   6.387 -0.2827 -0.0005  0.2913
 2532TIP3    H129231   0.724   7.133   6.387 -0.7474  0.0957  1.2997
 2532TIP3    H229232   0.613   7.033   6.361 -0.0602 -0.2275 -0.4674
 2533TIP3   OH229233   0.725   5.945   6.267 -0.8917 -0.0010  0.3798
 2533TIP3    H129234   0.730   5.877   6.200 -1.3470  0.8546 -0.5471
 2533TIP3    H229235   0.813   5.948   6.305 -1.0567 -1.5507  0.8911
 2534TIP3   OH229236   7.014   0.253   7.112  0.2231  0.0256  0.4050
 2534TIP3    H129237   7.074   0.240   7.038  1.8166 -0.9495  1.8155
 2534TIP3    H229238   6.937   0.293   7.074  1.0572 -0.3741 -1.7812
 2535TIP3   OH229239   0.897   7.000   8.274  0.0873 -0.1610  0.1601
 2535TIP3    H129240   0.809   6.983   8.239  0.3700  0.0057 -0.6405
 2535TIP3    H229241   0.912   7.093   8.255  0.6999 -0.3522 -0.3105
 2536TIP3   OH229242   0.794   7.232   7.477  0.2558  0.9776  0.3642
 2536TIP3    H129243   0.785   7.194   7.564 -0.6710 -0.3371 -0.3057
 2536TIP3    H229244   0.741   7.177   7.420 -1.4774  3.4997 -0.5633
 2537TIP3   OH229245   1.829   4.698   7.145 -0.4235 -0.2238 -0.4401
 2537TIP3    H129246   1.890   4.686   7.218  0.4191  0.1861 -1.0591
 2537TIP3    H229247   1.781   4.778   7.166 -1.0796 -0.8148  0.2858
 2538TIP3   OH229248   2.183   0.829   6.785 -0.6782 -0.3239 -0.0519
 2538TIP3    H129249   2.178   0.916   6.825 -0.2909  0.1074 -0.9275
 2538TIP3    H229250   2.091   0.806   6.766 -0.8238 -0.3363  0.6523
 2539TIP3   OH229251   2.627   1.708   8.134 -0.2217  0.7749 -0.1578
 2539TIP3    H129252   2.668   1.641   8.189 -0.8702 -1.5482 -2.4060
 2539TIP3    H229253   2.538   1.676   8.119 -0.5911  2.1996 -1.1527
 2540TIP3   OH229254   0.319   5.964   7.404  0.3336 -0.5840 -0.1413
 2540TIP3    H129255   0.352   6.039   7.356 -1.7335 -0.3850 -1.3246
 2540TIP3    H229256   0.252   5.926   7.346 -0.6244 -1.6675  1.6281
 2541TIP3   OH229257   1.765   0.519   8.190  0.0254 -0.1497  0.2101
 2541TIP3    H129258   1.827   0.469   8.136 -0.2186 -1.8335  1.4365
 2541TIP3    H229259   1.820   0.575   8.245  0.3630  0.0663 -0.3523
 2542TIP3   OH229260   0.253   7.215   7.052 -0.6718  0.3668  0.1097
 2542TIP3    H129261   0.188   7.179   7.113  0.7203 -1.5511  0.5320
 2542TIP3    H229262   0.278   7.141   6.997  0.4960  1.2796 -0.6272
 2543TIP3   OH229263   3.145   0.283   7.576 -0.2135  0.6983  0.3911
 2543TIP3    H129264   3.160   0.188   7.571 -0.4431  0.6521  0.5718
 2543TIP3    H229265   3.078   0.293   7.644 -1.9285  0.8004 -1.2808
 2544TIP3   OH229266   0.340   7.275   6.598 -0.0371 -0.0081  0.1684
 2544TIP3    H129267   0.279   7.214   6.555  0.7499  0.1198 -1.1431
 2544TIP3    H229268   0.371   7.332   6.528  0.6286  0.7471  1.0655
 2545TIP3   OH229269   0.842   5.555   6.724  0.2612 -0.5979  0.2464
 2545TIP3    H129270   0.879   5.642   6.737  0.9345 -0.6617 -1.1715
 2545TIP3    H229271   0.768   5.551   6.784  0.0498  1.0564  0.1149
 2546TIP3   OH229272   1.348   4.643   6.556  0.3200 -0.3898  0.2669
 2546TIP3    H129273   1.343   4.662   6.649 -1.1219  0.0756  0.1085
 2546TIP3    H229274   1.259   4.659   6.523  0.3928 -2.1641 -0.8744
 2547TIP3   OH229275   6.077   6.068   8.230  0.0300  0.1303 -0.6539
 2547TIP3    H129276   6.146   6.100   8.287  0.3118 -0.7414 -0.4900
 2547TIP3    H229277   6.095   5.974   8.221 -1.3707 -0.1880 -0.2657
 2548TIP3   OH229278   0.975   0.128   7.544 -0.2473  0.4194 -0.3572
 2548TIP3    H129279   0.904   0.144   7.607  0.3853 -2.4351  1.1356
 2548TIP3    H229280   0.971   0.034   7.527  1.3346  0.7176 -2.5127
 2549TIP3   OH229281   3.533   6.221   0.950  0.1637 -0.0330  0.2217
 2549TIP3    H129282   3.503   6.299   0.996 -1.5455  1.3257 -3.0229
 2549TIP3    H229283   3.472   6.211   0.877 -0.3185 -5.0137  1.0747
 2550TIP3   OH229284   2.400   1.901   0.743 -0.0870  0.0708 -0.3405
 2550TIP3    H129285   2.391   1.862   0.656  0.2618 -0.9253  0.0674
 2550TIP3    H229286   2.329   1.862   0.794 -0.1448  0.4793 -0.1062
 2551TIP3   OH229287   1.592   7.154   7.147  0.0233 -0.1909  0.0835
 2551TIP3    H129288   1.591   7.250   7.148  0.7576 -0.1862  1.6863
 2551TIP3    H229289   1.676   7.131   7.187  1.0652 -1.4942 -2.7624
 2552TIP3   OH229290   0.808   6.523   7.072 -0.1112  0.8413 -0.3775
 2552TIP3    H129291   0.824   6.593   7.009  0.7685  1.0158  0.0332
 2552TIP3    H229292   0.713   6.509   7.069 -0.1249  1.1195 -1.4451
 2553TIP3   OH229293   0.574   5.682   7.243  0.0802 -0.3731 -0.6166
 2553TIP3    H129294   0.486   5.678   7.206  0.0005 -2.1336 -0.2969
 2553TIP3    H229295   0.628   5.719   7.173 -0.8524  0.4308 -0.9170
 2554TIP3   OH229296   3.618   1.753   7.755 -0.3354 -0.1815 -0.9121
 2554TIP3    H129297   3.633   1.728   7.847  2.8931 -2.5499 -1.9911
 2554TIP3    H229298   3.605   1.847   7.758  1.3446  0.0376  1.8562
 2555TIP3   OH229299   6.980   6.129   6.080 -0.1444  0.3220  0.3175
 2555TIP3    H129300   6.953   6.196   6.144 -1.3531  1.3448 -1.2289
 2555TIP3    H229301   6.934   6.050   6.109 -0.3919  0.6844  0.9426
 2556TIP3   OH229302   3.507   0.746   7.973 -0.5260  0.2768  0.0965
 2556TIP3    H129303   3.531   0.664   8.015 -0.9725  0.0973 -0.0013
 2556TIP3    H229304   3.431   0.777   8.023 -1.3646 -0.1828 -0.8866
 2557TIP3   OH229305   1.043   6.696   7.144  0.2756 -0.5253  0.2654
 2557TIP3    H129306   1.014   6.656   7.062 -0.3144 -0.3565  0.3899
 2557TIP3    H229307   1.015   6.787   7.138  1.7316 -0.0969 -0.0693
 2558TIP3   OH229308   3.588   5.934   8.351 -0.0965 -0.1126  0.6245
 2558TIP3    H129309   3.586   5.890   8.267  1.7240 -0.1782  0.5976
 2558TIP3    H229310   3.556   6.023   8.333 -0.0842 -0.2460 -0.0415
 2559TIP3   OH229311   7.007   6.038   1.260  0.4985 -0.2414 -0.2722
 2559TIP3    H129312   6.921   6.036   1.219  0.6642  0.6134 -0.6680
 2559TIP3    H229313   7.042   6.125   1.240  0.9625 -0.1409  0.9025
 2560TIP3   OH229314   2.744   6.385   6.415  0.0475 -0.6249 -0.3834
 2560TIP3    H129315   2.830   6.360   6.381 -0.0247  0.8600 -1.7185
 2560TIP3    H229316   2.710   6.448   6.351  0.0087  2.4776  2.5687
 2561TIP3   OH229317   5.436   7.140   6.763  0.0329 -0.0597  0.5814
 2561TIP3    H129318   5.476   7.169   6.681  0.4589 -3.0566 -0.3168
 2561TIP3    H229319   5.342   7.146   6.748  0.1097 -1.0886 -0.2999
 2562TIP3   OH229320   0.841   0.004   5.701 -0.2451 -0.3265  0.1667
 2562TIP3    H129321   0.858  -0.073   5.756 -0.4571 -0.9708 -0.6569
 2562TIP3    H229322   0.842  -0.030   5.611  1.0696  0.8876 -0.2931
 2563TIP3   OH229323   7.166   7.277   6.205 -0.1390  1.1065  0.7429
 2563TIP3    H129324   7.233   7.296   6.271 -0.1770 -0.9216  1.3913
 2563TIP3    H229325   7.206   7.210   6.149 -1.3228  0.4483  0.6690
 2564TIP3   OH229326   0.779   6.442   0.926  0.0436  0.4973  0.1431
 2564TIP3    H129327   0.692   6.480   0.915 -0.3084  0.5567  2.8505
 2564TIP3    H229328   0.766   6.347   0.915 -0.5936  0.3926  1.6999
 2565TIP3   OH229329   0.985   6.448   7.428 -0.1042  0.4809 -0.0698
 2565TIP3    H129330   1.037   6.413   7.500 -0.5182 -1.2189 -0.5704
 2565TIP3    H229331   1.008   6.541   7.424 -0.0515  0.5868  2.2204
 2566TIP3   OH229332   1.493   6.664   6.104 -0.4529 -0.1153 -0.7769
 2566TIP3    H129333   1.414   6.665   6.051 -0.6067 -1.0826 -0.5701
 2566TIP3    H229334   1.520   6.756   6.109 -0.9266  0.0851 -1.7894
 2567TIP3   OH229335   2.065   7.103   7.443  0.9195 -0.0833  0.2731
 2567TIP3    H129336   2.087   7.047   7.368  5.0703 -0.2909  1.5021
 2567TIP3    H229337   2.127   7.076   7.511  0.0264  2.9615  2.3890
 2568TIP3   OH229338   2.236   6.641   7.855 -0.0140  0.0718  0.0435
 2568TIP3    H129339   2.278   6.566   7.898  1.1832  1.4579  1.3382
 2568TIP3    H229340   2.217   6.610   7.766 -0.6735 -2.1661  0.9243
 2569TIP3   OH229341   2.095   4.924   0.602 -0.2528 -0.5438 -0.4851
 2569TIP3    H129342   2.158   4.992   0.575 -0.4533  0.6063  1.8138
 2569TIP3    H229343   2.141   4.842   0.588  1.4762  0.2489  0.3568
 2570TIP3   OH229344   1.601   6.771   6.606  0.1710  0.4037 -0.5593
 2570TIP3    H129345   1.641   6.842   6.555  0.4130  0.6144 -0.0793
 2570TIP3    H229346   1.508   6.776   6.585  0.0351  1.5350  0.2960
 2571TIP3   OH229347   0.620   5.039   5.958 -0.2108  0.2928 -0.4171
 2571TIP3    H129348   0.607   5.078   6.044 -1.3300 -0.3415 -0.2852
 2571TIP3    H229349   0.558   5.085   5.900  0.8278  1.0015 -0.9731
 2572TIP3   OH229350   1.332   6.884   8.448 -0.0056  0.2150  0.4877
 2572TIP3    H129351   1.340   6.970   8.490 -0.1962  0.3516  0.2507
 2572TIP3    H229352   1.245   6.854   8.471 -0.2308  0.4293 -0.0556
 2573TIP3   OH229353   2.476   5.972   7.868 -0.0862 -0.0423 -0.3973
 2573TIP3    H129354   2.545   6.005   7.926 -2.5996  2.7545  1.1279
 2573TIP3    H229355   2.499   6.005   7.782 -0.2198  1.9971  0.3373
 2574TIP3   OH229356   6.889   6.346   6.251 -0.1680 -0.3684  0.0894
 2574TIP3    H129357   6.815   6.405   6.257  0.8052  0.8376  0.5145
 2574TIP3    H229358   6.866   6.271   6.306 -0.4436  0.6729  1.4039
 2575TIP3   OH229359   7.273   6.419   6.554  0.5158  0.3258  0.3164
 2575TIP3    H129360   7.348   6.478   6.558  0.2627  0.6103  0.8109
 2575TIP3    H229361   7.312   6.332   6.545  0.8881  0.5551 -0.3631
 2576TIP3   OH229362   1.276   0.790   7.698 -0.6505 -0.0973  0.0039
 2576TIP3    H129363   1.331   0.816   7.624  1.1824 -3.1370  0.2038
 2576TIP3    H229364   1.263   0.870   7.747  0.8055  1.3594 -1.8910
 2577TIP3   OH229365   2.675   0.641   7.654  0.6893 -0.2359  0.8997
 2577TIP3    H129366   2.702   0.565   7.603  0.5042 -0.3159  0.9188
 2577TIP3    H229367   2.580   0.645   7.641  1.0103  1.5155 -1.1962
 2578TIP3   OH229368   7.211   6.194   5.959  0.2813 -0.3102  0.0537
 2578TIP3    H129369   7.172   6.108   5.942 -0.4173 -0.1518  0.8002
 2578TIP3    H229370   7.141   6.243   6.002  0.4149  0.9042 -1.0898
 2579TIP3   OH229371   4.915   7.224   8.295 -0.1695  0.0112 -0.1830
 2579TIP3    H129372   4.872   7.221   8.380 -0.1693  1.0065 -0.1409
 2579TIP3    H229373   4.984   7.290   8.305 -1.1673  1.2825 -1.4011
 2580TIP3   OH229374   0.532   7.085   5.769  0.3305 -0.0434  0.2993
 2580TIP3    H129375   0.587   7.014   5.802 -0.8338 -0.8106  0.6041
 2580TIP3    H229376   0.487   7.118   5.846 -0.0128  0.2518 -0.0285
 2581TIP3   OH229377   0.210   6.450   7.080 -0.0034  0.1526 -0.3943
 2581TIP3    H129378   0.136   6.494   7.122 -0.5940 -1.2750  0.0848
 2581TIP3    H229379   0.287   6.484   7.126 -0.4188  1.0338 -0.3440
 2582TIP3   OH229380   6.278   5.050   6.983  0.6962  0.0462 -0.8182
 2582TIP3    H129381   6.359   5.038   6.933  0.9501 -0.1969 -0.3459
 2582TIP3    H229382   6.229   5.115   6.933  1.5337  0.7873 -0.6778
 2583TIP3   OH229383   2.665   6.517   7.383  0.2108  0.4156 -0.7794
 2583TIP3    H129384   2.709   6.512   7.298  0.1687  2.2967 -0.9307
 2583TIP3    H229385   2.573   6.503   7.363 -0.2126  3.7408 -1.5027
 2584TIP3   OH229386   1.972   7.289   7.779  0.0602  0.3472 -0.0028
 2584TIP3    H129387   1.915   7.240   7.719 -0.6650  0.5351  0.5331
 2584TIP3    H229388   1.936   7.378   7.779 -0.3591  0.1863  1.2421
 2585TIP3   OH229389   0.431   0.137   6.426 -0.5659 -0.0599 -0.0532
 2585TIP3    H129390   0.355   0.148   6.368 -0.3101 -0.6584 -0.5136
 2585TIP3    H229391   0.505   0.127   6.366 -0.1840  0.1073  0.3905
 2586TIP3   OH229392   0.512   7.199   7.491  0.5429 -0.3379  0.2669
 2586TIP3    H129393   0.447   7.267   7.507  0.5007 -0.3355  0.0916
 2586TIP3    H229394   0.521   7.154   7.575  0.0915 -0.5321  0.2148
 2587TIP3   OH229395   3.599   6.081   6.949 -0.4227  0.1457 -0.1021
 2587TIP3    H129396   3.531   6.014   6.954 -0.3650  0.0161 -1.0586
 2587TIP3    H229397   3.575   6.145   7.017  0.3861 -1.6204  1.9106
 2588TIP3   OH229398   1.322   6.676   6.576 -0.0201  0.3584  0.6240
 2588TIP3    H129399   1.257   6.746   6.565 -1.9270 -1.4814 -0.0234
 2588TIP3    H229400   1.314   6.622   6.498  2.0191 -0.1529  0.7306
 2589TIP3   OH229401   0.106   4.958   1.248 -0.3197  0.0989 -0.4592
 2589TIP3    H129402   0.147   5.042   1.231 -0.3806  0.3993  0.8427
 2589TIP3    H229403   0.083   4.960   1.341 -1.2680 -0.9364 -0.6507
 2590TIP3   OH229404   6.568   7.333   0.687  0.4841  0.3704  0.0908
 2590TIP3    H129405   6.542   7.407   0.633  1.0705  1.5419  1.4027
 2590TIP3    H229406   6.507   7.263   0.663  0.3547  1.0579 -1.6422
 2591TIP3   OH229407   6.372   5.716   7.366  0.2710 -0.1826 -0.1661
 2591TIP3    H129408   6.338   5.741   7.281 -0.2466 -0.3839 -0.0231
 2591TIP3    H229409   6.453   5.767   7.376 -0.6858  1.3243  0.0618
 2592TIP3   OH229410   2.162   5.550   7.230 -0.6752 -0.6690 -0.3563
 2592TIP3    H129411   2.075   5.536   7.193 -1.1919  0.8571  0.2232
 2592TIP3    H229412   2.161   5.641   7.259  0.6506 -1.0375  0.9085
 2593TIP3   OH229413   6.314   5.368   6.746  0.2552 -0.2976 -0.2221
 2593TIP3    H129414   6.302   5.405   6.658  2.7071  0.8698 -0.0913
 2593TIP3    H229415   6.348   5.280   6.730 -0.2708 -0.4672 -0.4392
 2594TIP3   OH229416   7.005   6.710   8.190  0.3825 -0.1010 -0.4248
 2594TIP3    H129417   6.978   6.727   8.099  0.0756  0.0173 -0.3111
 2594TIP3    H229418   7.097   6.686   8.183 -0.2780 -2.5718 -1.0234
 2595TIP3   OH229419   0.346   4.815   0.005 -0.5041  0.5219 -0.7154
 2595TIP3    H129420   0.429   4.775  -0.022 -0.7179 -0.1772 -0.3679
 2595TIP3    H229421   0.284   4.742   0.005 -1.2977  1.1892 -1.7249
 2596TIP3   OH229422   3.545   5.535   6.403 -0.2612  0.2382  0.0220
 2596TIP3    H129423   3.472   5.474   6.411 -0.6695  0.8438  1.0194
 2596TIP3    H229424   3.623   5.481   6.413 -0.6115 -0.1691  0.5512
 2597TIP3   OH229425   2.633   6.090   0.910 -0.0286 -0.5168  0.0449
 2597TIP3    H129426   2.606   6.171   0.868 -0.0234 -0.0930  0.8525
 2597TIP3    H229427   2.561   6.029   0.892 -0.2149 -0.2177 -0.2266
 2598TIP3   OH229428   1.391   6.922   8.059 -0.1459 -0.1132 -0.6321
 2598TIP3    H129429   1.438   6.846   8.096 -0.2399  0.7189  1.2134
 2598TIP3    H229430   1.303   6.916   8.094  0.3626  1.9021  1.0660
 2599TIP3   OH229431   5.575   5.427   7.685 -0.4152 -0.5476 -0.2324
 2599TIP3    H129432   5.536   5.348   7.721 -0.0685 -0.9146 -0.6490
 2599TIP3    H229433   5.635   5.395   7.617  1.0385 -0.0494  0.7804
 2600TIP3   OH229434   6.588   5.234   1.797 -0.2263  0.6568 -0.6320
 2600TIP3    H129435   6.682   5.253   1.793 -0.2247  0.3632 -2.3149
 2600TIP3    H229436   6.563   5.220   1.706 -1.4519 -1.5178  0.0060
 2601TIP3   OH229437   0.496   7.203   6.045 -0.2439 -0.5758 -0.1814
 2601TIP3    H129438   0.571   7.261   6.062  0.0690 -1.2229  0.7052
 2601TIP3    H229439   0.535   7.119   6.021 -0.6953 -0.5172 -1.1370
 2602TIP3   OH229440   6.673   5.259   7.323 -0.1352  0.2544 -0.0002
 2602TIP3    H129441   6.738   5.223   7.263  0.5229 -1.8515  1.9090
 2602TIP3    H229442   6.595   5.271   7.270  0.6979 -0.7244 -1.4810
 2603TIP3   OH229443   3.045   6.138   7.427 -0.9166  0.3232 -0.1908
 2603TIP3    H129444   3.119   6.194   7.407  0.1670 -1.2073 -0.5561
 2603TIP3    H229445   3.079   6.049   7.417 -2.5146 -0.3992  0.6695
 2604TIP3   OH229446   1.824   7.089   7.274 -0.2432  0.2408 -0.1261
 2604TIP3    H129447   1.911   7.098   7.313 -0.4375 -2.3875  1.0094
 2604TIP3    H229448   1.837   7.025   7.203 -0.8260  1.4801 -1.3632
 2605TIP3   OH229449   1.705   6.282   0.057  0.3264  0.3145  0.7272
 2605TIP3    H129450   1.711   6.263   0.150 -3.0890 -1.2349  0.7190
 2605TIP3    H229451   1.758   6.213   0.015  2.0820  1.1737  1.4812
 2606TIP3   OH229452   2.158   6.853   7.398 -0.2110 -0.2222  0.0326
 2606TIP3    H129453   2.228   6.791   7.377  0.1329 -0.0789  0.7354
 2606TIP3    H229454   2.168   6.869   7.492  0.4196  1.7579 -0.3443
 2607TIP3   OH229455   1.323   6.599   7.952 -0.6518  0.6708 -0.0265
 2607TIP3    H129456   1.332   6.660   7.879  1.0179 -1.6933 -1.8763
 2607TIP3    H229457   1.303   6.515   7.911  2.1366 -1.1101  2.0872
 2608TIP3   OH229458   3.019   5.635   6.609 -0.9137  0.1335 -0.1493
 2608TIP3    H129459   2.969   5.563   6.646  2.0559 -1.4211  0.9916
 2608TIP3    H229460   3.024   5.615   6.515  2.9804 -3.2570  0.6238
 2609TIP3   OH229461   2.232   5.272   6.899 -0.0616  0.4817  0.2725
 2609TIP3    H129462   2.172   5.345   6.883  0.5804  1.1216  0.7243
 2609TIP3    H229463   2.196   5.199   6.848  0.5149  1.7347 -1.9883
 2610TIP3   OH229464   1.144   6.463   6.256  0.0115 -0.4597  0.1371
 2610TIP3    H129465   1.121   6.523   6.326  0.4152 -0.2747  0.1156
 2610TIP3    H229466   1.147   6.517   6.177  3.0410  0.0637  0.5395
 2611TIP3   OH229467   6.973   6.276   8.104 -0.4270  0.1393  0.5845
 2611TIP3    H129468   7.046   6.297   8.163 -0.3381 -0.3392  0.6488
 2611TIP3    H229469   6.984   6.182   8.085 -1.1445  0.0191  0.7599
 2612TIP3   OH229470   1.043   4.676   7.160  0.3735 -0.0394 -0.0671
 2612TIP3    H129471   1.006   4.722   7.085 -1.4848  1.3035  1.6429
 2612TIP3    H229472   1.070   4.745   7.220 -3.1732 -1.0695  2.8919
 2613TIP3   OH229473   1.643   0.222   6.605 -0.1165  0.3452 -0.3929
 2613TIP3    H129474   1.670   0.306   6.643  0.5148  0.5914 -1.3796
 2613TIP3    H229475   1.561   0.242   6.560 -1.1512 -0.0649  1.2845
 2614TIP3   OH229476   0.335   7.309   7.868 -0.0176 -0.5088 -0.7994
 2614TIP3    H129477   0.404   7.263   7.821  1.0036  0.5046 -0.3204
 2614TIP3    H229478   0.324   7.261   7.949 -1.8964 -2.3603 -2.1075
 2615TIP3   OH229479   3.930   6.794   7.900 -0.2924 -0.4793 -0.2143
 2615TIP3    H129480   3.878   6.861   7.944 -0.6720 -1.3045  0.6196
 2615TIP3    H229481   4.021   6.822   7.911 -0.2779 -1.4504  2.4452
 2616TIP3   OH229482   2.079   6.274   0.193 -0.3569 -0.0898 -0.2702
 2616TIP3    H129483   2.143   6.255   0.124 -0.0604  0.4666 -0.1498
 2616TIP3    H229484   2.075   6.370   0.196 -0.8004 -0.1210  0.0881
 2617TIP3   OH229485   6.256   5.022   7.262  0.2287 -0.6326 -0.1584
 2617TIP3    H129486   6.235   5.003   7.170  0.6999  0.9850 -0.6295
 2617TIP3    H229487   6.257   4.937   7.305  1.5746 -1.5807 -2.0056
 2618TIP3   OH229488   2.499   1.987   1.609  0.1514 -0.0645 -0.1375
 2618TIP3    H129489   2.425   1.974   1.549  0.0865 -0.8460  0.1122
 2618TIP3    H229490   2.566   1.925   1.578  0.9137  1.0089 -0.6958
 2619TIP3   OH229491   1.637   4.878   7.004  0.5430  0.4125  0.3179
 2619TIP3    H129492   1.598   4.850   6.922 -0.0036  0.3340  0.6034
 2619TIP3    H229493   1.731   4.881   6.986  0.7888 -3.2511  0.7451
 2620TIP3   OH229494   7.180   5.544   6.590  0.3061  0.0367  0.1116
 2620TIP3    H129495   7.094   5.579   6.564  0.4710  1.5170  1.4923
 2620TIP3    H229496   7.193   5.469   6.532 -0.6702  1.4338 -2.0119
 2621TIP3   OH229497   6.938   0.664   7.531  0.0661  0.1133  0.6499
 2621TIP3    H129498   6.954   0.754   7.503 -2.1859  0.8131  1.4663
 2621TIP3    H229499   6.934   0.614   7.450  1.6171  0.7042  0.2003
 2622TIP3   OH229500   1.277   6.424   8.271  0.5287 -0.2316  0.2797
 2622TIP3    H129501   1.321   6.388   8.347 -0.4436 -0.3611  0.7918
 2622TIP3    H229502   1.336   6.406   8.198  1.0178 -0.9765  0.8520
 2623TIP3   OH229503   0.217   0.176   7.156 -0.1083 -0.1656  0.0491
 2623TIP3    H129504   0.292   0.133   7.115  0.2236 -0.4498  0.9293
 2623TIP3    H229505   0.255   0.252   7.200 -0.1968 -0.8056  1.2470
 2624TIP3   OH229506   6.204   6.801   5.756  0.3752  0.5687 -0.1602
 2624TIP3    H129507   6.194   6.797   5.851  0.1207 -1.1081 -0.2395
 2624TIP3    H229508   6.294   6.773   5.740  0.1973  0.1612 -0.4537
 2625TIP3   OH229509   0.620   5.386   7.320  0.2537 -0.5464 -0.2827
 2625TIP3    H129510   0.570   5.461   7.353  2.2988  1.3267 -1.2835
 2625TIP3    H229511   0.630   5.403   7.226  1.3721 -1.6814 -0.3826
 2626TIP3   OH229512   5.365   6.569   7.100 -0.6914  0.3379  0.7084
 2626TIP3    H129513   5.415   6.510   7.156 -1.6728 -1.0045  0.1856
 2626TIP3    H229514   5.432   6.626   7.061  0.3256 -0.7628  0.8122
 2627TIP3   OH229515   1.659   6.712   8.020  0.1451 -0.1285 -0.1445
 2627TIP3    H129516   1.636   6.784   7.962 -1.4101  0.3274  1.0176
 2627TIP3    H229517   1.585   6.704   8.080  0.8381 -1.8959  0.5209
 2628TIP3   OH229518   0.119   5.362   7.259  0.3353 -0.0388 -0.0197
 2628TIP3    H129519   0.123   5.268   7.274 -1.7597 -0.1029  0.2819
 2628TIP3    H229520   0.137   5.372   7.165 -1.3748 -0.9202 -0.4588
 2629TIP3   OH229521   7.015   0.103   7.771 -0.3459  0.4917  0.3867
 2629TIP3    H129522   6.984   0.039   7.835  0.6973 -1.5799 -1.1139
 2629TIP3    H229523   6.940   0.161   7.756 -0.5907  1.0548  3.4798
 2630TIP3   OH229524   2.057   0.024   8.349  0.2168  0.1001 -0.2476
 2630TIP3    H129525   2.046   0.088   8.279 -0.9155  0.5376  0.3184
 2630TIP3    H229526   1.981  -0.034   8.342 -0.7774  1.1171  1.5965
 2631TIP3   OH229527   1.980   6.351   7.558 -0.1017  0.3105 -0.0575
 2631TIP3    H129528   1.912   6.283   7.551  2.4582 -2.2931 -0.6720
 2631TIP3    H229529   1.997   6.376   7.468  0.7270 -0.0701 -0.0083
 2632TIP3   OH229530   0.301   7.224   8.429 -0.1512 -1.0265  0.2016
 2632TIP3    H129531   0.213   7.214   8.393 -0.7547  0.6687  1.1410
 2632TIP3    H229532   0.295   7.191   8.518  0.2437 -1.1409  0.1894
 2633TIP3   OH229533   1.201   6.288   6.605  0.1354  0.6116 -0.3746
 2633TIP3    H129534   1.118   6.326   6.575 -0.1929 -0.4680 -0.8563
 2633TIP3    H229535   1.241   6.357   6.658  0.3322  2.2545 -2.5917
 2634TIP3   OH229536   0.985   6.521   0.045  0.1099  0.0797 -0.6053
 2634TIP3    H129537   0.926   6.475  -0.016  0.2491 -1.1462  0.1675
 2634TIP3    H229538   1.061   6.544  -0.008  0.2133 -0.9450 -0.9094
 2635TIP3   OH229539   6.648   6.568   6.248  0.6966  0.1181  0.3835
 2635TIP3    H129540   6.672   6.650   6.206  1.2749  0.0986  0.6738
 2635TIP3    H229541   6.580   6.531   6.191  0.2489  0.9116  0.3927
 2636TIP3   OH229542   3.171   3.902   7.173 -0.0817 -0.1315  0.3852
 2636TIP3    H129543   3.098   3.860   7.126  0.2585  1.4503 -1.6258
 2636TIP3    H229544   3.243   3.903   7.110  0.1508  2.7394  0.6359
 2637TIP3   OH229545   1.153   0.023   6.759 -0.0002 -0.2935 -0.3793
 2637TIP3    H129546   1.201   0.032   6.841  1.7849 -0.3808 -1.3866
 2637TIP3    H229547   1.158   0.110   6.719 -0.8145 -0.2651 -0.4223
 2638TIP3   OH229548   1.403   6.788   6.841 -0.2724  0.5338 -0.0324
 2638TIP3    H129549   1.413   6.849   6.768  0.7136  2.4225  1.6128
 2638TIP3    H229550   1.492   6.779   6.877 -0.7449 -0.3089  0.9562
 2639TIP3   OH229551   0.589   0.113   5.835  0.4599 -0.8274 -0.6343
 2639TIP3    H129552   0.632   0.122   5.920 -0.5915 -0.3501 -0.1443
 2639TIP3    H229553   0.650   0.060   5.783  2.9071  2.0202 -0.8276
 2640TIP3   OH229554   1.303   6.116   6.401  0.2032 -0.1172 -0.0026
 2640TIP3    H129555   1.252   6.152   6.328 -0.8975 -0.2823  0.6777
 2640TIP3    H229556   1.257   6.146   6.479  0.5928 -1.1010  0.6015
 2641TIP3   OH229557   0.048   5.837   0.803 -0.3834  0.5535  0.2774
 2641TIP3    H129558   0.015   5.911   0.853  0.3122  1.6949 -0.9326
 2641TIP3    H229559   0.100   5.876   0.733  1.3929 -1.1388  0.6237
 2642TIP3   OH229560   6.187   5.135   0.792 -0.4519  0.2394 -0.2309
 2642TIP3    H129561   6.222   5.070   0.853 -0.5478  1.3019  0.9805
 2642TIP3    H229562   6.133   5.084   0.731 -0.2632 -0.8550  0.4984
 2643TIP3   OH229563   1.711   5.204   0.272  0.1684 -0.1494 -0.1262
 2643TIP3    H129564   1.713   5.299   0.289 -1.6230 -0.0974 -0.0852
 2643TIP3    H229565   1.747   5.165   0.351  1.2927  0.5101 -0.2971
 2644TIP3   OH229566   1.232   5.121   0.842 -0.3474  0.7293 -0.5235
 2644TIP3    H129567   1.271   5.198   0.883  0.2193 -0.4201  1.1419
 2644TIP3    H229568   1.305   5.079   0.796 -0.1848  0.0484  0.3391
 2645TIP3   OH229569   3.617   1.116   7.448 -0.2163 -0.0714 -0.3984
 2645TIP3    H129570   3.640   1.077   7.363 -0.2175 -1.8443  0.3978
 2645TIP3    H229571   3.555   1.185   7.426 -0.9954 -1.1751 -1.7629
 2646TIP3   OH229572   2.518   5.166   8.237 -0.3355  0.3343  0.1934
 2646TIP3    H129573   2.515   5.138   8.146 -1.1376  1.2109 -0.0648
 2646TIP3    H229574   2.443   5.225   8.246 -0.0951  0.4740  1.3433
 2647TIP3   OH229575   2.673   6.101   7.063 -0.5976 -0.0897  0.4408
 2647TIP3    H129576   2.699   6.139   7.147 -1.0883 -1.3158  1.1594
 2647TIP3    H229577   2.754   6.101   7.011  0.4206 -1.9584  1.9418
 2648TIP3   OH229578   3.536   0.959   7.659  0.0440  0.0874  0.0529
 2648TIP3    H129579   3.457   0.935   7.611  1.5772 -1.6286 -1.6395
 2648TIP3    H229580   3.593   0.998   7.594  0.9398  0.5940  1.1205
 2649TIP3   OH229581   1.723   6.384   6.662 -0.1060  0.4811  0.4374
 2649TIP3    H129582   1.811   6.357   6.689  0.9439  2.0186 -1.3402
 2649TIP3    H229583   1.670   6.305   6.673  1.5434 -0.5424  1.2913
 2650TIP3   OH229584   2.538   5.206   6.855  0.0368  0.5126 -0.2681
 2650TIP3    H129585   2.560   5.255   6.934 -1.6676 -0.3267  0.7525
 2650TIP3    H229586   2.468   5.257   6.814 -0.1576  0.1368 -0.4068
 2651TIP3   OH229587   2.177   7.089   7.167 -0.5114  0.8093  0.0614
 2651TIP3    H129588   2.259   7.051   7.197 -0.6918 -0.4215 -0.9515
 2651TIP3    H229589   2.170   7.173   7.213  1.1112  0.7393  0.4434
 2652TIP3   OH229590   3.932   6.032   7.603 -0.1227  0.2098  0.1419
 2652TIP3    H129591   3.860   6.095   7.594 -0.8843 -0.7161 -0.4022
 2652TIP3    H229592   3.964   6.045   7.692 -0.4622  1.1676  0.1297
 2653TIP3   OH229593   2.425   5.485   6.833  0.0480 -0.2401  0.5098
 2653TIP3    H129594   2.382   5.456   6.752 -0.6714  0.7827  0.5278
 2653TIP3    H229595   2.386   5.431   6.901 -1.9195  1.3157  0.6624
 2654TIP3   OH229596   3.472   0.443   6.802  0.0071  0.5781  0.2808
 2654TIP3    H129597   3.460   0.374   6.867 -2.2589  1.9185  1.3743
 2654TIP3    H229598   3.540   0.410   6.743 -1.2709 -2.7182  0.5499
 2655TIP3   OH229599   2.472   4.528   7.501 -0.0253 -0.2153 -0.2660
 2655TIP3    H129600   2.382   4.498   7.514  0.2108 -0.0935  1.9112
 2655TIP3    H229601   2.506   4.541   7.590  1.9220  0.4006 -1.0660
 2656TIP3   OH229602   4.008   5.668   0.190 -0.2623 -0.1191  0.3568
 2656TIP3    H129603   4.031   5.760   0.203  0.5001 -0.2935  0.2570
 2656TIP3    H229604   3.956   5.646   0.268  1.7315 -0.3143  1.6649
 2657TIP3   OH229605   2.244   7.167   8.223  0.2215  0.3259  0.8805
 2657TIP3    H129606   2.213   7.087   8.265  1.7895  0.0233  1.4883
 2657TIP3    H229607   2.200   7.238   8.270  0.1122 -0.1137  1.4437
 2658TIP3   OH229608   2.204   6.134   7.895  0.0021 -0.1345 -0.6010
 2658TIP3    H129609   2.163   6.062   7.846 -0.0609 -1.0509  0.7809
 2658TIP3    H229610   2.298   6.124   7.879  0.0714 -1.1245  0.3717
 2659TIP3   OH229611   3.204   5.501   7.462  0.0424 -0.3115  0.4855
 2659TIP3    H129612   3.274   5.436   7.462 -0.2272 -0.6070 -0.4612
 2659TIP3    H229613   3.139   5.466   7.401 -1.0392 -0.1538  1.5370
 2660TIP3   OH229614   0.633   6.466   6.452 -0.2037  0.2045  0.3423
 2660TIP3    H129615   0.565   6.423   6.505 -0.4119  0.6517  0.4405
 2660TIP3    H229616   0.628   6.421   6.367 -1.5205  1.0878 -0.0808
 2661TIP3   OH229617   3.363   0.302   6.428 -0.1938 -0.0148  0.1563
 2661TIP3    H129618   3.448   0.260   6.432 -0.0232  0.4588  1.5696
 2661TIP3    H229619   3.382   0.394   6.410 -0.4840 -0.1572 -0.9655
 2662TIP3   OH229620   1.621   5.103   7.699  0.4712 -0.0090 -0.0835
 2662TIP3    H129621   1.529   5.131   7.698  1.0719  2.1664  1.7586
 2662TIP3    H229622   1.619   5.013   7.666 -2.3187  0.0264 -0.1147
 2663TIP3   OH229623   2.252   6.406   7.687 -0.6884  0.2496  0.0703
 2663TIP3    H129624   2.194   6.341   7.647  0.4828 -0.8008  0.0429
 2663TIP3    H229625   2.314   6.428   7.617 -1.0482  1.3641  0.0966
 2664TIP3   OH229626   3.382   5.108   6.476  0.2934 -0.4304  0.4733
 2664TIP3    H129627   3.467   5.141   6.447  0.4826 -0.4317  1.0185
 2664TIP3    H229628   3.383   5.015   6.453  0.4533 -0.4365  0.5043
 2665TIP3   OH229629   2.889   6.138   6.896  0.3226  0.0873 -0.2744
 2665TIP3    H129630   2.957   6.205   6.889  1.3078 -0.9621 -0.9266
 2665TIP3    H229631   2.839   6.145   6.816  0.9492 -0.4988 -0.7266
 2666TIP3   OH229632   4.713   1.703   7.933  0.2942 -1.0603 -0.7278
 2666TIP3    H129633   4.740   1.667   8.017  0.3749  2.6647  0.9702
 2666TIP3    H229634   4.790   1.693   7.876  1.1834 -1.1614  0.4744
 2667TIP3   OH229635   1.004   4.411   0.119 -0.4068  0.0708 -0.3195
 2667TIP3    H129636   1.067   4.481   0.099  2.9069 -2.9876 -0.9793
 2667TIP3    H229637   1.000   4.409   0.214 -0.6680  1.2554 -0.2962
 2668TIP3   OH229638   4.112   6.072   7.182  0.0527  0.7119 -0.3739
 2668TIP3    H129639   4.051   6.145   7.170  0.7620  1.3720 -0.0268
 2668TIP3    H229640   4.145   6.083   7.271 -0.4836 -0.5410 -0.0079
 2669TIP3   OH229641   3.322   0.659   7.375  0.6202 -0.7311  0.1320
 2669TIP3    H129642   3.281   0.731   7.424 -1.9567 -1.7245 -0.4607
 2669TIP3    H229643   3.366   0.606   7.442 -1.3350 -1.0857  1.1783
 2670TIP3   OH229644   2.479   7.046   6.625  1.0634  0.6430  0.3614
 2670TIP3    H129645   2.570   7.021   6.640  1.3753  1.6351  0.1079
 2670TIP3    H229646   2.460   7.111   6.693  0.4343  0.1875  0.6322
 2671TIP3   OH229647   2.349   0.499   8.000 -0.2996  0.7959  0.4856
 2671TIP3    H129648   2.310   0.530   7.918 -2.1380  0.0753  1.0662
 2671TIP3    H229649   2.376   0.409   7.982  1.3804  1.3602  0.0189
 2672TIP3   OH229650   4.403   5.703   6.999  0.0260  0.7452 -0.1813
 2672TIP3    H129651   4.327   5.760   7.016  0.3729  0.6661  1.8450
 2672TIP3    H229652   4.380   5.620   7.042  1.3510  0.8159  0.7040
 2673TIP3   OH229653   3.066   6.182   6.059  0.0106  0.5329  0.3374
 2673TIP3    H129654   3.042   6.272   6.080 -2.0615  0.0086  0.3230
 2673TIP3    H229655   3.160   6.185   6.043 -0.5424  3.3655 -3.0693
 2674TIP3   OH229656   4.380   6.437   6.462 -0.5505 -0.0410 -0.1070
 2674TIP3    H129657   4.286   6.452   6.474 -0.5618 -0.0626 -0.1701
 2674TIP3    H229658   4.395   6.449   6.368 -0.0174  2.6855  0.2700
 2675TIP3   OH229659   3.187   0.038   6.380  0.3165  0.0614  0.1849
 2675TIP3    H129660   3.108   0.064   6.332  0.6201 -0.1978 -0.4654
 2675TIP3    H229661   3.248   0.009   6.312  0.5410 -0.8885  0.7831
 2676TIP3   OH229662   5.179   1.260   8.358  0.6585 -0.3562  0.2077
 2676TIP3    H129663   5.205   1.211   8.280 -0.6070 -0.5557 -0.0988
 2676TIP3    H229664   5.170   1.350   8.327  3.5762  0.2323  0.9023
 2677TIP3   OH229665   2.555   6.208   6.795  0.3198  0.2329  0.1701
 2677TIP3    H129666   2.521   6.120   6.813 -0.6193  0.7889  1.2181
 2677TIP3    H229667   2.567   6.246   6.882  2.0505  0.6509 -0.2468
 2678TIP3   OH229668   3.688   0.141   7.252 -0.1531  0.2822 -0.5883
 2678TIP3    H129669   3.759   0.082   7.277 -1.8361 -1.0390  1.1927
 2678TIP3    H229670   3.627   0.137   7.325 -3.0580 -0.1880 -2.9635
 2679TIP3   OH229671   1.782   6.924   6.442 -0.3303 -0.4666  0.0516
 2679TIP3    H129672   1.796   7.017   6.459  1.3191 -0.7338  0.2071
 2679TIP3    H229673   1.811   6.912   6.351  1.8736 -1.3069  0.8337
 2680TIP3   OH229674   2.535   1.480   8.384  0.1672  0.0895 -0.4356
 2680TIP3    H129675   2.478   1.524   8.322 -0.8969  0.7105  0.9452
 2680TIP3    H229676   2.554   1.546   8.451  1.4089 -0.5132 -0.1597
 2681TIP3   OH229677   2.703   6.714   6.844 -0.1991 -0.3336  0.1568
 2681TIP3    H129678   2.693   6.740   6.752 -0.6739  2.3210  0.9207
 2681TIP3    H229679   2.613   6.703   6.875 -0.0746  0.2575  0.7182
 2682TIP3   OH229680   1.040   6.144   6.906  0.2055 -0.0844 -0.3590
 2682TIP3    H129681   1.126   6.103   6.916  0.9349  0.8290 -2.6957
 2682TIP3    H229682   1.037   6.211   6.975  0.2857 -1.8528  1.4146
 2683TIP3   OH229683   2.222   6.956   7.656  0.6692  0.4839 -0.1922
 2683TIP3    H129684   2.287   6.902   7.701  0.5079  0.7763  0.4055
 2683TIP3    H229685   2.141   6.942   7.705  0.7177  1.5656  0.2171
 2684TIP3   OH229686   2.355   1.196   0.844 -0.0782 -0.1150  0.3885
 2684TIP3    H129687   2.387   1.286   0.849 -0.1897 -0.0972  0.7868
 2684TIP3    H229688   2.435   1.143   0.843 -0.0051  0.0157 -0.3910
 2685TIP3   OH229689   1.877   0.687   0.136 -1.2077  0.1808  0.1122
 2685TIP3    H129690   1.844   0.633   0.208  0.5770 -1.0644  0.0577
 2685TIP3    H229691   1.801   0.733   0.102 -3.0038 -3.1432 -0.5234
 2686TIP3   OH229692   0.627   0.523   6.166  0.1006  0.0104 -0.1716
 2686TIP3    H129693   0.565   0.455   6.192 -0.7322  0.7714 -0.1522
 2686TIP3    H229694   0.666   0.490   6.085 -1.0511 -0.0267 -0.7238
 2687TIP3   OH229695   2.481   1.218   7.900 -0.1220 -0.2054  0.6945
 2687TIP3    H129696   2.556   1.163   7.874 -0.1961 -1.8649  3.7843
 2687TIP3    H229697   2.497   1.237   7.992 -2.0462  1.9145  0.6137
 2688TIP3   OH229698   4.951   7.215   7.238  0.0311 -0.6896  0.0185
 2688TIP3    H129699   4.956   7.197   7.145 -0.5780 -0.8028  0.0076
 2688TIP3    H229700   4.896   7.145   7.274 -0.3322 -0.2375  0.3500
 2689TIP3   OH229701   2.746   0.065   8.344  0.3248  0.1728 -0.2817
 2689TIP3    H129702   2.669   0.007   8.337  0.0084  0.6789 -0.9832
 2689TIP3    H229703   2.718   0.135   8.403  0.2631  0.3362 -0.5062
 2690TIP3   OH229704   4.736   0.510   1.169 -0.2325  0.1020  0.5684
 2690TIP3    H129705   4.686   0.544   1.095  0.6526 -0.2569 -0.1879
 2690TIP3    H229706   4.719   0.416   1.170  0.0212  0.0554  0.6215
 2691TIP3   OH229707   1.175   0.542   6.300 -0.7994 -0.5038 -0.2988
 2691TIP3    H129708   1.229   0.466   6.279 -0.0266 -0.1756  0.4886
 2691TIP3    H229709   1.109   0.545   6.230 -0.5678 -1.6362 -0.5717
 2692TIP3   OH229710   6.921   4.916   7.466 -0.3272  0.0294 -0.6632
 2692TIP3    H129711   6.884   4.829   7.450 -0.7573  0.2629 -0.9472
 2692TIP3    H229712   6.850   4.976   7.446  0.3665  0.5142 -1.7403
 2693TIP3   OH229713   1.351   6.688   7.099 -0.1910  0.0046 -0.4120
 2693TIP3    H129714   1.305   6.705   7.017 -1.5521  0.9982  0.5464
 2693TIP3    H229715   1.338   6.767   7.151 -1.4798 -1.5627  1.7442
 2694TIP3   OH229716   3.848   6.482   6.554  0.6819  0.1174  0.1735
 2694TIP3    H129717   3.802   6.566   6.545 -1.2931 -0.8515  0.8617
 2694TIP3    H229718   3.864   6.454   6.464  2.2056  1.6691 -0.0626
 2695TIP3   OH229719   2.459   6.273   7.184 -0.4652  0.5130 -0.0846
 2695TIP3    H129720   2.531   6.328   7.152 -0.0833  1.1312  1.8032
 2695TIP3    H229721   2.405   6.257   7.107  0.4004  2.0352 -1.0194
 2696TIP3   OH229722   2.319   6.306   7.417 -0.2996  0.2363  0.1400
 2696TIP3    H129723   2.244   6.289   7.359 -0.7238  2.3201  0.0566
 2696TIP3    H229724   2.396   6.294   7.361 -0.6262 -0.1572 -0.2306
 2697TIP3   OH229725   2.380   0.794   7.175 -0.2440  0.3655  0.1264
 2697TIP3    H129726   2.373   0.712   7.224 -2.5073 -0.0467 -0.8240
 2697TIP3    H229727   2.446   0.845   7.223 -3.1202  0.4043  4.2940
 2698TIP3   OH229728   3.140   5.711   7.604 -0.2452  0.3492 -0.1451
 2698TIP3    H129729   3.145   5.642   7.539 -0.9830 -0.2721  0.4462
 2698TIP3    H229730   3.211   5.692   7.666 -1.5115 -0.8700  0.9582
 2699TIP3   OH229731   3.616   5.877   6.424 -0.0751  0.4960  0.0763
 2699TIP3    H129732   3.671   5.855   6.499 -0.0876  0.6756  0.1384
 2699TIP3    H229733   3.669   5.936   6.371  0.3588 -0.5327 -0.6414
 2700TIP3   OH229734   2.016   0.552   6.830  0.0727  0.0268 -0.4711
 2700TIP3    H129735   1.948   0.597   6.780 -0.2267 -0.3006 -0.3557
 2700TIP3    H229736   2.035   0.473   6.780 -0.6397 -0.5912  0.2323
 2701TIP3   OH229737   1.261   0.270   6.231  0.4172 -0.1667  0.6275
 2701TIP3    H129738   1.268   0.176   6.244  0.7019 -0.0988  0.9745
 2701TIP3    H229739   1.291   0.284   6.141 -1.0972 -0.5775  0.0507
 2702TIP3   OH229740   0.026   7.063   0.183  0.0762  0.3160 -0.2377
 2702TIP3    H129741   0.120   7.077   0.172  0.1157  0.1998 -0.0358
 2702TIP3    H229742  -0.013   7.147   0.160  0.3158  0.7563  0.9307
 2703TIP3   OH229743   4.742   6.136   7.483 -0.5224 -0.2563 -0.6945
 2703TIP3    H129744   4.777   6.163   7.568 -1.8003  0.4802 -0.3934
 2703TIP3    H229745   4.787   6.191   7.419 -0.1588 -0.2521 -0.4340
 2704TIP3   OH229746   2.098   6.430   6.115 -0.6645  0.4201 -0.8115
 2704TIP3    H129747   2.037   6.474   6.056 -0.3975  1.5384 -0.2535
 2704TIP3    H229748   2.183   6.441   6.073 -0.7474 -0.5663 -1.2520
 2705TIP3   OH229749   2.571   5.435   6.469  0.3885 -0.7203  0.4716
 2705TIP3    H129750   2.651   5.455   6.421  0.0414 -1.5540 -0.4751
 2705TIP3    H229751   2.508   5.409   6.402 -1.0787  1.1450  1.0887
 2706TIP3   OH229752   2.613   6.911   6.392  0.3480  0.4049 -0.0718
 2706TIP3    H129753   2.687   6.971   6.381 -0.0719  0.6477 -1.6173
 2706TIP3    H229754   2.542   6.966   6.424 -0.0922  0.8033 -1.6672
 2707TIP3   OH229755   2.262   5.283   0.253 -0.4363 -0.8193  0.0275
 2707TIP3    H129756   2.339   5.317   0.207 -0.1736  1.5268  2.1196
 2707TIP3    H229757   2.291   5.198   0.286  0.2077 -1.3785 -1.8743
 2708TIP3   OH229758   2.367   0.445   6.573  0.4989  0.6966 -0.4386
 2708TIP3    H129759   2.454   0.484   6.559  0.8137  1.0607  2.2745
 2708TIP3    H229760   2.308   0.520   6.581  0.4008  0.5275  0.4892
 2709TIP3   OH229761   3.111   6.622   7.273 -0.2740  0.1053  0.4007
 2709TIP3    H129762   3.145   6.594   7.358  0.4325  2.5574  0.9777
 2709TIP3    H229763   3.186   6.616   7.214 -0.7154 -1.4157 -0.0143
 2710TIP3   OH229764   1.550   5.804   6.128  0.0324  0.5886  0.0788
 2710TIP3    H129765   1.567   5.898   6.129 -1.1211  0.8347 -0.9069
 2710TIP3    H229766   1.630   5.764   6.162  1.0272  1.8586 -0.7091
 2711TIP3   OH229767   5.188   4.848   1.965 -0.2230  0.6869 -0.0318
 2711TIP3    H129768   5.153   4.790   2.033  1.2000  0.3141  0.3969
 2711TIP3    H229769   5.283   4.839   1.972 -0.0573 -0.3220 -2.9062
 2712TIP3   OH229770   2.373   6.547   6.029 -0.3351  0.0369  0.1717
 2712TIP3    H129771   2.371   6.632   6.073  1.8510 -0.1402  0.6764
 2712TIP3    H229772   2.359   6.568   5.936 -0.4035  0.8827  0.3656
 2713TIP3   OH229773   4.465   6.429   0.516  0.6219  0.4416  0.0271
 2713TIP3    H129774   4.402   6.406   0.448  1.3157  0.1647 -0.5306
 2713TIP3    H229775   4.414   6.433   0.597  0.0169 -0.4955 -0.3045
 2714TIP3   OH229776   4.528   6.782   7.673 -0.1833  0.0010 -0.0196
 2714TIP3    H129777   4.522   6.755   7.581  0.3793 -2.8187  0.7298
 2714TIP3    H229778   4.499   6.705   7.722  1.4615  0.7706  2.2147
 2715TIP3   OH229779   3.533   0.261   7.456  0.2989 -0.1932  0.1697
 2715TIP3    H129780   3.584   0.218   7.525 -1.0257 -0.2019  1.1823
 2715TIP3    H229781   3.494   0.337   7.499 -1.1612 -0.6163 -0.3460
 2716TIP3   OH229782   3.965   6.642   7.429 -0.3920 -0.0796 -0.7027
 2716TIP3    H129783   4.032   6.648   7.362  0.5459  0.5945  0.2783
 2716TIP3    H229784   3.938   6.733   7.445 -0.5310 -0.2196 -0.1093
 2717TIP3   OH229785   2.444   6.552   6.741  0.2742  0.7457 -0.4509
 2717TIP3    H129786   2.378   6.546   6.810  0.0930  0.3907 -0.6550
 2717TIP3    H229787   2.428   6.476   6.685 -1.1473  2.3407 -2.2750
 2718TIP3   OH229788   2.829   5.792   7.996 -0.0196  0.2049  0.1989
 2718TIP3    H129789   2.911   5.744   7.984  0.2059  1.0583 -1.7883
 2718TIP3    H229790   2.761   5.725   7.994  0.4545 -0.2571 -0.4264
 2719TIP3   OH229791   3.330   5.728   7.260  0.0385 -0.3184 -0.3185
 2719TIP3    H129792   3.296   5.640   7.247  0.3410 -0.7402  1.6137
 2719TIP3    H229793   3.399   5.718   7.326  2.7955  0.7821 -2.9167
 2720TIP3   OH229794   3.326   1.404   0.283 -0.0640  0.6193 -0.1695
 2720TIP3    H129795   3.417   1.411   0.311 -0.1307  0.4219  0.1056
 2720TIP3    H229796   3.327   1.427   0.190  0.3559  0.0406 -0.3098
 2721TIP3   OH229797   3.409   6.670   0.799  0.0698 -0.1711  0.1111
 2721TIP3    H129798   3.395   6.607   0.728  1.3240  0.6995 -0.9289
 2721TIP3    H229799   3.492   6.642   0.839 -1.0500 -1.1756  1.8174
 2722TIP3   OH229800   4.316   7.168   0.425  0.1867 -0.1174 -0.3890
 2722TIP3    H129801   4.248   7.210   0.478  0.0174  0.2650 -0.8964
 2722TIP3    H229802   4.356   7.240   0.376  1.2565 -0.2869  0.2337
 2723TIP3   OH229803   2.049   0.255   6.193 -0.3014  0.0904  0.6776
 2723TIP3    H129804   2.045   0.181   6.133  1.0821 -0.9079  1.7940
 2723TIP3    H229805   1.971   0.307   6.172 -1.6136 -1.9784  0.2945
 2724TIP3   OH229806   3.793   0.296   0.896 -0.1432  0.6465  0.5072
 2724TIP3    H129807   3.742   0.335   0.825  0.8182  1.1932  0.1035
 2724TIP3    H229808   3.746   0.216   0.918 -0.5698  0.5772 -0.6163
 2725TIP3   OH229809   2.412   6.785   6.179 -0.0259  0.0317 -0.0905
 2725TIP3    H129810   2.499   6.814   6.207  0.1969 -1.2623  0.6198
 2725TIP3    H229811   2.357   6.862   6.187  1.4441  1.3670 -2.3297
 2726TIP3   OH229812   1.711   5.851   7.796  0.0980 -0.7000  0.3882
 2726TIP3    H129813   1.665   5.909   7.735  1.1615 -0.1357  0.1139
 2726TIP3    H229814   1.647   5.782   7.817 -0.2211 -0.9784 -1.4716
 2727TIP3   OH229815   0.980   5.733   1.376 -0.0674 -0.0159 -0.7993
 2727TIP3    H129816   0.908   5.767   1.429  0.7517  0.2160  0.1718
 2727TIP3    H229817   0.984   5.640   1.398 -0.1847 -0.0685 -0.9953
 2728TIP3   OH229818   2.869   6.447   8.064 -0.3271 -0.0781  0.7626
 2728TIP3    H129819   2.913   6.522   8.025 -1.0220  0.0579  0.2355
 2728TIP3    H229820   2.870   6.465   8.158  1.2969 -0.3817  0.8215
 2729TIP3   OH229821   2.743   7.052   6.687 -0.2735  0.2934 -0.2298
 2729TIP3    H129822   2.711   7.141   6.669  0.1015  0.2276 -1.2549
 2729TIP3    H229823   2.810   7.037   6.620  1.7677  0.3402  1.7395
 2730TIP3   OH229824   5.066   6.945   6.819  0.0019  0.0260  0.1551
 2730TIP3    H129825   5.035   6.935   6.909  0.4099 -1.0180  0.1812
 2730TIP3    H229826   5.149   6.897   6.816 -1.1995 -2.0509 -1.4100
 2731TIP3   OH229827   2.951   0.353   6.393  0.3433  0.3091 -0.0799
 2731TIP3    H129828   2.908   0.310   6.467  0.2225  2.4944  1.1854
 2731TIP3    H229829   3.027   0.299   6.375 -0.5298 -1.1678  0.5681
 2732TIP3   OH229830   2.499   0.844   6.167 -0.0701 -0.9701  0.2087
 2732TIP3    H129831   2.533   0.771   6.116  0.9171 -0.4416  0.1075
 2732TIP3    H229832   2.571   0.869   6.225 -0.9052 -1.0430  1.2915
 2733TIP3   OH229833   1.838   7.096   7.629 -0.1685 -0.5603  0.2891
 2733TIP3    H129834   1.915   7.095   7.572 -1.0225  0.0241 -0.9132
 2733TIP3    H229835   1.785   7.023   7.597 -2.2358  1.8130 -1.9553
 2734TIP3   OH229836   1.813   6.864   7.101 -0.1461  0.1639  0.5041
 2734TIP3    H129837   1.775   6.845   7.015  1.7533 -1.2144 -0.0472
 2734TIP3    H229838   1.785   6.791   7.156  0.0686  0.1680  0.6168
 2735TIP3   OH229839   3.309   6.428   7.809 -0.0626 -0.2107 -0.1045
 2735TIP3    H129840   3.226   6.385   7.833 -1.0769  0.9121 -1.5091
 2735TIP3    H229841   3.336   6.474   7.888 -1.3413  0.2770  0.0629
 2736TIP3   OH229842   2.119   0.375   7.596 -0.0002  0.2629  0.0668
 2736TIP3    H129843   2.187   0.337   7.652  0.0059  0.6860  0.3537
 2736TIP3    H229844   2.103   0.462   7.635  0.8312  1.0317 -1.2656
 2737TIP3   OH229845   2.267   3.949   7.469 -0.8027 -1.0121  0.0805
 2737TIP3    H129846   2.221   4.016   7.418 -1.1098 -1.8557 -0.7674
 2737TIP3    H229847   2.327   3.909   7.406 -0.8407 -1.7386  0.5038
 2738TIP3   OH229848   2.932   0.043   6.290 -0.3693 -0.0742  0.0178
 2738TIP3    H129849   2.906  -0.050   6.286 -0.5810 -0.0475  0.7123
 2738TIP3    H229850   2.905   0.078   6.205  0.3374 -0.8071 -0.5172
 2739TIP3   OH229851   3.545   6.455   7.529  0.3346  0.4703 -0.1063
 2739TIP3    H129852   3.624   6.407   7.503  0.2096 -0.0174  0.3965
 2739TIP3    H229853   3.495   6.466   7.448  0.8284  0.6164 -0.3937
 2740TIP3   OH229854   2.401   5.515   0.415  0.5280  0.2734 -0.0992
 2740TIP3    H129855   2.478   5.491   0.466 -1.0449 -1.4209  1.5874
 2740TIP3    H229856   2.422   5.489   0.325  2.1860  0.5037  0.2153
 2741TIP3   OH229857   1.868   6.094   7.031  0.2424 -0.0967  0.5430
 2741TIP3    H129858   1.889   6.048   7.113  1.3178 -1.9566 -0.7497
 2741TIP3    H229859   1.827   6.028   6.976 -0.9004  1.2627 -0.2778
 2742TIP3   OH229860   1.323   6.247   7.414 -0.2349 -0.2536  0.2305
 2742TIP3    H129861   1.340   6.328   7.364 -0.0410 -0.1016  0.5462
 2742TIP3    H229862   1.255   6.203   7.363 -0.8568  0.4535  0.4271
 2743TIP3   OH229863   1.521   6.747   8.261 -0.0442 -0.6498 -0.0646
 2743TIP3    H129864   1.602   6.750   8.313  1.2565  2.2034 -2.1121
 2743TIP3    H229865   1.458   6.796   8.313  0.2926 -0.6703  0.3676
 2744TIP3   OH229866   4.833   7.174   6.956  0.5738 -0.8750  0.1471
 2744TIP3    H129867   4.831   7.163   6.861 -0.4194  3.1526 -0.3867
 2744TIP3    H229868   4.776   7.105   6.990 -1.4670 -0.4920 -2.4018
 2745TIP3   OH229869   2.645   5.543   7.727 -0.2804 -0.1148  0.0348
 2745TIP3    H129870   2.582   5.614   7.717 -0.3415 -0.4874 -2.7313
 2745TIP3    H229871   2.730   5.583   7.706 -0.2404 -0.6907 -0.9539
 2746TIP3   OH229872   0.923   5.795   6.893  0.3334 -0.1941  0.0933
 2746TIP3    H129873   1.005   5.762   6.855  0.3720  0.9165 -0.8075
 2746TIP3    H229874   0.878   5.837   6.821 -0.0837  1.0251  1.0510
 2747TIP3   OH229875   2.208   5.560   1.016  0.5814 -0.1471  0.3039
 2747TIP3    H129876   2.245   5.627   1.073 -0.2003  1.0150 -0.5151
 2747TIP3    H229877   2.256   5.480   1.037  1.3916  0.6290  1.4346
 2748TIP3   OH229878   3.596   0.069   0.171  0.2976 -0.4053 -0.2028
 2748TIP3    H129879   3.595   0.093   0.263 -1.1815  2.4819 -0.9195
 2748TIP3    H229880   3.531  -0.001   0.164  1.6414 -1.8340  1.2001
 2749TIP3   OH229881   3.176   6.724   6.003 -0.1706  0.2311 -0.1058
 2749TIP3    H129882   3.206   6.670   6.076 -0.6241  1.2046  0.8103
 2749TIP3    H229883   3.203   6.676   5.925  0.1186 -0.9288  0.7009
 2750TIP3   OH229884   0.805   5.858   1.573  0.3590 -0.2899 -0.3512
 2750TIP3    H129885   0.773   5.948   1.565  1.5813  0.2446  0.4706
 2750TIP3    H229886   0.828   5.850   1.666  1.0470 -1.1736 -0.5961
 2751TIP3   OH229887   3.168   6.651   6.914  0.2921  0.0687 -0.5777
 2751TIP3    H129888   3.157   6.596   6.837  1.7217 -1.6007  0.3939
 2751TIP3    H229889   3.261   6.646   6.935 -0.0240  0.7321  1.0932
 2752TIP3   OH229890   5.149   7.212   6.702  0.3593 -0.0408 -0.1114
 2752TIP3    H129891   5.123   7.261   6.780 -0.2388  0.5285 -0.6629
 2752TIP3    H229892   5.102   7.129   6.709 -2.0899  1.1959 -1.3775
 2753TIP3   OH229893   2.591   0.206   6.465  0.3670  0.4820 -0.0026
 2753TIP3    H129894   2.558   0.278   6.410  0.4970 -0.5341 -1.4468
 2753TIP3    H229895   2.686   0.216   6.463  0.3632  0.5613  0.2051
 2754TIP3   OH229896   2.843   6.139   6.621 -0.0573 -0.2221 -0.0978
 2754TIP3    H129897   2.868   6.054   6.585 -0.0748 -0.5696  0.7166
 2754TIP3    H229898   2.923   6.192   6.616 -0.8487  0.7949 -3.6927
 2755TIP3   OH229899   3.678   0.734   7.370  0.3280  0.4650  0.1580
 2755TIP3    H129900   3.633   0.650   7.374  0.0558  0.5171 -1.5037
 2755TIP3    H229901   3.715   0.738   7.282  3.6582  0.4065  1.4652
 2756TIP3   OH229902   3.299   7.210   7.569 -0.3826  0.2500  0.3634
 2756TIP3    H129903   3.253   7.132   7.601 -0.1363  0.4255  1.1648
 2756TIP3    H229904   3.384   7.177   7.541  0.0766  0.3724  1.5932
 2757TIP3   OH229905   2.475   6.130   7.625 -0.2266 -0.8025 -0.2502
 2757TIP3    H129906   2.399   6.183   7.601  0.3698  0.2584  0.1564
 2757TIP3    H229907   2.522   6.116   7.543 -0.4330 -0.7861 -0.3723
 2758TIP3   OH229908   4.557   6.042   7.688  0.4906  0.3815  0.3140
 2758TIP3    H129909   4.598   6.050   7.602 -0.3340 -1.4332 -0.2626
 2758TIP3    H229910   4.612   5.981   7.736 -0.5672 -0.7317  0.1287
 2759TIP3   OH229911   2.898   0.652   6.263  0.0620  0.0917 -0.3794
 2759TIP3    H129912   2.988   0.628   6.243 -0.2564 -0.7895 -0.7460
 2759TIP3    H229913   2.876   0.601   6.341 -1.2172 -2.2627 -2.2042
 2760TIP3   OH229914   3.728   4.837   8.075  0.3739  0.4679 -0.1666
 2760TIP3    H129915   3.751   4.919   8.031  2.2303 -0.0191 -0.1269
 2760TIP3    H229916   3.757   4.769   8.015 -1.0097 -0.1734 -0.1233
 2761TIP3   OH229917   2.863   5.684   7.663 -0.2673 -0.1272  0.2488
 2761TIP3    H129918   2.956   5.661   7.666 -0.7088 -2.2944 -1.0425
 2761TIP3    H229919   2.860   5.779   7.676  2.3697  0.3997 -2.5109
 2762TIP3   OH229920   2.515   4.859   7.998 -0.4887 -0.2591 -0.2158
 2762TIP3    H129921   2.567   4.919   7.945  1.7415 -1.2884  0.7177
 2762TIP3    H229922   2.432   4.904   8.010  1.4183  3.1325  1.2568
 2763TIP3   OH229923   3.272   5.942   7.778  0.5331  0.2030  0.2599
 2763TIP3    H129924   3.356   5.895   7.771  0.7504  0.4356  1.2781
 2763TIP3    H229925   3.289   6.026   7.733  0.5577 -0.1283 -0.3577
 2764TIP3   OH229926   3.271   4.861   7.235  0.3261  0.5178 -0.2774
 2764TIP3    H129927   3.339   4.835   7.297 -0.4037  0.7429  0.6293
 2764TIP3    H229928   3.320   4.898   7.161  1.1388  2.8659  1.3670
 2765TIP3   OH229929   1.044   4.460   0.936  0.5370 -0.1935 -0.4994
 2765TIP3    H129930   0.965   4.422   0.898  1.4333  0.1864 -2.8536
 2765TIP3    H229931   1.025   4.554   0.944 -0.3452 -0.5383  1.8740
 2766TIP3   OH229932   7.061   0.379   7.590  0.2344 -0.6394  0.8402
 2766TIP3    H129933   6.997   0.324   7.546  0.5286 -0.3639  0.0603
 2766TIP3    H229934   7.012   0.456   7.617 -0.0570 -1.0362  1.4475
 2767TIP3   OH229935   6.926   5.540   0.267 -0.2384  0.3896 -0.3666
 2767TIP3    H129936   6.904   5.450   0.240 -1.9979  0.2105  1.5859
 2767TIP3    H229937   6.866   5.595   0.217  0.0885  0.4158 -0.7347
 2768TIP3   OH229938   1.931   6.487   0.506 -0.0995  0.1596  0.6474
 2768TIP3    H129939   1.922   6.452   0.418  1.5292 -0.4275  0.7062
 2768TIP3    H229940   1.944   6.581   0.494  2.2739 -0.2106  0.1364
 2769TIP3   OH229941   4.823   0.239   7.944  0.6039  0.2538  0.5484
 2769TIP3    H129942   4.865   0.244   7.858 -2.0700 -1.1666 -0.9180
 2769TIP3    H229943   4.802   0.329   7.966  0.8128  0.5889 -0.5887
 2770TIP3   OH229944   3.398   1.189   7.061 -0.0441 -0.2600 -0.2997
 2770TIP3    H129945   3.493   1.205   7.060  0.0558 -0.7027  1.1373
 2770TIP3    H229946   3.384   1.126   6.990  0.6117  0.4222 -1.0574
 2771TIP3   OH229947   4.628   5.474   7.651 -0.3115 -0.1766 -0.3078
 2771TIP3    H129948   4.657   5.385   7.632 -2.8025 -0.7744 -1.5285
 2771TIP3    H229949   4.610   5.474   7.745  3.5378  0.2405  0.5073
 2772TIP3   OH229950   2.793   5.240   7.511  0.3009 -0.7536 -0.0057
 2772TIP3    H129951   2.727   5.192   7.561 -1.0463  1.3023  0.2407
 2772TIP3    H229952   2.854   5.272   7.577  0.6609 -1.2615 -0.0821
 2773TIP3   OH229953   4.523   5.174   8.047  0.3414 -0.1666  0.2232
 2773TIP3    H129954   4.531   5.258   8.001  0.1558 -0.3757 -0.1930
 2773TIP3    H229955   4.604   5.167   8.098  0.1205  0.5190  0.6815
 2774TIP3   OH229956   3.817   6.939   6.162 -0.2952  0.5593  0.3592
 2774TIP3    H129957   3.817   6.853   6.120  2.4477  1.5934 -2.0226
 2774TIP3    H229958   3.875   6.929   6.237 -0.6704  0.1151  0.5914
 2775TIP3   OH229959   3.881   0.512   7.723 -0.1874  0.7432 -0.7987
 2775TIP3    H129960   3.833   0.442   7.679 -0.2760  0.0159  0.4481
 2775TIP3    H229961   3.823   0.589   7.717 -1.2095  0.0526  0.0783
 2776TIP3   OH229962   3.867   6.655   6.049 -0.9873 -0.2066 -0.0484
 2776TIP3    H129963   3.808   6.609   5.989  0.0868 -0.3511 -1.0053
 2776TIP3    H229964   3.953   6.616   6.033 -0.4815  0.5534  0.7696
 2777TIP3   OH229965   1.904   6.654   5.999 -0.5295  0.2726  0.1486
 2777TIP3    H129966   1.917   6.749   6.003  4.2415 -0.1474 -1.5241
 2777TIP3    H229967   1.889   6.636   5.906  0.5742 -0.7710  0.1596
 2778TIP3   OH229968   1.494   0.842   8.097  0.0147  0.4991 -0.3689
 2778TIP3    H129969   1.451   0.756   8.105 -0.2536  0.7067  0.5529
 2778TIP3    H229970   1.523   0.862   8.186 -0.6103  1.7121 -0.4225
 2779TIP3   OH229971   4.120   4.138   8.204 -0.1203 -0.0111 -0.3992
 2779TIP3    H129972   4.163   4.063   8.245  0.5820  0.9100  0.5689
 2779TIP3    H229973   4.062   4.099   8.138  0.8845 -1.3555 -0.5135
 2780TIP3   OH229974   3.373   5.754   6.445  0.6946 -0.3821 -0.5484
 2780TIP3    H129975   3.395   5.663   6.461  3.4962  0.1120 -1.2808
 2780TIP3    H229976   3.453   5.792   6.408  0.5019  3.0388  2.2739
 2781TIP3   OH229977   3.583   7.099   7.519 -0.0906 -0.1647  0.1458
 2781TIP3    H129978   3.601   7.043   7.595 -2.1241 -0.2259  0.6205
 2781TIP3    H229979   3.536   7.042   7.458 -3.0651  1.1945  1.0366
 2782TIP3   OH229980   4.848   1.674   7.712  0.4807  0.3227 -0.4126
 2782TIP3    H129981   4.858   1.769   7.705  0.9526  0.1849 -1.6371
 2782TIP3    H229982   4.922   1.638   7.665 -0.1256 -0.6628 -0.6345
 2783TIP3   OH229983   3.430   6.492   0.602 -0.6809  0.1643 -0.2434
 2783TIP3    H129984   3.523   6.507   0.586 -0.7459 -0.4068 -1.1884
 2783TIP3    H229985   3.401   6.438   0.529 -1.7847  0.4239 -0.0119
 2784TIP3   OH229986   1.022   5.267   7.718  0.1197 -0.0071 -0.0827
 2784TIP3    H129987   0.992   5.257   7.808 -2.3350 -1.7498 -1.0576
 2784TIP3    H229988   1.061   5.183   7.696  3.0577  1.2138  0.1043
 2785TIP3   OH229989   3.431   4.250   8.344 -0.1867  0.0253  0.5795
 2785TIP3    H129990   3.511   4.205   8.316 -0.9991 -2.0460  1.4893
 2785TIP3    H229991   3.378   4.257   8.265  0.5482  0.6589  0.1438
 2786TIP3   OH229992   2.260   0.590   6.987 -0.4207  0.3544  0.2865
 2786TIP3    H129993   2.172   0.569   6.957  0.2969 -0.2470 -1.4661
 2786TIP3    H229994   2.248   0.666   7.045 -2.3754 -1.3554  2.2190
 2787TIP3   OH229995   2.354   5.317   6.634  0.7261  0.1638  0.0194
 2787TIP3    H129996   2.270   5.326   6.587  0.2736 -0.9345  0.6110
 2787TIP3    H229997   2.420   5.318   6.565  0.2790  1.6811 -0.4107
 2788TIP3   OH229998   2.519   5.131   0.076  0.3076  0.2909 -0.2620
 2788TIP3    H129999   2.562   5.055   0.037  0.7258 -0.2206  1.1736
 2788TIP3    H230000   2.565   5.207   0.039  1.2587 -0.2094 -0.1104
 2789TIP3   OH230001   3.610   5.623   0.593 -0.0958  0.1694 -0.0796
 2789TIP3    H130002   3.551   5.656   0.526 -0.2193  0.6059  0.2404
 2789TIP3    H230003   3.577   5.661   0.675 -0.2007 -0.6867  0.2820
 2790TIP3   OH230004   1.606   0.338   7.569 -0.3237  0.4356  0.3235
 2790TIP3    H130005   1.618   0.327   7.663 -0.4940  1.1127  0.4281
 2790TIP3    H230006   1.525   0.292   7.549 -2.4272  3.6048  1.1970
 2791TIP3   OH230007   2.119   5.677   1.396 -0.3607  0.3444 -0.1330
 2791TIP3    H130008   2.118   5.767   1.430 -1.5967  0.9833 -1.7742
 2791TIP3    H230009   2.027   5.650   1.400 -0.2187 -0.2757 -1.1059
 2792TIP3   OH230010   2.762   1.098   7.783 -0.3788  0.6082 -0.0392
 2792TIP3    H130011   2.722   1.027   7.834  0.1973 -0.7250 -1.3940
 2792TIP3    H230012   2.853   1.100   7.812 -0.2800  0.4705 -0.3338
 2793TIP3   OH230013   4.046   7.023   0.748  0.6150 -0.1665  0.9646
 2793TIP3    H130014   4.123   7.080   0.749 -1.5049  2.9293 -1.7612
 2793TIP3    H230015   4.081   6.935   0.734  3.8637  0.6382  3.4620
 2794TIP3   OH230016   2.885   4.063   7.184  0.3552 -0.0744 -0.3333
 2794TIP3    H130017   2.917   4.150   7.207 -0.6670  0.0344  0.7381
 2794TIP3    H230018   2.880   4.064   7.088 -1.0101  1.5510 -0.2792
 2795TIP3   OH230019   2.958   6.628   6.680 -0.3086 -0.4110 -0.3408
 2795TIP3    H130020   2.873   6.648   6.641 -0.0016  1.0103 -0.2833
 2795TIP3    H230021   3.015   6.609   6.605 -0.3951 -0.3064 -0.4322
 2796TIP3   OH230022   5.601   0.374   7.461 -0.2187  0.2006 -0.3306
 2796TIP3    H130023   5.518   0.350   7.419  0.5346  0.3728 -1.9689
 2796TIP3    H230024   5.643   0.290   7.478 -1.8890 -0.0332  3.0338
 2797TIP3   OH230025   2.053   5.490   6.860  0.3593  0.5633  0.1808
 2797TIP3    H130026   2.066   5.576   6.819  0.0797  1.7211  2.4644
 2797TIP3    H230027   1.986   5.505   6.927  0.2731 -1.4580  0.5850
 2798TIP3   OH230028   1.348   0.020   6.293  0.3129 -0.0939  0.1584
 2798TIP3    H130029   1.368  -0.066   6.256 -1.3374  0.1263 -1.2796
 2798TIP3    H230030   1.427   0.072   6.275  0.3743 -0.6189 -1.1419
 2799TIP3   OH230031   3.302   1.453   8.477 -0.4765 -0.0209 -0.2475
 2799TIP3    H130032   3.268   1.363   8.474 -1.5737  0.3910 -0.5177
 2799TIP3    H230033   3.232   1.506   8.439  1.3783  0.6032 -2.9490
 2800TIP3   OH230034   3.149   5.220   6.404  0.0623  0.4293 -0.0132
 2800TIP3    H130035   3.218   5.155   6.388 -0.1704  0.2494 -0.3064
 2800TIP3    H230036   3.113   5.237   6.317 -0.2967  0.4823  0.1482
 2801TIP3   OH230037   2.970   6.677   7.929  0.2173 -0.5328  0.0891
 2801TIP3    H130038   2.939   6.767   7.918  2.9456  0.4903  0.4109
 2801TIP3    H230039   2.962   6.638   7.842 -2.7968 -0.6430  0.3517
 2802TIP3   OH230040   3.041   7.136   7.247  0.4710 -0.4717 -0.9171
 2802TIP3    H130041   3.132   7.111   7.259  0.7493  1.1821  0.5408
 2802TIP3    H230042   2.998   7.113   7.329  0.0425  0.7958 -0.7736
 2803TIP3   OH230043   3.105   6.551   6.458 -0.2832 -0.2625 -0.0918
 2803TIP3    H130044   3.034   6.593   6.408 -0.6015 -1.5412 -0.7316
 2803TIP3    H230045   3.183   6.561   6.404 -0.0848  0.6532  0.3580
 2804TIP3   OH230046   7.225   6.361   6.815  0.1179  0.8184 -0.3467
 2804TIP3    H130047   7.214   6.388   6.724  0.0736  2.3613  0.0987
 2804TIP3    H230048   7.318   6.342   6.824 -0.0179 -0.1585 -0.9194
 2805TIP3   OH230049   1.332   6.374   7.795  0.2762  0.2284 -0.6319
 2805TIP3    H130050   1.335   6.282   7.821  0.1945  0.4666  0.2287
 2805TIP3    H230051   1.422   6.395   7.770  0.9584  0.7553  2.1202
 2806TIP3   OH230052   3.889   4.397   8.033 -0.1778 -0.5788  0.8312
 2806TIP3    H130053   3.801   4.423   8.007  0.7364  0.2792 -1.5466
 2806TIP3    H230054   3.914   4.461   8.100 -0.5551  0.4962 -0.0438
 2807TIP3   OH230055   2.265   4.800   6.887 -0.2770 -0.7586  0.3642
 2807TIP3    H130056   2.248   4.778   6.795  0.7839  1.4919 -0.3927
 2807TIP3    H230057   2.346   4.850   6.885 -0.7833  0.1782  2.4046
 2808TIP3   OH230058   2.897   5.378   1.538  0.5314  0.2077  0.5379
 2808TIP3    H130059   2.990   5.403   1.536  0.6350 -0.1677  0.5286
 2808TIP3    H230060   2.852   5.451   1.496  0.8089  0.4564  0.6726
 2809TIP3   OH230061   3.244   0.855   8.242  0.4146 -0.8007  0.5437
 2809TIP3    H130062   3.182   0.841   8.170  0.2386  0.3392  0.4658
 2809TIP3    H230063   3.262   0.767   8.275  2.1388 -1.5776 -2.2703
 2810TIP3   OH230064   3.627   6.118   6.148  0.7809 -0.0283 -0.3657
 2810TIP3    H130065   3.657   6.128   6.058  1.8815  0.8507  0.0888
 2810TIP3    H230066   3.666   6.036   6.178  0.9838  0.0341 -0.4615
 2811TIP3   OH230067   5.471   6.459   6.149  0.1434  0.3002  0.1786
 2811TIP3    H130068   5.470   6.530   6.213 -0.6872  0.0693  0.4314
 2811TIP3    H230069   5.393   6.475   6.095  0.1081 -0.2673  0.0623
 2812TIP3   OH230070   2.995   0.345   6.772  0.3418  0.6035 -0.2556
 2812TIP3    H130071   3.087   0.358   6.753  0.6037  0.5315  0.9267
 2812TIP3    H230072   2.982   0.250   6.764  0.0396  0.7769 -1.8519
 2813TIP3   OH230073   4.945   0.147   6.303 -0.1082  0.5156 -0.0505
 2813TIP3    H130074   5.003   0.147   6.226 -3.0467  3.3688 -2.4137
 2813TIP3    H230075   4.868   0.099   6.274  0.7353 -2.9068  2.9432
 2814TIP3   OH230076   4.109   7.280   6.524  0.0367 -0.1505  0.4096
 2814TIP3    H130077   4.120   7.186   6.511  0.5661 -0.1648  0.9494
 2814TIP3    H230078   4.158   7.300   6.604 -1.5760  0.2656  1.3273
 2815TIP3   OH230079   4.139   6.118   0.286  0.4259  0.0961 -0.1914
 2815TIP3    H130080   4.221   6.084   0.323  1.3631  0.0807 -2.2029
 2815TIP3    H230081   4.089   6.040   0.263  0.6707  0.1011 -0.7352
 2816TIP3   OH230082   4.889   5.082   7.818 -0.0917  0.0746  0.2754
 2816TIP3    H130083   4.909   5.024   7.745 -1.9832 -1.6941  1.1091
 2816TIP3    H230084   4.944   5.051   7.890  1.5559  1.6332 -0.2756
 2817TIP3   OH230085   4.979   6.260   7.648 -0.1800 -0.0179  0.1995
 2817TIP3    H130086   5.001   6.288   7.736 -0.6271  1.2284 -0.0611
 2817TIP3    H230087   5.050   6.293   7.593  0.7502 -1.8886  0.2461
 2818TIP3   OH230088   5.104   6.579   7.431  0.7331  0.3245  0.6858
 2818TIP3    H130089   5.145   6.492   7.429  0.8209  0.3782 -0.7462
 2818TIP3    H230090   5.177   6.640   7.419  0.4889  0.5075  0.0639
 2819TIP3   OH230091   6.732   6.059   7.336  0.0723 -0.0330 -0.2968
 2819TIP3    H130092   6.719   6.153   7.328  1.4366  0.4035  2.1368
 2819TIP3    H230093   6.825   6.046   7.317  0.0006 -0.8330 -0.1315
 2820TIP3   OH230094   5.622   5.601   6.700 -0.0934 -0.1676 -0.0472
 2820TIP3    H130095   5.667   5.621   6.617  2.0476 -0.1332  1.0948
 2820TIP3    H230096   5.564   5.676   6.715  1.1656  0.8927 -0.3918
 2821TIP3   OH230097   3.590   4.580   0.658  0.0532 -0.8104  0.4923
 2821TIP3    H130098   3.526   4.511   0.677 -1.3314  0.3966  0.2585
 2821TIP3    H230099   3.617   4.563   0.567  0.9502 -2.0038  0.9655
 2822TIP3   OH230100   6.102   6.983   7.642  0.2136  0.0510  0.1576
 2822TIP3    H130101   6.140   7.032   7.569 -0.4927  0.3544 -0.0077
 2822TIP3    H230102   6.176   6.967   7.701  0.8666 -0.5213 -0.7956
 2823TIP3   OH230103   3.350   6.823   6.261 -0.4939  0.1903  0.2084
 2823TIP3    H130104   3.296   6.749   6.232 -0.4372 -0.6438  2.1360
 2823TIP3    H230105   3.313   6.899   6.217 -1.0798 -0.8716 -1.1609
 2824TIP3   OH230106   6.408   5.727   0.028  0.1208  0.5275 -0.4527
 2824TIP3    H130107   6.425   5.769   0.113 -0.7494  1.5133 -0.7527
 2824TIP3    H230108   6.313   5.722   0.023  0.1698  0.5769 -1.4240
 2825TIP3   OH230109   3.982   0.155   6.358 -0.5417  0.0045  0.1994
 2825TIP3    H130110   4.012   0.064   6.366 -1.5989 -0.2625  1.2174
 2825TIP3    H230111   3.958   0.164   6.265 -1.0531 -0.9527  0.2326
 2826TIP3   OH230112   5.135   6.267   6.245 -0.2198 -0.5054 -0.4186
 2826TIP3    H130113   5.043   6.285   6.228 -0.8794 -2.4625  0.9495
 2826TIP3    H230114   5.181   6.341   6.206 -2.2421 -0.3565 -2.6659
 2827TIP3   OH230115   2.926   0.057   7.124  0.7985  0.1366  0.3601
 2827TIP3    H130116   2.914  -0.038   7.125  2.1390 -0.0678 -1.1256
 2827TIP3    H230117   2.925   0.080   7.031 -0.2211  1.6767  0.7406
 2828TIP3   OH230118   6.945   5.928   1.499  0.0057  0.1949 -0.1923
 2828TIP3    H130119   6.907   6.005   1.542  0.3128  0.4434 -0.3606
 2828TIP3    H230120   6.985   5.962   1.419  1.0199  0.0290  0.2240
 2829TIP3   OH230121   3.427   6.660   6.944  0.3791 -0.1201 -0.3927
 2829TIP3    H130122   3.434   6.638   7.036  0.5010 -1.3556 -0.6881
 2829TIP3    H230123   3.517   6.661   6.912  0.3635  0.6752 -0.4126
 2830TIP3   OH230124   4.376   6.124   6.744 -0.7766  0.0392  1.0191
 2830TIP3    H130125   4.302   6.168   6.785 -0.4637 -0.9592  2.6977
 2830TIP3    H230126   4.406   6.061   6.810  0.4163 -0.8400 -0.3383
 2831TIP3   OH230127   4.387   6.556   6.789  0.6520 -0.1080  0.0725
 2831TIP3    H130128   4.318   6.493   6.809 -0.0508  0.2819 -1.0824
 2831TIP3    H230129   4.346   6.642   6.801  0.9221  0.1273 -0.6306
 2832TIP3   OH230130   5.725   6.195   6.816 -0.3484  0.2396 -0.2273
 2832TIP3    H130131   5.746   6.143   6.738  0.5914 -0.2506  0.3429
 2832TIP3    H230132   5.809   6.206   6.861 -0.7682  1.1000  0.3658
 2833TIP3   OH230133   4.258   6.687   0.538  0.2524 -0.4374 -0.0426
 2833TIP3    H130134   4.216   6.614   0.582 -1.0054 -0.6547 -1.5792
 2833TIP3    H230135   4.230   6.680   0.447  1.7980  0.7399 -0.6396
 2834TIP3   OH230136   6.080   7.004   8.131  0.3267 -0.0858  0.2837
 2834TIP3    H130137   6.175   7.016   8.140  0.1628  2.1493 -0.8137
 2834TIP3    H230138   6.053   7.068   8.066 -1.5525 -2.5937 -1.5045
 2835TIP3   OH230139   4.290   6.752   7.429 -0.3180 -0.2266  0.0964
 2835TIP3    H130140   4.320   6.750   7.339 -0.8683  0.3005 -0.1071
 2835TIP3    H230141   4.272   6.845   7.446  1.7490 -0.0425  1.4096
 2836TIP3   OH230142   5.802   7.248   6.664  0.0699  0.6961  0.1135
 2836TIP3    H130143   5.830   7.157   6.655  0.4587  1.0652 -3.0386
 2836TIP3    H230144   5.711   7.247   6.634  0.8612  1.7489 -2.4313
 2837TIP3   OH230145   6.943   6.727   7.876 -0.1436 -0.2493 -0.0334
 2837TIP3    H130146   6.992   6.646   7.894 -0.0649  0.1849  1.8041
 2837TIP3    H230147   7.011   6.791   7.857 -0.2028 -0.5876 -1.4332
 2838TIP3   OH230148   5.694   6.469   6.485 -0.1959  0.7432 -0.1106
 2838TIP3    H130149   5.781   6.499   6.460 -0.1297 -0.4115 -1.3141
 2838TIP3    H230150   5.671   6.402   6.420 -1.1547 -0.3896  1.3325
 2839TIP3   OH230151   4.932   5.767   7.880  0.1097 -0.4869  0.0901
 2839TIP3    H130152   5.002   5.729   7.827  0.7356  0.9391 -0.1491
 2839TIP3    H230153   4.917   5.703   7.949  1.9401 -0.6534  0.3714
 2840TIP3   OH230154   6.193   6.929   6.420  0.3878  0.4192 -0.6154
 2840TIP3    H130155   6.131   6.904   6.352  0.6249  0.2125 -0.7536
 2840TIP3    H230156   6.276   6.940   6.374  1.5002 -3.6326  0.2188
 2841TIP3   OH230157   0.369   6.193   2.128 -0.0131 -0.0161 -0.0721
 2841TIP3    H130158   0.384   6.172   2.220 -0.3817 -0.6396 -0.1438
 2841TIP3    H230159   0.441   6.250   2.103  1.0399 -1.2314  0.1473
 2842TIP3   OH230160   4.368   6.812   6.883  0.9158  0.0412 -0.2166
 2842TIP3    H130161   4.308   6.840   6.814 -0.0465  0.5010  0.8015
 2842TIP3    H230162   4.455   6.816   6.842  0.5875  2.4197 -0.7627
 2843TIP3   OH230163   4.323   0.186   6.683  0.3297 -0.0144  0.1770
 2843TIP3    H130164   4.244   0.238   6.701 -0.1179 -0.3670 -0.7492
 2843TIP3    H230165   4.380   0.247   6.636  0.6344  0.2525  0.8802
 2844TIP3   OH230166   3.002   0.433   0.051 -0.5522  0.8229 -0.0024
 2844TIP3    H130167   3.040   0.467  -0.030  0.6143  0.4389  0.3729
 2844TIP3    H230168   3.028   0.340   0.052 -1.1711  0.6536  0.4550
 2845TIP3   OH230169   4.768   5.766   6.677  0.7427 -0.4720  0.1055
 2845TIP3    H130170   4.804   5.684   6.709  0.9102 -0.5238 -0.2180
 2845TIP3    H230171   4.673   5.751   6.675  0.6533 -0.1738  1.4118
 2846TIP3   OH230172   4.577   6.678   6.221  0.0584 -0.0381  0.1261
 2846TIP3    H130173   4.642   6.612   6.247  0.0114 -0.1814 -0.1239
 2846TIP3    H230174   4.551   6.653   6.132 -0.7619 -0.3232  0.4345
 2847TIP3   OH230175   4.447   6.038   6.229 -0.4536  0.5816  0.3313
 2847TIP3    H130176   4.468   6.127   6.199  0.3894  0.3230  0.1397
 2847TIP3    H230177   4.384   6.050   6.299 -0.1190  1.3468  0.5002
 2848TIP3   OH230178   3.646   5.654   6.626  0.7297 -0.5925  0.1285
 2848TIP3    H130179   3.613   5.605   6.551  0.0529  0.0409 -0.0002
 2848TIP3    H230180   3.603   5.614   6.702  0.0494 -0.0994  0.0082
 2849TIP3   OH230181   4.260   6.825   8.321  0.2234 -0.1820 -0.0221
 2849TIP3    H130182   4.293   6.791   8.404  1.0066  0.1571 -0.1859
 2849TIP3    H230183   4.266   6.751   8.260  2.1143  0.2612 -0.4307
 2850TIP3   OH230184   3.708   0.903   7.876 -0.0496  0.6124 -0.3128
 2850TIP3    H130185   3.648   0.947   7.816 -2.1257 -0.7005  0.7557
 2850TIP3    H230186   3.656   0.834   7.916  2.9747 -2.5573 -1.5897
 2851TIP3   OH230187   5.434   6.170   6.113 -0.8081 -0.1279 -0.7219
 2851TIP3    H130188   5.429   6.264   6.126 -0.4629 -0.3157  0.9533
 2851TIP3    H230189   5.513   6.156   6.061  0.0530  0.4031  0.4176
 2852TIP3   OH230190   3.809   6.783   6.544 -0.8298 -0.1555  0.3909
 2852TIP3    H130191   3.866   6.831   6.484  0.2206 -1.5844  0.2342
 2852TIP3    H230192   3.726   6.774   6.497 -0.5687  0.2410 -0.1466
 2853TIP3   OH230193   5.592   0.205   6.797  0.3265  0.4638  0.1963
 2853TIP3    H130194   5.509   0.228   6.755  0.7037 -0.6168 -1.1739
 2853TIP3    H230195   5.657   0.215   6.729  1.1309 -0.0816  0.8777
 2854TIP3   OH230196   4.621   6.389   6.921 -0.5975  0.2162 -0.2001
 2854TIP3    H130197   4.541   6.415   6.967 -0.2244 -0.3034  0.7531
 2854TIP3    H230198   4.692   6.430   6.970 -0.1328 -1.0911  0.2359
 2855TIP3   OH230199   3.650   5.846   7.920  0.4784 -0.0583 -0.0455
 2855TIP3    H130200   3.616   5.927   7.882 -0.4077 -0.1429  0.5570
 2855TIP3    H230201   3.722   5.821   7.862  0.2929  0.7713 -0.6470
 2856TIP3   OH230202   5.216   6.263   7.491  0.1019 -0.0065  0.9457
 2856TIP3    H130203   5.262   6.182   7.467 -0.0332 -0.1817  1.2737
 2856TIP3    H230204   5.286   6.320   7.524  0.0439 -0.4121  1.8050
 2857TIP3   OH230205   4.425   6.466   8.489  0.1640  0.0587  0.4292
 2857TIP3    H130206   4.341   6.499   8.523 -0.2053 -0.7743  0.3389
 2857TIP3    H230207   4.432   6.378   8.526  1.5025  0.5085  1.2885
 2858TIP3   OH230208   4.790   0.626   6.992 -0.2221  0.8513  0.2082
 2858TIP3    H130209   4.878   0.664   6.994  0.6984 -1.2590  2.4151
 2858TIP3    H230210   4.735   0.693   7.033  1.0756  0.5813  2.4954
 2859TIP3   OH230211   5.653   0.919   6.856  0.0908  0.0745 -0.1378
 2859TIP3    H130212   5.682   1.001   6.896  0.0426 -0.0780  0.2066
 2859TIP3    H230213   5.559   0.916   6.872  0.3554 -0.8394  1.2711
 2860TIP3   OH230214   3.918   5.237   8.162  0.2978 -0.2850  0.8662
 2860TIP3    H130215   3.939   5.305   8.098  1.1977 -1.4455 -0.0966
 2860TIP3    H230216   3.991   5.175   8.157 -1.6699 -2.6252 -0.0341
 2861TIP3   OH230217   5.135   6.558   6.430 -0.4624  0.1591 -0.1105
 2861TIP3    H130218   5.205   6.597   6.378 -0.1136  0.5640  0.6530
 2861TIP3    H230219   5.059   6.557   6.372  0.1333 -0.1353 -0.8891
 2862TIP3   OH230220   5.823   5.092   7.818  0.2467  0.4089  0.3691
 2862TIP3    H130221   5.828   5.117   7.910  1.3677  2.5390 -0.2361
 2862TIP3    H230222   5.899   5.135   7.778 -1.2444  1.0121 -1.8808
 2863TIP3   OH230223   5.833   0.285   6.921 -0.5628  0.1183  0.2441
 2863TIP3    H130224   5.747   0.257   6.891 -0.2620 -0.6604  0.0967
 2863TIP3    H230225   5.846   0.371   6.880 -1.6621  0.6637  1.0301
 2864TIP3   OH230226   4.690   6.529   7.301  0.3155  0.0352  0.1504
 2864TIP3    H130227   4.608   6.538   7.253  0.3864 -1.4477 -0.2668
 2864TIP3    H230228   4.663   6.517   7.392  0.0882  0.1155  0.0939
 2865TIP3   OH230229   0.829   4.409   7.616 -0.1563 -0.3356  0.1791
 2865TIP3    H130230   0.901   4.447   7.665  0.8265 -0.3195 -1.2407
 2865TIP3    H230231   0.842   4.314   7.622  0.2850 -0.3194 -0.5195
 2866TIP3   OH230232   5.662   6.934   7.660  0.1846  0.1342  0.3212
 2866TIP3    H130233   5.624   7.017   7.630  0.5906  0.4300  0.6149
 2866TIP3    H230234   5.748   6.931   7.618 -0.9898 -1.5518 -2.0689
 2867TIP3   OH230235   3.368   5.912   6.908  0.2333  0.6247  0.5981
 2867TIP3    H130236   3.355   5.929   7.001 -0.5451  0.3230  0.5523
 2867TIP3    H230237   3.343   5.820   6.896  0.6379  0.5717  0.1545
 2868TIP3   OH230238   2.106   6.200   0.577 -0.3842 -0.9191  0.4767
 2868TIP3    H130239   2.153   6.253   0.641 -0.4927 -2.1549  1.6030
 2868TIP3    H230240   2.154   6.213   0.496  0.5111 -0.3316  1.0867
 2869TIP3   OH230241   4.791   5.264   7.991 -0.4025 -0.1493 -0.3695
 2869TIP3    H130242   4.868   5.311   8.023  0.6041 -1.5807 -0.6255
 2869TIP3    H230243   4.824   5.210   7.919 -2.0890  0.8457 -1.9295
 2870TIP3   OH230244   3.570   6.300   7.124 -0.2008  0.2906  0.6981
 2870TIP3    H130245   3.520   6.375   7.156  2.4978  2.1975  0.5814
 2870TIP3    H230246   3.638   6.286   7.189  2.2381  0.9958 -1.6106
 2871TIP3   OH230247   4.070   0.056   7.877 -0.6268 -0.2957  0.6062
 2871TIP3    H130248   4.103   0.144   7.895 -0.1258 -0.2889 -0.3007
 2871TIP3    H230249   4.128  -0.002   7.927  0.5722 -0.2630 -0.7157
 2872TIP3   OH230250   2.803   6.236   7.296  0.5953 -0.1783  0.1285
 2872TIP3    H130251   2.721   6.202   7.333 -0.6572  2.6134  0.0679
 2872TIP3    H230252   2.872   6.199   7.351 -0.6561 -2.9431 -0.0988
 2873TIP3   OH230253   3.761   7.200   6.101  0.6217 -0.4038 -0.6365
 2873TIP3    H130254   3.697   7.193   6.030  0.3463 -0.5050 -0.3813
 2873TIP3    H230255   3.771   7.110   6.134 -0.4811 -0.1189  0.5209
 2874TIP3   OH230256   4.211   5.693   7.911 -0.0256 -0.3326  0.5239
 2874TIP3    H130257   4.236   5.666   7.999  3.8658 -0.9071 -0.6586
 2874TIP3    H230258   4.230   5.786   7.907 -1.8507  0.0658  0.8048
 2875TIP3   OH230259   2.280   7.111   1.472  0.3879 -0.2742 -0.2807
 2875TIP3    H130260   2.302   7.159   1.551  1.1850 -1.7989  0.4443
 2875TIP3    H230261   2.210   7.162   1.431  1.4295  1.6528  0.2885
 2876TIP3   OH230262   2.920   6.499   7.016  0.2577 -0.0311  0.0566
 2876TIP3    H130263   2.982   6.439   6.973  0.4226 -0.5566  1.0039
 2876TIP3    H230264   2.959   6.515   7.102 -0.8377 -0.2202  0.5881
 2877TIP3   OH230265   3.759   6.875   0.173  0.2325  0.2464 -0.1270
 2877TIP3    H130266   3.823   6.918   0.116  0.0521  0.0387 -0.4886
 2877TIP3    H230267   3.766   6.921   0.256  2.3299 -1.1269  0.4939
 2878TIP3   OH230268   5.605   6.541   1.150 -0.1804  0.0110  0.0352
 2878TIP3    H130269   5.592   6.483   1.075 -0.8515 -0.8556  0.8232
 2878TIP3    H230270   5.698   6.530   1.173 -0.1292 -0.1997 -0.2684
 2879TIP3   OH230271   0.074   6.014   6.659  0.0492  0.1668 -0.0763
 2879TIP3    H130272   0.109   6.064   6.585  0.7893  0.2783  0.3396
 2879TIP3    H230273   0.068   5.924   6.628  2.4596 -0.1993  0.4086
 2880TIP3   OH230274   4.675   0.682   8.325  0.4450  0.4007  0.0861
 2880TIP3    H130275   4.760   0.727   8.321  0.6531 -0.1158 -2.3958
 2880TIP3    H230276   4.610   0.751   8.312  0.6481  0.3805 -1.1077
 2881TIP3   OH230277   4.024   5.617   8.434  0.5459 -0.0990  0.2224
 2881TIP3    H130278   4.008   5.628   8.528  2.2759 -0.1881  0.5336
 2881TIP3    H230279   3.993   5.529   8.415 -0.4272  0.1543  0.5561
 2882TIP3   OH230280   1.722   0.298   7.320  0.1799 -0.3043  0.1637
 2882TIP3    H130281   1.686   0.315   7.408  2.0855 -1.4252  1.2008
 2882TIP3    H230282   1.807   0.341   7.321 -0.2686  0.6794 -1.5921
 2883TIP3   OH230283   5.322   6.109   0.558  0.6934  0.4921  0.1876
 2883TIP3    H130284   5.255   6.153   0.506  0.3206 -0.5498 -0.2368
 2883TIP3    H230285   5.405   6.134   0.517  0.5596  1.6153  0.5843
 2884TIP3   OH230286   5.541   3.268   7.690 -0.2998  0.1307  0.7125
 2884TIP3    H130287   5.527   3.220   7.609 -1.1238 -2.3759  2.2932
 2884TIP3    H230288   5.452   3.292   7.719 -0.2553 -1.7003  2.4479
 2885TIP3   OH230289   4.060   0.596   8.435 -0.5001 -0.5095  0.0235
 2885TIP3    H130290   3.984   0.549   8.469 -1.6203  1.3757  0.2183
 2885TIP3    H230291   4.079   0.554   8.351 -2.0085 -0.7550 -0.2098
 2886TIP3   OH230292   6.119   0.166   6.788  0.0896 -0.0697 -0.1137
 2886TIP3    H130293   6.081   0.155   6.701  0.6960 -0.2645 -0.3560
 2886TIP3    H230294   6.044   0.183   6.845 -0.4205 -0.9958 -0.4961
 2887TIP3   OH230295   5.047   5.813   0.153  0.5012  0.5072 -0.1399
 2887TIP3    H130296   5.082   5.793   0.066 -0.6968  1.7720 -0.9201
 2887TIP3    H230297   5.083   5.744   0.210  2.6996  0.6865 -1.2860
 2888TIP3   OH230298   4.482   6.920   6.058  0.1875 -0.0452 -0.3395
 2888TIP3    H130299   4.535   6.999   6.054  0.2878 -0.1670 -1.6767
 2888TIP3    H230300   4.524   6.860   5.997 -0.7770 -0.5829 -0.4809
 2889TIP3   OH230301   5.227   6.788   7.199  0.6411  0.1198 -0.1019
 2889TIP3    H130302   5.272   6.747   7.274  0.7959 -0.1325 -0.3304
 2889TIP3    H230303   5.237   6.725   7.128  2.1462  1.1790 -0.8670
 2890TIP3   OH230304   3.824   6.740   0.427  0.1415 -0.6390  0.1463
 2890TIP3    H130305   3.817   6.678   0.354 -2.0276 -0.1701 -0.0987
 2890TIP3    H230306   3.903   6.790   0.409  0.8549 -2.0389 -0.6983
 2891TIP3   OH230307   5.016   6.856   6.402  0.4357 -0.7953  0.7317
 2891TIP3    H130308   4.937   6.815   6.368 -0.0794  1.7963 -1.4939
 2891TIP3    H230309   5.077   6.853   6.328  0.8688  1.0449  0.9878
 2892TIP3   OH230310   5.799   6.605   7.117  0.1304  0.1008  0.0215
 2892TIP3    H130311   5.728   6.605   7.053  1.5441 -0.2982 -1.5772
 2892TIP3    H230312   5.834   6.516   7.114  0.5816  0.2424  0.9321
 2893TIP3   OH230313   6.102   0.342   6.208 -0.2012 -0.2091 -0.3625
 2893TIP3    H130314   6.146   0.422   6.178  2.0038 -0.6956  1.3807
 2893TIP3    H230315   6.138   0.273   6.152 -1.5758 -0.1058 -1.3982
 2894TIP3   OH230316   5.856   7.222   7.393 -0.7688 -0.3846 -0.4779
 2894TIP3    H130317   5.919   7.159   7.427 -1.2081  0.0313  1.1488
 2894TIP3    H230318   5.812   7.177   7.321 -0.0135 -1.3778 -0.3136
 2895TIP3   OH230319   4.092   6.931   7.684 -0.0513  0.4670  1.1562
 2895TIP3    H130320   4.150   6.869   7.727 -0.5754 -1.1333 -0.3716
 2895TIP3    H230321   4.151   6.991   7.638  0.4257 -0.2493  0.8226
 2896TIP3   OH230322   3.587   0.765   6.779  0.6420 -0.4577  0.3176
 2896TIP3    H130323   3.582   0.763   6.683  0.5309 -0.3310  0.3206
 2896TIP3    H230324   3.681   0.759   6.798  0.8019  1.2722  0.1416
 2897TIP3   OH230325   3.094   5.359   0.075  0.0536  0.4623 -0.3335
 2897TIP3    H130326   3.119   5.267   0.079 -0.7334  0.2776  0.4271
 2897TIP3    H230327   3.164   5.401   0.025 -0.2867 -0.7987 -1.9050
 2898TIP3   OH230328   2.997   6.214   6.335  0.1434  0.0964  0.0816
 2898TIP3    H130329   3.026   6.275   6.268 -3.7433  1.0840 -0.8302
 2898TIP3    H230330   3.035   6.248   6.417  3.0371  0.1630 -1.2374
 2899TIP3   OH230331   6.201   6.599   7.088 -0.1053  0.7736 -0.1718
 2899TIP3    H130332   6.144   6.673   7.109 -0.0126  0.4348  1.3421
 2899TIP3    H230333   6.290   6.633   7.098 -0.0558  0.8410 -0.8502
 2900TIP3   OH230334   5.284   0.408   6.437 -0.5184  0.0111  0.2867
 2900TIP3    H130335   5.189   0.405   6.431 -0.6252  1.7261  0.9558
 2900TIP3    H230336   5.309   0.489   6.393  0.7985 -1.3538 -1.5603
 2901TIP3   OH230337   4.483   6.292   6.162 -0.0565 -0.3032 -0.2500
 2901TIP3    H130338   4.567   6.333   6.183 -0.5744  0.5604  0.1561
 2901TIP3    H230339   4.433   6.360   6.117  0.3020 -1.5310 -2.5843
 2902TIP3   OH230340   3.740   0.119   6.963 -0.0706  0.4403  0.0592
 2902TIP3    H130341   3.787   0.124   7.046 -0.1159 -1.6494  0.2475
 2902TIP3    H230342   3.737   0.025   6.943 -1.5494  0.7814 -1.4450
 2903TIP3   OH230343   3.918   6.124   6.669 -0.4933 -0.1507 -0.4644
 2903TIP3    H130344   3.871   6.040   6.670  1.4750 -1.2713  1.0477
 2903TIP3    H230345   3.932   6.143   6.577 -0.8516 -1.5486 -0.8108
 2904TIP3   OH230346   3.496   0.252   5.994 -0.5472 -0.2198  0.2539
 2904TIP3    H130347   3.412   0.209   6.005  0.0161 -1.9324 -1.9202
 2904TIP3    H230348   3.486   0.307   5.916 -0.3397  1.3417  1.3014
 2905TIP3   OH230349   5.484   0.004   6.987 -0.0471  0.1848  0.2427
 2905TIP3    H130350   5.502   0.089   6.947  0.2940  0.2477  0.5305
 2905TIP3    H230351   5.480  -0.057   6.913 -2.0516  0.7351 -0.1459
 2906TIP3   OH230352   4.833   4.698   0.771 -0.1197  0.2903  0.5255
 2906TIP3    H130353   4.898   4.768   0.769  1.7308 -1.3611  0.7968
 2906TIP3    H230354   4.839   4.657   0.685 -2.1085  1.2362 -0.0952
 2907TIP3   OH230355   2.934   7.205   8.208 -0.1682  0.5435  0.1353
 2907TIP3    H130356   2.994   7.212   8.133  0.5463  2.3190  0.8377
 2907TIP3    H230357   2.879   7.283   8.202  0.7587  1.3825  2.1754
 2908TIP3   OH230358   3.124   6.306   6.595 -0.2099 -0.0830 -0.7483
 2908TIP3    H130359   3.120   6.402   6.589 -2.7225 -0.2617 -3.0851
 2908TIP3    H230360   3.210   6.284   6.559  0.7248  1.3134  0.5562
 2909TIP3   OH230361   4.971   4.340   7.819 -0.7531  0.5599 -0.3162
 2909TIP3    H130362   4.990   4.333   7.726 -0.2860  1.1319 -0.2631
 2909TIP3    H230363   4.881   4.374   7.822 -0.3702  1.6371 -0.5678
 2910TIP3   OH230364   4.725   0.074   7.057 -0.7852  0.3178 -0.0727
 2910TIP3    H130365   4.780  -0.004   7.050  0.5880  1.2148  0.6353
 2910TIP3    H230366   4.730   0.114   6.970 -1.2404 -0.1900 -0.3427
 2911TIP3   OH230367   5.059   6.456   7.117  0.4656  0.2093  0.0427
 2911TIP3    H130368   5.053   6.385   7.053  0.0128 -1.3845  1.8067
 2911TIP3    H230369   5.150   6.455   7.145  0.6076  0.7600 -0.3824
 2912TIP3   OH230370   5.416   0.094   5.927  0.0298 -0.4835 -0.5202
 2912TIP3    H130371   5.379   0.096   6.015 -0.9827  0.6892 -0.9530
 2912TIP3    H230372   5.430   0.001   5.908 -2.2257 -0.9235 -0.1457
 2913TIP3   OH230373   5.174   0.032   6.433  0.4444  0.1768 -0.0097
 2913TIP3    H130374   5.084   0.048   6.404  0.5102  3.7931  1.4806
 2913TIP3    H230375   5.165  -0.034   6.502 -0.7789 -1.0052 -1.2455
 2914TIP3   OH230376   4.358   0.653   0.233  0.3450 -0.0729 -0.5459
 2914TIP3    H130377   4.410   0.630   0.156  0.6061  2.0221 -1.0217
 2914TIP3    H230378   4.392   0.738   0.261 -0.3695 -0.3781  1.3411
 2915TIP3   OH230379   4.057   7.236   6.188 -0.2468 -0.5210 -0.1336
 2915TIP3    H130380   4.001   7.207   6.116 -0.0017  0.3950 -0.7036
 2915TIP3    H230381   4.136   7.182   6.181 -0.9200 -1.6033  0.4882
 2916TIP3   OH230382   5.255   0.576   0.129  0.0373 -0.0269 -0.7591
 2916TIP3    H130383   5.316   0.616   0.192 -0.2949 -0.7616  0.0414
 2916TIP3    H230384   5.242   0.643   0.062  0.1333  0.9021  0.1391
 2917TIP3   OH230385   1.853   5.858   8.203  0.1008 -0.5738  0.6158
 2917TIP3    H130386   1.927   5.817   8.159 -0.6110 -1.2756  0.0570
 2917TIP3    H230387   1.822   5.792   8.265  0.6518  0.1444  1.6720
 2918TIP3   OH230388   5.015   0.356   6.454  0.3165  0.1351  0.0080
 2918TIP3    H130389   4.949   0.350   6.522 -1.1844  1.1965 -1.3218
 2918TIP3    H230390   5.017   0.268   6.415  0.0497 -0.0328  0.3719
 2919TIP3   OH230391   5.029   6.880   0.338 -0.5155 -0.3304 -0.1012
 2919TIP3    H130392   5.111   6.929   0.334 -1.2779  0.7989 -2.4957
 2919TIP3    H230393   4.967   6.939   0.380 -0.6467 -0.3670 -0.2419
 2920TIP3   OH230394   2.884   4.801   6.709  0.1751  0.7458  0.5017
 2920TIP3    H130395   2.826   4.745   6.657  1.4735 -1.3377  1.2037
 2920TIP3    H230396   2.840   4.808   6.794  0.5497 -0.1894  0.7829
 2921TIP3   OH230397   3.517   1.119   7.897  0.6001 -0.0826  0.4346
 2921TIP3    H130398   3.488   1.064   7.824 -1.3423  1.5576 -0.0709
 2921TIP3    H230399   3.445   1.113   7.961  0.6040  1.4323  0.5908
 2922TIP3   OH230400   5.571   5.140   8.247 -0.8806  0.6075 -0.0170
 2922TIP3    H130401   5.604   5.229   8.247  1.7220 -0.3131 -0.9226
 2922TIP3    H230402   5.560   5.118   8.340  1.5637  0.7831  0.3384
 2923TIP3   OH230403   6.792   7.132   6.554  0.6195 -0.6676  0.3276
 2923TIP3    H130404   6.735   7.111   6.481 -0.4820  0.7801  0.7517
 2923TIP3    H230405   6.811   7.226   6.544 -1.7156  0.2166  3.3475
 2924TIP3   OH230406   4.080   6.654   6.614  0.5112  0.1212  0.4245
 2924TIP3    H130407   4.097   6.571   6.570  0.3422 -0.3106  1.1639
 2924TIP3    H230408   3.988   6.673   6.595  0.3198 -0.2788  0.9357
 2925TIP3   OH230409   2.934   5.160   8.240  0.1441 -0.0686  0.0708
 2925TIP3    H130410   2.873   5.233   8.240 -0.8783 -0.9189  0.7840
 2925TIP3    H230411   2.975   5.163   8.154 -0.8263  0.5555 -0.3694
 2926TIP3   OH230412   4.683   6.944   6.993  0.3724 -0.1995  0.0715
 2926TIP3    H130413   4.745   6.900   7.050  1.4351  0.1604 -0.7981
 2926TIP3    H230414   4.662   6.880   6.925  0.9111  0.1677 -0.4499
 2927TIP3   OH230415   2.622   3.485   8.021  0.5870 -0.2753  0.0119
 2927TIP3    H130416   2.548   3.534   8.057 -0.1010  0.6140 -2.5245
 2927TIP3    H230417   2.588   3.442   7.943  1.9977 -2.3450  0.4888
 2928TIP3   OH230418   3.178   1.515   7.004  0.1640 -0.0102  0.2052
 2928TIP3    H130419   3.181   1.484   6.914 -0.1296  2.0452 -0.5361
 2928TIP3    H230420   3.129   1.447   7.051 -2.0952  0.2129 -1.7565
 2929TIP3   OH230421   5.269   0.379   7.363 -0.4251  0.2373  0.0791
 2929TIP3    H130422   5.217   0.305   7.333  0.0052  1.0456 -2.8444
 2929TIP3    H230423   5.333   0.393   7.293  2.7098  0.2774  2.8543
 2930TIP3   OH230424   6.007   4.841   8.279 -0.1882 -0.0848  0.5911
 2930TIP3    H130425   6.024   4.766   8.222 -1.0317  0.9176 -0.9996
 2930TIP3    H230426   6.093   4.883   8.290 -0.1233  0.0245 -0.3622
 2931TIP3   OH230427   3.164   5.081   6.672  0.1689  0.0833 -0.0042
 2931TIP3    H130428   3.086   5.077   6.618  0.5185  0.7029 -0.5715
 2931TIP3    H230429   3.237   5.077   6.610  0.5873 -0.6781  0.5299
 2932TIP3   OH230430   3.436   0.338   7.821 -0.0292  0.2313  0.3966
 2932TIP3    H130431   3.425   0.248   7.791  2.5976  0.2038 -0.6563
 2932TIP3    H230432   3.502   0.333   7.890 -0.8838  1.1742  1.2895
 2933TIP3   OH230433   3.823   0.814   0.087  0.0533  0.2368  0.3772
 2933TIP3    H130434   3.853   0.820   0.178 -0.9682 -3.1811  0.9958
 2933TIP3    H230435   3.897   0.846   0.035  2.2841 -1.7463  2.2173
 2934TIP3   OH230436   5.659   6.083   7.765  0.0970  0.0776  0.1739
 2934TIP3    H130437   5.690   6.166   7.802 -0.7946  0.0374  1.0272
 2934TIP3    H230438   5.739   6.036   7.743  0.6081  1.2641 -0.5434
 2935TIP3   OH230439   1.076   0.104   8.000  0.3580 -0.1266  0.5719
 2935TIP3    H130440   1.058   0.198   7.995 -0.3247 -0.3708 -2.2585
 2935TIP3    H230441   1.154   0.098   8.055 -0.0764  2.0203  1.4936
 2936TIP3   OH230442   6.605   6.372   6.558 -0.1902 -0.0098 -0.9250
 2936TIP3    H130443   6.592   6.283   6.525  2.1986 -0.9092  0.4768
 2936TIP3    H230444   6.533   6.385   6.619 -2.4639  0.2790 -3.5421
 2937TIP3   OH230445   7.255   6.642   6.887 -0.3557  0.7367  0.0349
 2937TIP3    H130446   7.199   6.697   6.832  1.2989  0.9897 -1.4142
 2937TIP3    H230447   7.246   6.555   6.849 -1.6360  0.2889  1.2943
 2938TIP3   OH230448   5.330   5.847   8.294 -0.3368 -0.0759 -0.2280
 2938TIP3    H130449   5.422   5.837   8.318 -0.2382 -0.6382 -0.8049
 2938TIP3    H230450   5.319   5.940   8.274  0.3171 -0.1587 -0.9780
 2939TIP3   OH230451   5.049   5.996   6.238 -0.2273 -0.7349 -0.1730
 2939TIP3    H130452   4.992   5.962   6.307 -0.0214 -0.9460 -0.1069
 2939TIP3    H230453   5.010   6.080   6.214 -0.9434 -1.1771 -0.5836
 2940TIP3   OH230454   7.052   5.684   0.501 -0.1966  0.6225 -0.2008
 2940TIP3    H130455   7.129   5.733   0.474 -1.3158  2.1965 -0.5843
 2940TIP3    H230456   7.019   5.643   0.421  0.3097 -0.1734 -0.0110
 2941TIP3   OH230457   3.320   6.915   6.814 -0.0122 -0.3451 -0.1406
 2941TIP3    H130458   3.240   6.946   6.773  0.0638  0.9395  0.6563
 2941TIP3    H230459   3.307   6.820   6.824 -0.6011 -0.4522 -1.8121
 2942TIP3   OH230460   6.021   5.773   7.009 -0.7319  0.0148  0.2590
 2942TIP3    H130461   6.072   5.697   6.980  0.7686  0.9204  0.4406
 2942TIP3    H230462   5.943   5.772   6.953 -0.2933 -1.1368 -0.3520
 2943TIP3   OH230463   6.697   4.909   0.254 -0.1100 -0.2462  0.0200
 2943TIP3    H130464   6.724   4.969   0.185 -0.7844  0.6596  0.5241
 2943TIP3    H230465   6.711   4.957   0.335 -0.4396 -0.8517  0.4446
 2944TIP3   OH230466   5.584   6.446   6.735  0.1043 -0.2933  0.2423
 2944TIP3    H130467   5.625   6.380   6.791 -0.2033 -0.7980 -0.1155
 2944TIP3    H230468   5.621   6.431   6.648 -1.3427 -1.2337 -0.2410
 2945TIP3   OH230469   5.210   5.220   6.965  0.0645  0.5277 -0.9160
 2945TIP3    H130470   5.133   5.260   7.006 -0.5701  0.2783 -1.8456
 2945TIP3    H230471   5.213   5.260   6.877  0.9178  0.4371 -0.9303
 2946TIP3   OH230472   4.775   4.859   8.144 -0.1480  0.0336 -0.1191
 2946TIP3    H130473   4.781   4.801   8.219 -0.6919 -0.2555 -0.2986
 2946TIP3    H230474   4.858   4.907   8.144  0.7453 -1.4689 -0.5766
 2947TIP3   OH230475   5.802   5.650   6.517  0.5456  0.0041  1.0407
 2947TIP3    H130476   5.825   5.730   6.469 -1.8234 -0.7897 -1.5579
 2947TIP3    H230477   5.876   5.591   6.503 -0.3191 -0.4029 -2.2194
 2948TIP3   OH230478   3.740   5.159   7.514 -0.4321  0.5259 -0.2624
 2948TIP3    H130479   3.660   5.159   7.567 -0.5120  1.2410 -0.3851
 2948TIP3    H230480   3.728   5.087   7.452 -0.7198  0.2478  0.1180
 2949TIP3   OH230481   5.747   7.093   7.098 -0.7359 -0.7613  0.2387
 2949TIP3    H130482   5.841   7.083   7.116 -0.9104 -1.4010  0.8318
 2949TIP3    H230483   5.737   7.184   7.069 -0.0066 -0.5530  0.6351
 2950TIP3   OH230484   4.802   6.573   8.356  0.3379 -0.1520  0.0444
 2950TIP3    H130485   4.848   6.590   8.438 -0.3744 -0.6417  0.5516
 2950TIP3    H230486   4.842   6.494   8.321  1.4589  0.7280 -0.6918
 2951TIP3   OH230487   5.155   5.188   7.617 -0.4217  0.2312  0.2731
 2951TIP3    H130488   5.120   5.269   7.654  0.5535  0.5638  0.4846
 2951TIP3    H230489   5.206   5.217   7.542 -1.3541 -0.3306 -0.5966
 2952TIP3   OH230490   3.021   5.891   6.996  0.1191  0.2749  0.2393
 2952TIP3    H130491   3.028   5.910   7.089 -2.4468 -1.2801  0.8046
 2952TIP3    H230492   2.972   5.964   6.960 -1.1409 -0.3631  0.6147
 2953TIP3   OH230493   5.261   3.171   7.787  0.4038  0.9096 -0.3117
 2953TIP3    H130494   5.215   3.116   7.724 -1.6798  3.5752 -1.2270
 2953TIP3    H230495   5.247   3.128   7.871 -2.7871  0.9383 -0.7447
 2954TIP3   OH230496   4.994   5.384   0.465  0.1411  0.2652  0.0923
 2954TIP3    H130497   4.923   5.425   0.417  1.2833  3.1328  0.7407
 2954TIP3    H230498   4.953   5.348   0.543 -0.3414  3.7609  1.5210
 2955TIP3   OH230499   4.501   5.777   8.233  0.4372  0.3629  0.3486
 2955TIP3    H130500   4.416   5.741   8.258  0.3051 -0.5999 -1.3942
 2955TIP3    H230501   4.484   5.870   8.216 -0.6323 -0.1540 -1.5584
 2956TIP3   OH230502   5.778   1.232   1.078 -0.1477  0.4596  0.3279
 2956TIP3    H130503   5.842   1.302   1.068  1.7304 -1.1067  1.0988
 2956TIP3    H230504   5.751   1.212   0.988  1.9819 -0.2246 -0.1957
 2957TIP3   OH230505   5.154   6.991   8.096 -0.6977 -0.0848  0.3321
 2957TIP3    H130506   5.201   6.985   8.180 -1.7014  1.1305  0.9902
 2957TIP3    H230507   5.067   7.021   8.120 -0.5015  1.8285 -1.3185
 2958TIP3   OH230508   4.128   5.223   7.261 -0.2653  0.2423 -0.0039
 2958TIP3    H130509   4.157   5.206   7.351  0.2969 -0.7674 -0.3567
 2958TIP3    H230510   4.204   5.262   7.219  0.0258 -0.8090 -0.4715
 2959TIP3   OH230511   0.555   1.161   6.669 -0.2157  0.4853  0.2401
 2959TIP3    H130512   0.464   1.142   6.649  0.0459  0.4486 -0.9279
 2959TIP3    H230513   0.604   1.085   6.638  0.1774  0.3261  1.2168
 2960TIP3   OH230514   3.691   0.449   7.312 -0.2391 -0.7129 -0.4142
 2960TIP3    H130515   3.780   0.423   7.287  0.2303 -1.1404  1.6205
 2960TIP3    H230516   3.642   0.366   7.314 -0.7090 -0.4758 -1.5582
 2961TIP3   OH230517   3.707   6.702   6.891 -0.2995 -0.2989 -0.1249
 2961TIP3    H130518   3.794   6.665   6.875 -0.3321  0.1034 -1.2184
 2961TIP3    H230519   3.721   6.796   6.895 -0.5352 -0.2930  0.6787
 2962TIP3   OH230520   6.159   6.285   6.693  0.5038 -0.2152  0.0968
 2962TIP3    H130521   6.240   6.237   6.673  0.3549 -0.4538  0.0613
 2962TIP3    H230522   6.096   6.252   6.629  1.1159  2.0023 -1.7099
 2963TIP3   OH230523   5.616   5.664   7.122  0.5944  0.0463 -0.2991
 2963TIP3    H130524   5.521   5.660   7.121  0.6543 -2.5722  0.3660
 2963TIP3    H230525   5.637   5.750   7.158 -1.5061  0.3236  0.2755
 2964TIP3   OH230526   5.060   3.678   7.431  0.1993 -0.8739  0.7054
 2964TIP3    H130527   5.105   3.634   7.502 -0.9155 -2.7713  0.2665
 2964TIP3    H230528   4.997   3.736   7.475 -0.3966 -1.9437  1.2744
 2965TIP3   OH230529   4.558   5.907   6.840  0.0603 -0.2763  0.3162
 2965TIP3    H130530   4.629   5.844   6.828 -0.1659 -0.5363  0.3117
 2965TIP3    H230531   4.575   5.949   6.924 -0.3011 -1.0255  0.7688
 2966TIP3   OH230532   4.513   6.506   5.868 -0.0674  0.2441 -0.2913
 2966TIP3    H130533   4.451   6.509   5.941  0.9865 -1.0378  0.6741
 2966TIP3    H230534   4.540   6.597   5.856 -0.4912  0.5103  0.7006
 2967TIP3   OH230535   6.454   4.897   6.779 -0.1921  0.5120 -0.5852
 2967TIP3    H130536   6.534   4.898   6.727  1.0555  0.4908  1.3126
 2967TIP3    H230537   6.429   4.804   6.782 -0.9809  0.6594 -2.1969
 2968TIP3   OH230538   7.240   5.452   6.860  0.2801  0.0187 -0.3438
 2968TIP3    H130539   7.148   5.459   6.886 -0.0811 -1.4145 -1.1875
 2968TIP3    H230540   7.244   5.487   6.772  0.5716  0.2165 -0.2542
 2969TIP3   OH230541   5.084   1.731   6.915 -0.3619  0.7466 -0.1492
 2969TIP3    H130542   5.070   1.685   6.833  1.8254 -2.1508  1.0339
 2969TIP3    H230543   5.089   1.824   6.890 -2.1305  0.1486 -2.9131
 2970TIP3   OH230544   3.974   4.210   7.639 -0.0685 -0.2618 -0.2298
 2970TIP3    H130545   3.953   4.182   7.550  1.6521 -1.1225 -0.3928
 2970TIP3    H230546   4.045   4.274   7.627  2.2686 -2.5994  0.6491
 2971TIP3   OH230547   4.328   5.692   8.500  0.2022  0.3385  0.0074
 2971TIP3    H130548   4.271   5.622   8.532  0.6369 -0.4160 -0.8074
 2971TIP3    H230549   4.417   5.656   8.508  0.3841  0.5040 -1.0891
 2972TIP3   OH230550   4.749   3.778   0.214 -0.2216  0.1491 -0.4262
 2972TIP3    H130551   4.804   3.833   0.158 -0.5905  1.8566  0.8641
 2972TIP3    H230552   4.807   3.748   0.284 -0.8170  1.5733  0.6797
 2973TIP3   OH230553   5.385   0.341   6.109 -0.3334  0.0919 -0.6400
 2973TIP3    H130554   5.349   0.408   6.168  1.1303  1.0058 -0.7593
 2973TIP3    H230555   5.347   0.259   6.141  1.6628  0.3306  2.6271
 2974TIP3   OH230556   6.766   0.408   6.509 -0.3250  0.0954 -0.2217
 2974TIP3    H130557   6.734   0.330   6.464 -0.8693 -0.7140  1.5237
 2974TIP3    H230558   6.729   0.402   6.597  1.5132  1.1455  0.6570
 2975TIP3   OH230559   7.228   7.153   6.671  0.4765 -0.0947 -0.0399
 2975TIP3    H130560   7.143   7.121   6.701  0.8681 -0.8351  0.2738
 2975TIP3    H230561   7.207   7.230   6.618 -0.2733  0.8095  1.5337
 2976TIP3   OH230562   4.755   6.870   6.306 -1.1761 -0.0714  0.3239
 2976TIP3    H130563   4.754   6.958   6.268 -0.2721 -0.6601 -1.1058
 2976TIP3    H230564   4.683   6.825   6.263 -0.5809 -0.5335 -0.1962
 2977TIP3   OH230565   6.015   0.370   8.076 -0.0346  0.0691  0.5161
 2977TIP3    H130566   6.043   0.462   8.076  2.2160 -0.5887  1.2982
 2977TIP3    H230567   6.043   0.337   8.161 -1.1747 -1.2713  0.3927
 2978TIP3   OH230568   4.593   5.465   7.937  0.0143 -0.2373 -0.1769
 2978TIP3    H130569   4.668   5.407   7.949  0.0293 -0.0978  0.3962
 2978TIP3    H230570   4.589   5.518   8.016 -1.0143 -0.6246  0.0476
 2979TIP3   OH230571   5.249   5.859   6.774 -0.5274 -0.1681 -0.0846
 2979TIP3    H130572   5.340   5.846   6.804 -0.3580  0.7336 -0.2017
 2979TIP3    H230573   5.205   5.777   6.798  0.4621 -0.8675 -0.5785
 2980TIP3   OH230574   4.253   0.169   7.343 -0.4646 -0.0599  0.3381
 2980TIP3    H130575   4.236   0.143   7.433 -3.3640  0.4964 -0.0183
 2980TIP3    H230576   4.230   0.262   7.340  1.8540  0.5361 -0.4303
 2981TIP3   OH230577   6.581   6.596   7.648  0.0243 -0.5403 -0.2105
 2981TIP3    H130578   6.572   6.691   7.649  1.9045 -0.3220 -1.2451
 2981TIP3    H230579   6.528   6.568   7.573  0.7818 -0.1417 -0.9031
 2982TIP3   OH230580   0.529   6.258   7.030  0.2084 -0.0698  0.0478
 2982TIP3    H130581   0.469   6.235   6.959  1.7606  0.4946 -1.4685
 2982TIP3    H230582   0.607   6.205   7.013  0.1488 -0.8215  2.0186
 2983TIP3   OH230583   0.314   5.891   5.867  0.0995 -0.3305  0.8915
 2983TIP3    H130584   0.373   5.827   5.906  0.3620 -1.2714 -0.9524
 2983TIP3    H230585   0.368   5.938   5.803 -1.2001 -1.5671 -1.2079
 2984TIP3   OH230586   6.458   6.291   5.708 -0.1519 -0.0534  0.3196
 2984TIP3    H130587   6.392   6.316   5.772 -0.9194 -0.0618 -0.4547
 2984TIP3    H230588   6.531   6.351   5.725  0.6731 -1.6954  2.8345
 2985TIP3   OH230589   7.301   5.361   7.973 -0.2495  0.2918  0.4443
 2985TIP3    H130590   7.382   5.356   8.025 -0.8536 -0.1269  1.3522
 2985TIP3    H230591   7.280   5.454   7.970 -0.2247  0.3170  0.9677
 2986TIP3   OH230592   5.974   7.086   6.874 -0.1414 -0.1234  0.1607
 2986TIP3    H130593   6.017   7.099   6.790  0.0256  0.5919  0.3515
 2986TIP3    H230594   5.916   7.161   6.883 -0.7663 -0.6204  0.3120
 2987TIP3   OH230595   4.017   4.551   7.797 -0.1032 -0.2851  0.4067
 2987TIP3    H130596   3.972   4.484   7.848 -1.6748  0.1096 -0.4370
 2987TIP3    H230597   4.109   4.522   7.796 -0.8035 -2.6401 -0.2721
 2988TIP3   OH230598   6.151   0.621   7.231  0.2406 -0.1786 -0.3967
 2988TIP3    H130599   6.136   0.556   7.299  2.6283 -0.6274 -0.2484
 2988TIP3    H230600   6.084   0.602   7.165  0.1006 -1.9844  0.2286
 2989TIP3   OH230601   6.703   6.935   6.843 -0.1291  0.0172  0.3041
 2989TIP3    H130602   6.632   6.919   6.781  0.0855 -0.3780  0.1558
 2989TIP3    H230603   6.698   6.862   6.905 -0.7254  0.7470  1.1101
 2990TIP3   OH230604   0.080   5.093   7.187 -0.0450 -0.4294  0.3279
 2990TIP3    H130605  -0.014   5.093   7.170 -0.3837  2.0710  1.9133
 2990TIP3    H230606   0.103   5.001   7.190 -2.4212 -1.0918 -0.2372
 2991TIP3   OH230607   5.394   6.122   7.209  0.4849  0.1301 -0.6141
 2991TIP3    H130608   5.325   6.060   7.186  0.5240 -0.1497  0.0136
 2991TIP3    H230609   5.457   6.117   7.137 -0.7713  1.3296 -1.8315
 2992TIP3   OH230610   6.267   6.758   6.627  0.3406  0.3747 -0.6786
 2992TIP3    H130611   6.206   6.810   6.575 -0.2751 -0.8763 -1.2469
 2992TIP3    H230612   6.262   6.795   6.715  0.6879  1.9122 -1.2845
 2993TIP3   OH230613   6.982   6.294   6.602  0.2739 -0.0841  0.1835
 2993TIP3    H130614   6.936   6.232   6.544 -0.2131  0.2306  0.2244
 2993TIP3    H230615   6.932   6.292   6.684  0.6896 -0.1848  0.4347
 2994TIP3   OH230616   6.948   6.528   0.061  0.3333  0.0526 -0.6283
 2994TIP3    H130617   6.972   6.485   0.143  3.7937  1.3340 -0.9012
 2994TIP3    H230618   6.922   6.616   0.087  0.0188  0.0115 -0.7958
 2995TIP3   OH230619   0.905   7.270   7.146  0.2979  0.3417  0.3312
 2995TIP3    H130620   0.906   7.355   7.189 -0.8025 -0.0964  1.2402
 2995TIP3    H230621   0.834   7.275   7.082  1.3942  0.7078 -0.8884
 2996TIP3   OH230622   5.621   5.816   8.312  0.0817  0.3973  0.2779
 2996TIP3    H130623   5.626   5.760   8.390  0.5285 -0.3275 -0.2701
 2996TIP3    H230624   5.704   5.802   8.267 -0.6813 -0.1348 -0.9911
 2997TIP3   OH230625   6.391   0.700   7.150  0.1311  0.3353 -0.7130
 2997TIP3    H130626   6.304   0.684   7.187  0.8876  0.9606  1.4216
 2997TIP3    H230627   6.450   0.646   7.203  0.9388 -0.8736 -2.7996
 2998TIP3   OH230628   6.936   1.083   6.842  0.6943 -0.3622  0.0509
 2998TIP3    H130629   6.941   1.177   6.823  0.4458 -0.1867  0.8443
 2998TIP3    H230630   6.922   1.042   6.757 -0.6222  0.4261 -0.1275
 2999TIP3   OH230631   1.072   6.707   6.441  0.4082 -0.4422  0.6741
 2999TIP3    H130632   1.118   6.783   6.405  0.5168 -1.7324 -2.0402
 2999TIP3    H230633   0.980   6.722   6.419  0.6999 -2.0892 -1.7768
 3000TIP3   OH230634   5.725   6.761   6.705  0.3115 -0.0845 -0.3132
 3000TIP3    H130635   5.707   6.846   6.746 -1.5662 -0.2461 -0.7756
 3000TIP3    H230636   5.819   6.749   6.716  0.3009  1.2019  1.4064
 3001TIP3   OH230637   6.206   5.410   7.063  0.3086  0.1187 -0.5772
 3001TIP3    H130638   6.210   5.324   7.021 -1.1853 -1.2370  1.9348
 3001TIP3    H230639   6.178   5.470   6.994  0.6527 -1.5474 -2.1739
 3002TIP3   OH230640   6.781   0.108   6.726  0.3919 -0.1945  0.5619
 3002TIP3    H130641   6.847   0.171   6.756  0.3218  0.3589 -0.4076
 3002TIP3    H230642   6.815   0.076   6.642  0.9165 -2.2097  1.5074
 3003TIP3   OH230643   5.602   5.488   7.325 -0.3349 -0.1968  0.3571
 3003TIP3    H130644   5.629   5.544   7.252  0.4693  0.8450  1.4397
 3003TIP3    H230645   5.681   5.441   7.350 -0.9252 -1.5991 -0.3180
 3004TIP3   OH230646   5.638   6.954   6.058  0.1163  0.0262 -0.4066
 3004TIP3    H130647   5.696   6.904   6.115 -0.2951 -1.4653 -1.2607
 3004TIP3    H230648   5.556   6.905   6.058 -1.2125  2.1633  0.8738
 3005TIP3   OH230649   1.620   7.288   7.826  0.2282  0.1690  0.2051
 3005TIP3    H130650   1.538   7.243   7.848  0.0886  0.5293  0.4279
 3005TIP3    H230651   1.617   7.298   7.731 -0.4534  1.0610  0.3111
 3006TIP3   OH230652   7.079   6.338   7.527  0.5750 -0.4882  0.2734
 3006TIP3    H130653   7.014   6.405   7.549  1.7122  1.3494 -1.7621
 3006TIP3    H230654   7.155   6.360   7.581  1.5695  0.9666 -1.6675
 3007TIP3   OH230655   3.635   6.022   0.163 -0.4129 -0.4032  0.4867
 3007TIP3    H130656   3.561   6.083   0.156  0.2997  0.4971  0.6416
 3007TIP3    H230657   3.677   6.026   0.078 -0.4540 -0.8080  0.4460
 3008TIP3   OH230658   7.328   0.101   7.022  0.3671  0.0657 -0.2325
 3008TIP3    H130659   7.359   0.044   6.951 -0.1364  0.5429 -0.8469
 3008TIP3    H230660   7.407   0.127   7.068  0.8506  0.9086 -1.5054
 3009TIP3   OH230661   7.166   6.813   6.663 -0.4498  0.2343  0.3709
 3009TIP3    H130662   7.134   6.901   6.686 -0.2535  0.5696 -0.6438
 3009TIP3    H230663   7.200   6.822   6.574 -0.1687 -0.8098  0.3702
 3010TIP3   OH230664   5.949   4.606   8.061  0.3602  0.1583 -0.1664
 3010TIP3    H130665   5.964   4.533   8.002  2.0960 -0.3099  0.7990
 3010TIP3    H230666   5.916   4.676   8.005  1.7566 -0.3417 -1.6682
 3011TIP3   OH230667   6.460   1.078   6.882 -0.0752  0.0878  0.2238
 3011TIP3    H130668   6.473   0.987   6.855  0.3064  0.3494 -0.4763
 3011TIP3    H230669   6.537   1.124   6.848 -1.6609  1.2129 -1.9264
 3012TIP3   OH230670   5.299   7.005   8.311 -0.0188 -0.4006 -0.3249
 3012TIP3    H130671   5.289   7.097   8.335 -1.4415 -0.7770  0.5778
 3012TIP3    H230672   5.385   6.980   8.343  0.2685  0.5497 -0.3627
 3013TIP3   OH230673   6.412   5.778   0.311 -0.0142 -0.0835  0.4932
 3013TIP3    H130674   6.447   5.858   0.351 -2.1333  0.3042  1.6323
 3013TIP3    H230675   6.334   5.758   0.363 -1.7213 -0.6977 -2.2240
 3014TIP3   OH230676   6.571   5.186   0.612 -0.3676 -0.2306 -0.6207
 3014TIP3    H130677   6.560   5.122   0.542 -0.5071 -0.2083 -0.6178
 3014TIP3    H230678   6.483   5.204   0.643 -0.2272 -0.9318  0.1843
 3015TIP3   OH230679   6.666   6.663   8.367  0.6610  0.3456 -0.4020
 3015TIP3    H130680   6.698   6.753   8.373  1.6252  0.1433 -2.0349
 3015TIP3    H230681   6.576   6.672   8.336  0.2999  0.7955  0.7613
 3016TIP3   OH230682   6.836   6.587   6.473 -0.0266 -0.4264  0.2363
 3016TIP3    H130683   6.758   6.550   6.432  1.3604 -0.5921 -2.3693
 3016TIP3    H230684   6.812   6.679   6.489 -0.9117 -0.5844 -0.1201
 3017TIP3   OH230685   0.366   6.147   6.804 -0.2160 -0.6057  0.4086
 3017TIP3    H130686   0.289   6.193   6.838  0.3200  1.1389 -0.7006
 3017TIP3    H230687   0.341   6.055   6.808 -2.6427 -0.0406 -0.5505
 3018TIP3   OH230688   6.952   5.723   6.514 -0.1895 -0.4094 -0.5467
 3018TIP3    H130689   6.875   5.780   6.507 -0.6912 -1.1064 -0.7522
 3018TIP3    H230690   6.986   5.718   6.425  2.9310  3.7560  0.2924
 3019TIP3   OH230691   0.070   6.211   6.433  0.6476 -0.0191 -0.1779
 3019TIP3    H130692   0.134   6.162   6.381  0.7499  0.7181 -0.7698
 3019TIP3    H230693   0.016   6.256   6.367  1.1980  1.4661  0.3590
 3020TIP3   OH230694   0.133   5.327   6.914  0.2759  0.1685  0.3736
 3020TIP3    H130695   0.194   5.400   6.917  0.4679  0.1287 -1.7613
 3020TIP3    H230696   0.054   5.363   6.875 -0.8749  0.0515  2.5073
 3021TIP3   OH230697   6.423   6.085   6.706  0.1261  0.0693  0.0811
 3021TIP3    H130698   6.485   6.084   6.633  0.5416  0.2274  0.4296
 3021TIP3    H230699   6.399   5.993   6.718  0.8469 -0.0796  0.4116
 3022TIP3   OH230700   0.552   7.146   7.824 -0.3949 -0.1848  0.1088
 3022TIP3    H130701   0.535   7.092   7.901 -0.1619  0.1092  0.3660
 3022TIP3    H230702   0.621   7.099   7.777 -0.4820 -0.3234  0.1162
 3023TIP3   OH230703   0.377   6.953   6.238  0.3079  0.1625  0.5353
 3023TIP3    H130704   0.309   6.993   6.184  0.4003 -0.3006  0.0691
 3023TIP3    H230705   0.418   6.888   6.180  0.0959 -0.6648  1.3076
 3024TIP3   OH230706   4.570   7.038   7.981 -0.2679 -0.5219  0.8084
 3024TIP3    H130707   4.666   7.030   7.981 -0.1921  0.2964  0.3124
 3024TIP3    H230708   4.540   6.965   8.034  0.6062 -1.2393  0.3357
 3025TIP3   OH230709   4.657   5.808   7.117 -0.2321  0.1622 -0.2759
 3025TIP3    H130710   4.624   5.861   7.190 -1.0168 -0.2984 -0.2948
 3025TIP3    H230711   4.579   5.777   7.073  0.2279 -1.3030 -0.0752
 3026TIP3   OH230712   0.368   5.302   7.606  0.6956  0.2276  0.2447
 3026TIP3    H130713   0.386   5.394   7.585  1.2014  0.1915  0.5231
 3026TIP3    H230714   0.277   5.302   7.637  1.0886  0.8356  1.4394
 3027TIP3   OH230715   6.461   5.318   7.796 -0.3331 -0.2720  0.2725
 3027TIP3    H130716   6.415   5.401   7.805  0.3558  0.1135  0.3142
 3027TIP3    H230717   6.505   5.324   7.711  2.2762  0.7221  1.6239
 3028TIP3   OH230718   0.022   0.801   7.297  0.6933 -0.1744 -0.0429
 3028TIP3    H130719   0.003   0.874   7.356  0.7059 -0.9365  0.9163
 3028TIP3    H230720   0.117   0.794   7.296  0.6734 -0.5107  0.2833
 3029TIP3   OH230721   6.646   5.008   7.464  0.0786 -0.1096  0.6343
 3029TIP3    H130722   6.562   4.981   7.502  0.8869 -1.5311  1.4667
 3029TIP3    H230723   6.643   5.104   7.464 -2.1671 -0.1463 -0.8006
 3030TIP3   OH230724   1.907   7.092   6.926  0.7050  0.0569 -0.4896
 3030TIP3    H130725   1.860   7.072   6.845 -2.3967  2.1295  0.7478
 3030TIP3    H230726   1.867   7.036   6.992  0.2853  1.4931  0.4866
 3031TIP3   OH230727   5.770   0.792   0.370  0.1439  0.1162  0.2985
 3031TIP3    H130728   5.716   0.714   0.385  0.9560 -0.2864  1.1806
 3031TIP3    H230729   5.716   0.848   0.315 -0.4066 -1.1169 -0.4395
 3032TIP3   OH230730   0.176   5.224   1.199  0.8027 -0.3165  0.4114
 3032TIP3    H130731   0.229   5.262   1.269 -0.9857  1.5108  0.8207
 3032TIP3    H230732   0.087   5.226   1.233  0.2552 -1.8773 -0.8816
 3033TIP3   OH230733   4.801   6.065   0.504 -0.6314  0.2676 -0.7210
 3033TIP3    H130734   4.760   6.152   0.504 -0.9388  0.1240 -0.8396
 3033TIP3    H230735   4.864   6.067   0.433 -1.5517 -0.0335 -1.5579
 3034TIP3   OH230736   6.663   4.239   6.248 -0.3013 -0.6657 -0.2482
 3034TIP3    H130737   6.747   4.233   6.294  0.2082 -0.9680 -1.1975
 3034TIP3    H230738   6.677   4.188   6.167  0.0119  2.8243 -2.5126
 3035TIP3   OH230739   6.271   6.831   6.040 -0.2340 -0.2947 -0.0782
 3035TIP3    H130740   6.360   6.848   6.070  0.3892 -0.1921 -1.9153
 3035TIP3    H230741   6.262   6.736   6.043  0.7084 -0.4712 -1.9313
 3036TIP3   OH230742   5.443   5.033   8.016  0.1681 -0.0036  0.3012
 3036TIP3    H130743   5.395   4.966   8.065 -0.3916  0.4128  0.3405
 3036TIP3    H230744   5.487   5.085   8.084 -0.6288  0.5904  0.3820
 3037TIP3   OH230745   0.696   4.723   7.132 -0.2046  0.2518  0.2033
 3037TIP3    H130746   0.713   4.816   7.115  0.6175 -0.1269 -1.1724
 3037TIP3    H230747   0.612   4.705   7.090  0.0062  0.2073 -0.2074
 3038TIP3   OH230748   6.680   7.088   6.298 -0.1999  0.0819  0.0078
 3038TIP3    H130749   6.689   7.174   6.258  1.1018 -0.8055 -1.6648
 3038TIP3    H230750   6.752   7.037   6.261 -0.6753 -1.5848  1.3397
 3039TIP3   OH230751   4.362   6.818   7.157  0.8653 -0.0763 -0.0250
 3039TIP3    H130752   4.349   6.814   7.062  2.8336 -1.5879 -0.2606
 3039TIP3    H230753   4.420   6.894   7.169 -1.1485  1.4643  0.2099
 3040TIP3   OH230754   0.964   7.003   7.054 -0.1341  0.7534  0.4161
 3040TIP3    H130755   1.023   7.037   6.987 -0.0658  0.8364  0.5182
 3040TIP3    H230756   0.953   7.076   7.115 -1.8697  1.3682 -0.6135
 3041TIP3   OH230757   6.995   5.213   6.682 -0.2291 -0.7819  0.9873
 3041TIP3    H130758   6.941   5.152   6.633 -0.8161 -1.4519  2.4362
 3041TIP3    H230759   6.967   5.299   6.652  0.9934 -1.2112 -1.4751
 3042TIP3   OH230760   0.750   5.798   7.944 -0.3610 -0.3815 -0.1995
 3042TIP3    H130761   0.804   5.852   7.886 -1.3420  1.4399  0.5283
 3042TIP3    H230762   0.679   5.767   7.889  0.7433 -1.7955 -0.8668
 3043TIP3   OH230763   6.857   0.223   7.468  0.1695 -0.1526 -0.0363
 3043TIP3    H130764   6.786   0.172   7.507 -0.8666  0.6594 -0.8308
 3043TIP3    H230765   6.909   0.159   7.421  0.1431 -0.8047  0.8003
 3044TIP3   OH230766   0.757   6.293   0.171  0.5392  0.0224 -0.4337
 3044TIP3    H130767   0.782   6.318   0.082  1.2541 -3.0837 -1.1778
 3044TIP3    H230768   0.791   6.363   0.227  2.1427  0.8353 -2.3851
 3045TIP3   OH230769   0.434   6.959   7.038  0.6015  0.1435 -0.0776
 3045TIP3    H130770   0.453   6.955   7.132  2.3825  2.9690 -0.2599
 3045TIP3    H230771   0.520   6.962   6.996 -0.1905  1.4355 -1.6589
 3046TIP3   OH230772   6.040   6.293   0.189 -0.4960 -0.1279 -0.4394
 3046TIP3    H130773   5.985   6.364   0.156  0.8694  0.0203 -2.4937
 3046TIP3    H230774   6.023   6.291   0.283 -1.5141  2.0852 -0.5445
 3047TIP3   OH230775   4.315   6.097   6.476  0.1093  0.5027 -0.0367
 3047TIP3    H130776   4.352   6.139   6.554  0.2803  1.1992 -0.4843
 3047TIP3    H230777   4.220   6.109   6.485  0.0598 -0.2825  0.5468
 3048TIP3   OH230778   6.257   5.407   8.471  0.4197  0.0489 -0.0449
 3048TIP3    H130779   6.255   5.427   8.377 -2.4299 -0.3482 -0.1209
 3048TIP3    H230780   6.235   5.489   8.514 -0.0332 -0.1914  0.1867
 3049TIP3   OH230781   0.087   7.270   6.819  0.0488  0.2498 -0.3088
 3049TIP3    H130782   0.140   7.192   6.837 -1.2900 -0.8378 -1.0281
 3049TIP3    H230783   0.031   7.245   6.746  1.3750  2.7235 -2.2700
 3050TIP3   OH230784   0.650   6.990   5.979 -0.0942 -0.2717 -0.2516
 3050TIP3    H130785   0.720   7.003   6.043 -0.5277 -0.9610  0.3692
 3050TIP3    H230786   0.618   6.901   5.996 -1.7112  0.3539  0.0580
 3051TIP3   OH230787   0.481   6.110   7.250 -0.2946 -0.2588 -0.0468
 3051TIP3    H130788   0.511   6.032   7.204  4.6499  1.0840  0.5888
 3051TIP3    H230789   0.502   6.182   7.191 -0.9484  0.9262  1.1379
 3052TIP3   OH230790   5.796   0.112   6.311 -0.1756 -0.0951 -0.4424
 3052TIP3    H130791   5.838   0.027   6.324  1.4459  0.7095 -0.2227
 3052TIP3    H230792   5.833   0.144   6.228  2.1129  1.9912  1.2841
 3053TIP3   OH230793   6.128   0.925   6.657  0.0203 -0.6161  0.0404
 3053TIP3    H130794   6.115   1.010   6.698  0.0029 -0.4769 -0.2509
 3053TIP3    H230795   6.115   0.941   6.563 -1.1465 -1.1739  0.0935
 3054TIP3   OH230796   0.139   7.202   6.395  0.5290 -0.1199 -0.5099
 3054TIP3    H130797   0.068   7.261   6.370  0.4600  0.9898  2.1744
 3054TIP3    H230798   0.217   7.240   6.355  0.5372  2.0345  1.4711
 3055TIP3   OH230799   0.668   0.918   6.612  0.7483 -0.1354  0.0289
 3055TIP3    H130800   0.733   0.908   6.681 -1.0037 -0.8070  1.6218
 3055TIP3    H230801   0.637   0.829   6.594  0.0432  0.2037 -0.4703
 3056TIP3   OH230802   3.991   5.957   7.880  0.1332 -0.1420  0.1045
 3056TIP3    H130803   4.064   5.932   7.822  0.6181  0.7148  0.3359
 3056TIP3    H230804   3.922   5.894   7.860 -0.1167  0.8208 -2.2437
 3057TIP3   OH230805   0.427   6.336   6.615  0.1091 -0.1008 -0.2007
 3057TIP3    H130806   0.356   6.399   6.600 -0.9866 -1.1257  0.5826
 3057TIP3    H230807   0.388   6.269   6.672  1.4336 -1.1683 -0.5260
 3058TIP3   OH230808   7.226   0.366   6.939  0.3702  0.4357 -0.0114
 3058TIP3    H130809   7.269   0.409   7.013 -0.3193  0.7330  0.2190
 3058TIP3    H230810   7.261   0.277   6.939 -1.0208 -0.1462  1.8257
 3059TIP3   OH230811   5.087   6.250   6.874 -0.0456 -0.1684 -0.5358
 3059TIP3    H130812   5.032   6.280   6.802 -0.7773 -0.4512 -0.0960
 3059TIP3    H230813   5.172   6.291   6.858 -0.5749  0.8118 -0.8540
 3060TIP3   OH230814   0.323   5.874   6.846  0.4148 -0.2650  0.0136
 3060TIP3    H130815   0.361   5.834   6.924 -1.7170 -0.1657  1.1399
 3060TIP3    H230816   0.235   5.901   6.873  0.1244  0.9837 -2.0460
 3061TIP3   OH230817   5.416   6.406   7.615 -0.0106  0.0927 -0.2455
 3061TIP3    H130818   5.501   6.391   7.573  1.5239  0.4049  2.6149
 3061TIP3    H230819   5.412   6.501   7.627  0.0632 -0.0925  1.2759
 3062TIP3   OH230820   6.859   5.661   6.777  0.3495  0.0558  0.4210
 3062TIP3    H130821   6.885   5.664   6.685 -0.1538 -1.1001  0.2405
 3062TIP3    H230822   6.767   5.635   6.776  0.6147 -0.9620  1.2865
 3063TIP3   OH230823   5.207   6.270   6.497  0.1538  0.0093 -0.4299
 3063TIP3    H130824   5.236   6.361   6.496 -1.6468  0.6298  1.0748
 3063TIP3    H230825   5.140   6.266   6.429  1.4228 -0.6183 -1.6566
 3064TIP3   OH230826   4.817   6.668   7.983 -0.1248  0.3869  0.6005
 3064TIP3    H130827   4.885   6.640   8.045  0.0030  0.7823  0.6418
 3064TIP3    H230828   4.784   6.586   7.945  0.4754  0.1948  0.4733
 3065TIP3   OH230829   6.718   6.748   7.107 -0.1784  0.1113  0.4009
 3065TIP3    H130830   6.675   6.780   7.187  1.1518  1.1654  0.7131
 3065TIP3    H230831   6.792   6.696   7.139  0.6811  0.9868 -0.1332
 3066TIP3   OH230832   6.355   1.257   7.065  0.3845  0.1214 -0.1217
 3066TIP3    H130833   6.306   1.182   7.099  0.1907 -0.8148 -2.3553
 3066TIP3    H230834   6.410   1.221   6.996  1.8926  1.6962  0.2170
 3067TIP3   OH230835   7.058   7.284   5.809  0.1507 -0.2122 -0.4311
 3067TIP3    H130836   7.052   7.220   5.738 -3.7543  1.1456 -1.4781
 3067TIP3    H230837   6.990   7.257   5.871  1.0300  0.7361  0.9477
 3068TIP3   OH230838   1.178   0.702   6.531 -0.3429 -0.4158  0.1299
 3068TIP3    H130839   1.157   0.793   6.515 -3.1880 -0.9765  0.4806
 3068TIP3    H230840   1.208   0.669   6.446  1.2989  0.9490  0.1432
 3069TIP3   OH230841   7.323   7.200   5.889 -0.2846  0.4713 -0.2519
 3069TIP3    H130842   7.235   7.223   5.859 -1.1801  0.4144  2.1991
 3069TIP3    H230843   7.369   7.284   5.894 -0.2629  0.5298 -1.2933
 3070TIP3   OH230844   0.271   0.411   0.375 -0.4589  0.0663  0.2491
 3070TIP3    H130845   0.363   0.391   0.357  0.1426  0.4706  2.7342
 3070TIP3    H230846   0.232   0.425   0.289  1.5685 -1.1414 -0.8941
 3071TIP3   OH230847   0.028   4.702   8.344 -1.0982  0.1622  0.1738
 3071TIP3    H130848  -0.066   4.698   8.327 -1.0617 -0.1823  0.0350
 3071TIP3    H230849   0.056   4.784   8.303 -1.9692  2.1632  3.4146
 3072TIP3   OH230850   0.773   5.870   6.667  0.2229 -0.2041 -0.4492
 3072TIP3    H130851   0.695   5.904   6.623 -1.2029  1.4732  3.1872
 3072TIP3    H230852   0.842   5.933   6.646 -0.8832  1.5862  1.0663
 3073TIP3   OH230853   5.813   0.499   6.554  0.4455  0.3262  0.2827
 3073TIP3    H130854   5.856   0.552   6.487 -0.5420  0.7903  0.0121
 3073TIP3    H230855   5.766   0.562   6.608 -1.9070 -0.3601 -0.8898
 3074TIP3   OH230856   5.853   1.623   6.914  0.3193  0.0948  0.3835
 3074TIP3    H130857   5.947   1.638   6.914  0.4274 -0.5349 -0.0472
 3074TIP3    H230858   5.819   1.682   6.847  0.3985  0.3737  0.5888
 3075TIP3   OH230859   0.068   4.791   7.970  0.4176  0.3113 -0.4646
 3075TIP3    H130860   0.008   4.718   7.981  0.4396  0.3921  0.2271
 3075TIP3    H230861   0.079   4.827   8.059  1.4620  0.3146 -0.5869
 3076TIP3   OH230862   6.291   6.392   7.881 -0.4732  0.8417 -0.1134
 3076TIP3    H130863   6.377   6.432   7.894 -0.0425  0.4199 -1.5337
 3076TIP3    H230864   6.286   6.323   7.947  0.1167  1.1178  0.2279
 3077TIP3   OH230865   6.560   0.029   8.083  0.4169 -0.1646 -0.0445
 3077TIP3    H130866   6.526  -0.054   8.116  0.3836 -0.9469 -1.9630
 3077TIP3    H230867   6.509   0.096   8.129 -0.5163 -1.2369  0.5017
 3078TIP3   OH230868   5.849   7.043   6.498  0.0433 -0.2806 -0.5019
 3078TIP3    H130869   5.941   7.066   6.509 -0.2348  0.5073  0.2486
 3078TIP3    H230870   5.835   7.044   6.403  0.8075 -0.4378 -0.6168
 3079TIP3   OH230871   1.026   5.827   0.230 -1.1859 -0.2512 -0.8017
 3079TIP3    H130872   1.096   5.878   0.189 -1.4596  0.7919  0.0136
 3079TIP3    H230873   0.976   5.891   0.280 -0.6976 -1.5544  1.4127
 3080TIP3   OH230874   0.361   6.607   7.286  0.8279  0.3985  0.1525
 3080TIP3    H130875   0.413   6.582   7.361  2.5347  0.1599 -1.0917
 3080TIP3    H230876   0.296   6.669   7.321  1.6865  0.3939  1.7771
 3081TIP3   OH230877   4.700   5.205   7.603 -0.6257 -0.3710 -0.2879
 3081TIP3    H130878   4.694   5.151   7.681  0.9647  2.0356  1.6070
 3081TIP3    H230879   4.771   5.166   7.552  0.5648 -0.0460  1.0927
 3082TIP3   OH230880   6.198   5.973   6.879  0.3569  0.0109  0.1152
 3082TIP3    H130881   6.234   5.973   6.790 -1.0070 -0.4262 -0.4543
 3082TIP3    H230882   6.123   5.913   6.874 -1.4900  2.2140  0.8293
 3083TIP3   OH230883   1.730   5.675   0.130  0.5217  0.5225 -0.7731
 3083TIP3    H130884   1.674   5.697   0.055 -0.1185  0.8021 -0.2175
 3083TIP3    H230885   1.672   5.681   0.205  0.6225 -1.8751 -0.4694
 3084TIP3   OH230886   6.516   0.079   6.702 -0.3660 -0.6481  0.5916
 3084TIP3    H130887   6.475   0.164   6.691 -0.2094 -0.7174 -0.6245
 3084TIP3    H230888   6.609   0.097   6.714 -0.4690 -0.5957  1.2950
 3085TIP3   OH230889   5.877   5.691   1.031 -0.2594 -0.1367 -0.1317
 3085TIP3    H130890   5.927   5.645   0.964  1.2863  1.6372 -0.2496
 3085TIP3    H230891   5.890   5.639   1.111  0.3541 -0.6427 -0.5523
 3086TIP3   OH230892   6.068   7.056   0.136  0.5268  0.3886  0.4084
 3086TIP3    H130893   6.014   6.989   0.178 -0.5737 -0.1214 -1.7362
 3086TIP3    H230894   6.155   7.016   0.130  0.1876 -0.3453  0.3278
 3087TIP3   OH230895   5.089   5.624   6.826  0.1816 -0.2732 -0.0665
 3087TIP3    H130896   5.013   5.574   6.855  0.6851 -0.6525  0.6083
 3087TIP3    H230897   5.069   5.648   6.735 -0.5364 -0.7646 -0.0405
 3088TIP3   OH230898   6.553   6.640   0.421  0.3370  0.0893  1.1910
 3088TIP3    H130899   6.529   6.548   0.412 -1.6562  0.5962  1.0605
 3088TIP3    H230900   6.512   6.668   0.502 -1.6719  1.6353 -0.3112
 3089TIP3   OH230901   7.087   0.893   6.973  1.5914  0.1749 -0.4325
 3089TIP3    H130902   7.033   0.851   7.041  0.8477  0.9893 -0.5207
 3089TIP3    H230903   7.032   0.962   6.937  2.5688  0.7819 -0.7809
 3090TIP3   OH230904   6.065   1.305   6.074 -0.2404  0.1331  0.1225
 3090TIP3    H130905   6.022   1.277   5.994  0.3228  0.6424 -0.3607
 3090TIP3    H230906   6.156   1.275   6.066 -0.3079 -0.2781  0.8033
 3091TIP3   OH230907   6.186   6.305   0.726  0.8424 -0.0935 -0.2814
 3091TIP3    H130908   6.198   6.319   0.819  2.0796 -0.2547 -0.4074
 3091TIP3    H230909   6.163   6.212   0.719 -2.0590  0.5611  0.0897
 3092TIP3   OH230910   6.856   5.346   1.830  0.1837  0.0333  0.2270
 3092TIP3    H130911   6.860   5.352   1.925 -0.6678 -0.1630  0.2755
 3092TIP3    H230912   6.948   5.350   1.802  0.3636  1.3109  0.9771
 3093TIP3   OH230913   7.312   6.471   5.894 -0.1494 -0.0771 -0.4459
 3093TIP3    H130914   7.315   6.518   5.977 -0.9693  1.8348 -1.4522
 3093TIP3    H230915   7.221   6.482   5.864 -0.0521 -1.3576 -1.2369
 3094TIP3   OH230916   6.358   5.916   7.966  0.1354 -0.0102  0.7840
 3094TIP3    H130917   6.323   5.920   7.877  0.0862  0.5712  0.8285
 3094TIP3    H230918   6.450   5.893   7.955  0.0532 -0.2624  0.6013
 3095TIP3   OH230919   7.061   6.012   7.772 -0.5022  0.3113 -0.0956
 3095TIP3    H130920   7.125   6.078   7.800 -1.3240  0.5077  1.4054
 3095TIP3    H230921   6.980   6.061   7.760 -0.6727 -0.1366 -0.7705
 3096TIP3   OH230922   0.906   5.936   7.754 -0.5331  0.0927  0.0175
 3096TIP3    H130923   0.896   6.028   7.731  0.1445  0.2810  0.4896
 3096TIP3    H230924   0.878   5.889   7.675 -1.4891  0.6861 -0.0011
 3097TIP3   OH230925   1.211   7.218   7.234 -0.2878 -0.6604  0.0387
 3097TIP3    H130926   1.249   7.305   7.248  0.9549 -1.0071 -1.0812
 3097TIP3    H230927   1.119   7.235   7.214  0.2172  0.5036 -1.3756
 3098TIP3   OH230928   5.361   6.941   7.591  0.3257  0.6216 -0.9886
 3098TIP3    H130929   5.370   6.935   7.686  0.4715  0.8495 -0.9883
 3098TIP3    H230930   5.391   7.029   7.570 -2.8548  1.8056 -0.8608
 3099TIP3   OH230931   7.092   5.807   6.249  0.8016  0.0834 -0.5001
 3099TIP3    H130932   7.174   5.829   6.292  0.0923 -2.7460  2.4868
 3099TIP3    H230933   7.115   5.735   6.189  0.7944  0.4417 -0.9393
 3100TIP3   OH230934   5.988   5.275   7.195  0.6708  0.3506 -0.0720
 3100TIP3    H130935   6.039   5.331   7.137  1.3025 -1.0513 -0.8972
 3100TIP3    H230936   5.900   5.275   7.157  0.9057  0.0214 -0.6249
 3101TIP3   OH230937   5.602   5.558   6.286 -0.0690  0.0928  0.6898
 3101TIP3    H130938   5.640   5.639   6.252  1.2502 -1.2470 -1.1668
 3101TIP3    H230939   5.521   5.547   6.237  1.7476 -1.7483 -2.0450
 3102TIP3   OH230940   5.932   5.333   1.555  0.2402  0.2646 -0.1895
 3102TIP3    H130941   5.867   5.324   1.485  1.3294 -1.8667 -0.9912
 3102TIP3    H230942   5.889   5.298   1.633  0.5081 -1.5229 -0.8078
 3103TIP3   OH230943   6.380   0.319   6.672 -0.4160  0.1058 -0.6338
 3103TIP3    H130944   6.316   0.306   6.602  0.0794 -3.2550 -0.5315
 3103TIP3    H230945   6.332   0.299   6.753  0.3959 -1.1240 -0.4512
 3104TIP3   OH230946   4.220   1.204   7.165 -0.4347 -0.4629  0.5319
 3104TIP3    H130947   4.205   1.251   7.247  0.3304  0.2906  0.2471
 3104TIP3    H230948   4.311   1.224   7.143 -0.0728 -2.1575  0.4520
 3105TIP3   OH230949   5.392   5.951   7.445 -0.1040  0.0243 -0.7115
 3105TIP3    H130950   5.354   5.943   7.358 -2.4781  1.7577  0.0818
 3105TIP3    H230951   5.404   5.861   7.476 -2.2233 -0.5867 -1.6072
 3106TIP3   OH230952   4.911   0.432   6.202 -0.5325  0.7817  1.2994
 3106TIP3    H130953   4.974   0.478   6.258  0.4948  1.4062 -0.3277
 3106TIP3    H230954   4.947   0.343   6.194  0.2568  1.1736  0.2647
 3107TIP3   OH230955   6.133   7.296   6.358 -0.2506 -0.0498 -0.2014
 3107TIP3    H130956   6.219   7.326   6.327 -0.2403  0.1872  0.0574
 3107TIP3    H230957   6.076   7.305   6.281  0.1600 -1.0728 -0.6313
 3108TIP3   OH230958   6.365   6.967   7.411  0.2390 -0.2938  0.0072
 3108TIP3    H130959   6.347   6.874   7.425 -0.5205 -0.5615 -2.4489
 3108TIP3    H230960   6.278   7.005   7.396  0.5626  0.8088  0.8647
 3109TIP3   OH230961   5.886   5.858   8.036 -0.0191  0.1093  0.9396
 3109TIP3    H130962   5.862   5.873   7.945 -3.1192 -0.0567  1.6844
 3109TIP3    H230963   5.950   5.927   8.056 -0.3203  0.9538 -0.9597
 3110TIP3   OH230964   6.042   6.179   6.100 -0.4590 -0.3406  0.0248
 3110TIP3    H130965   6.012   6.256   6.052 -1.3715 -0.2354  0.7418
 3110TIP3    H230966   5.962   6.135   6.128  0.0384 -1.9154 -0.9236
 3111TIP3   OH230967   7.005   3.961   6.525  0.0934 -0.5353  0.1072
 3111TIP3    H130968   7.100   3.970   6.529  0.0750  0.2903 -1.0241
 3111TIP3    H230969   6.981   3.924   6.610  1.2642  0.7348  1.0195
 3112TIP3   OH230970   6.676   6.046   5.974 -0.0013 -0.1060 -0.0533
 3112TIP3    H130971   6.744   6.014   6.033 -0.7215 -1.1448  0.2375
 3112TIP3    H230972   6.646   5.968   5.927  0.4104  0.6724 -1.6436
 3113TIP3   OH230973   6.374   6.108   5.903  0.0964 -0.5333 -0.2556
 3113TIP3    H130974   6.352   6.201   5.894  0.2432 -0.3507  1.1495
 3113TIP3    H230975   6.464   6.102   5.870  1.1385  0.3691  2.2989
 3114TIP3   OH230976   6.952   0.347   6.782 -0.1461  0.5487 -0.6357
 3114TIP3    H130977   7.025   0.383   6.832 -0.2253  0.0655 -0.1724
 3114TIP3    H230978   6.875   0.393   6.817 -0.3659 -0.7477  0.6250
 3115TIP3   OH230979   4.596   4.962   6.880 -0.1151  0.2739 -0.4241
 3115TIP3    H130980   4.571   4.911   6.957  2.1780  0.2352  0.3207
 3115TIP3    H230981   4.545   4.923   6.809 -0.4606 -1.2747  0.6358
 3116TIP3   OH230982   6.871   6.673   7.369 -0.3724 -0.5175  0.0424
 3116TIP3    H130983   6.940   6.739   7.358 -0.9521  0.0703 -0.1014
 3116TIP3    H230984   6.905   6.595   7.326 -0.4306  0.2216 -1.3940
 3117TIP3   OH230985   7.277   5.007   0.003 -0.0461 -0.5748 -0.5707
 3117TIP3    H130986   7.278   4.997  -0.092 -1.7182  0.6457 -0.7456
 3117TIP3    H230987   7.368   5.023   0.027 -0.0370  2.3576 -2.3549
 3118TIP3   OH230988   6.820   6.692   0.527 -0.4284 -0.0538  1.0718
 3118TIP3    H130989   6.895   6.726   0.480 -0.4081 -0.9245  0.4638
 3118TIP3    H230990   6.744   6.721   0.477 -0.4529 -0.0019  1.1393
 3119TIP3   OH230991   7.132   1.990   1.976 -0.1765  0.1086 -0.1227
 3119TIP3    H130992   7.178   2.010   2.058  0.9161 -0.2152 -0.6429
 3119TIP3    H230993   7.042   2.017   1.992  0.6384  2.8526  0.1662
 3120TIP3   OH230994   2.484   0.922   0.888 -0.0359  0.1213 -0.0869
 3120TIP3    H130995   2.578   0.917   0.870  0.5342  1.0299  2.4042
 3120TIP3    H230996   2.465   0.842   0.938 -0.4791  0.1771 -0.1659
 3121TIP3   OH230997   1.433   0.732   7.258  0.0429  0.3439  0.3831
 3121TIP3    H130998   1.375   0.765   7.190 -0.1184 -1.1146 -0.2100
 3121TIP3    H230999   1.511   0.703   7.210  0.9138  1.4780  1.0802
 3122TIP3   OH231000   2.980   2.853   1.350  0.5564  0.9001 -0.5303
 3122TIP3    H131001   2.962   2.897   1.266  0.6522 -1.1620 -1.6673
 3122TIP3    H231002   2.894   2.834   1.386  0.5027  0.7225 -0.7482
 3123TIP3   OH231003   1.304   3.030   1.129 -0.5813  0.0197 -0.4400
 3123TIP3    H131004   1.297   3.098   1.062  0.0128 -0.4806 -1.0120
 3123TIP3    H231005   1.358   3.069   1.198  1.2217 -0.4663 -1.5417
 3124TIP3   OH231006   3.470   3.094   0.200  0.0482  0.5540  0.1251
 3124TIP3    H131007   3.464   3.112   0.294  1.1590 -1.1592  0.5369
 3124TIP3    H231008   3.390   3.046   0.180  0.5691 -0.5116  0.5476
 3125TIP3   OH231009   0.031   7.222   8.351  0.8696 -0.3183  0.0977
 3125TIP3    H131010  -0.057   7.258   8.360  0.6914 -0.4376 -1.0907
 3125TIP3    H231011   0.067   7.266   8.274  1.5488 -0.8562  0.1080
 3126TIP3   OH231012   6.267   0.409   8.445 -0.3999 -0.4382 -0.1742
 3126TIP3    H131013   6.309   0.441   8.525 -1.6227  4.0972 -1.2358
 3126TIP3    H231014   6.324   0.441   8.374 -1.2683 -1.2885 -1.2722
 3127TIP3   OH231015   1.108   6.326   1.590 -0.4140 -0.0468  0.2377
 3127TIP3    H131016   1.192   6.368   1.608 -1.5921  2.0886  1.0022
 3127TIP3    H231017   1.105   6.252   1.651  0.2650  0.7774  1.3152
 3128TIP3   OH231018   1.091   5.158   0.476  0.1249 -0.4396  0.1027
 3128TIP3    H131019   1.082   5.127   0.566  0.2454 -0.5935  0.0613
 3128TIP3    H231020   1.179   5.130   0.449 -0.1844 -1.0192 -0.3079
 3129TIP3   OH231021   1.526   0.308   1.941 -0.1192 -0.0092  0.0806
 3129TIP3    H131022   1.442   0.263   1.948 -1.2370  2.1232  0.6777
 3129TIP3    H231023   1.525   0.372   2.012  3.2226 -1.8284  1.8608
 3130TIP3   OH231024   2.719   0.793   0.685 -0.5684  0.4203  0.5617
 3130TIP3    H131025   2.765   0.821   0.764 -0.0585 -1.0990  0.8071
 3130TIP3    H231026   2.711   0.699   0.694 -0.8266  0.2828 -1.0339
 3131TIP3   OH231027   1.100   6.115   7.308  0.1100  0.3069  0.6339
 3131TIP3    H131028   1.058   6.174   7.245  0.1058 -1.4509 -1.0657
 3131TIP3    H231029   1.028   6.067   7.348  0.1392  1.1795  1.7778
 3132TIP3   OH231030   2.651   1.223   0.852  0.3994  0.4010 -0.1085
 3132TIP3    H131031   2.649   1.203   0.946  0.6276  0.2291 -0.1395
 3132TIP3    H231032   2.708   1.300   0.845 -1.1129  1.5603  0.0986
 3133TIP3   OH231033   0.014   5.465   8.421 -0.0437  0.3348 -0.1844
 3133TIP3    H131034  -0.072   5.455   8.380  0.7211 -2.4173 -1.2322
 3133TIP3    H231035   0.052   5.542   8.378 -1.8613  1.4297  0.1152
 3134TIP3   OH231036   1.345   0.095   6.952  0.5684 -0.2749  0.4914
 3134TIP3    H131037   1.329   0.128   7.041  1.8560 -1.0892  1.0329
 3134TIP3    H231038   1.428   0.135   6.926  1.7597 -2.4495  0.8606
 3135TIP3   OH231039   0.498   2.616   2.193  0.1545  0.4284  0.1121
 3135TIP3    H131040   0.572   2.564   2.224  0.2770  0.7266  0.3220
 3135TIP3    H231041   0.532   2.706   2.189  0.0666  0.4380 -0.6274
 3136TIP3   OH231042   1.825   0.048   1.644 -0.0713  0.6230  0.3435
 3136TIP3    H131043   1.747   0.025   1.592 -0.3406  0.5180  0.7909
 3136TIP3    H231044   1.854  -0.035   1.681  0.4430  0.6132 -0.0803
 3137TIP3   OH231045   7.300   0.420   1.089 -0.3774 -0.2847  0.7652
 3137TIP3    H131046   7.373   0.362   1.067 -2.1003 -1.5613 -1.8334
 3137TIP3    H231047   7.311   0.497   1.034 -0.5240 -0.0962  0.9943
 3138TIP3   OH231048   0.059   6.497   0.250  0.1437  0.2477 -0.8111
 3138TIP3    H131049  -0.030   6.463   0.261  1.2164 -1.5800  3.1568
 3138TIP3    H231050   0.105   6.427   0.203 -0.1321  0.5396 -1.5188
 3139TIP3   OH231051   1.855   4.186   0.580  0.1705  0.9655  0.1721
 3139TIP3    H131052   1.778   4.200   0.634 -1.5804 -1.4532 -1.5920
 3139TIP3    H231053   1.897   4.109   0.618 -0.0811  0.3379 -0.8048
 3140TIP3   OH231054   1.543   1.667   1.906  0.2212  0.5098 -0.2550
 3140TIP3    H131055   1.581   1.734   1.849  0.7628  0.4101 -0.0103
 3140TIP3    H231056   1.615   1.608   1.926  0.0224  0.5082  0.4846
 3141TIP3   OH231057   2.111   0.973   7.787  0.3916  0.0529  0.1959
 3141TIP3    H131058   2.023   1.005   7.807  0.9308  1.4445  0.4539
 3141TIP3    H231059   2.101   0.879   7.776 -0.9032  0.0228  1.4943
 3142TIP3   OH231060   0.063   5.835   7.897 -0.2607  0.1434  0.0898
 3142TIP3    H131061   0.155   5.858   7.889  0.1642 -1.8568 -1.2261
 3142TIP3    H231062   0.029   5.893   7.965  2.2389  0.1086  1.4328
 3143TIP3   OH231063   0.024   4.951   1.507  0.4275 -0.4527 -0.1239
 3143TIP3    H131064  -0.038   4.879   1.495 -0.1865  0.3899 -2.1922
 3143TIP3    H231065  -0.020   5.010   1.568 -0.4790 -0.2375 -0.9783
 3144TIP3   OH231066   6.930   3.819   1.021  0.4599  0.0231  0.7416
 3144TIP3    H131067   6.952   3.903   1.061  0.5093  0.3222  0.1046
 3144TIP3    H231068   7.013   3.772   1.015  0.8937  0.9981 -1.3151
 3145TIP3   OH231069   3.394   3.447   1.082 -0.4449 -0.1514  0.0121
 3145TIP3    H131070   3.329   3.384   1.115  0.7595 -0.5995  1.5693
 3145TIP3    H231071   3.441   3.399   1.014 -1.0572 -0.1539 -0.4197
 3146TIP3   OH231072   1.786   6.491   0.883  0.3869  0.4501  0.2808
 3146TIP3    H131073   1.744   6.437   0.950  1.3140  1.1415  1.4552
 3146TIP3    H231074   1.841   6.430   0.834  0.2516  0.0566  0.6139
 3147TIP3   OH231075   5.231   0.777   1.013 -0.0078 -0.0231  0.1088
 3147TIP3    H131076   5.137   0.773   1.029 -0.5284 -0.0356 -2.6812
 3147TIP3    H231077   5.254   0.869   1.026 -0.6082  0.1819 -0.2798
 3148TIP3   OH231078   2.595   0.423   0.467 -0.0388  0.1330 -0.6313
 3148TIP3    H131079   2.597   0.499   0.409  2.4087  0.0720 -0.6492
 3148TIP3    H231080   2.626   0.351   0.412  0.7459 -0.2462  0.3044
 3149TIP3   OH231081   0.985   7.251   8.263  0.0769 -0.2583  0.6981
 3149TIP3    H131082   0.948   7.339   8.270 -0.4938 -0.5447  1.3058
 3149TIP3    H231083   1.076   7.265   8.235 -0.1854  0.4935  0.2231
 3150TIP3   OH231084   2.566   1.658   0.382 -0.2990 -0.5119 -0.4857
 3150TIP3    H131085   2.574   1.579   0.437 -0.0043 -1.2935 -1.6386
 3150TIP3    H231086   2.473   1.677   0.382 -0.2450 -0.1798  0.7349
 3151TIP3   OH231087   2.990   2.767   0.701  0.0245 -0.1883 -0.3137
 3151TIP3    H131088   2.971   2.757   0.608  0.3242 -0.3677 -0.3566
 3151TIP3    H231089   2.919   2.720   0.746  0.0386 -0.3438 -0.4561
 3152TIP3   OH231090   2.153   5.695   8.366  0.7563  0.1849  0.0114
 3152TIP3    H131091   2.187   5.763   8.307  0.5474 -0.5821 -0.9933
 3152TIP3    H231092   2.232   5.652   8.399  0.8481  0.0784 -0.3422
 3153TIP3   OH231093   2.377   1.453   7.801 -0.2447  0.1079  0.4154
 3153TIP3    H131094   2.399   1.372   7.847  2.1163  0.8856  0.7047
 3153TIP3    H231095   2.397   1.522   7.864  1.1627  1.0996 -1.1017
 3154TIP3   OH231096   2.505   7.150   1.201 -0.1229 -0.7189 -0.0868
 3154TIP3    H131097   2.563   7.185   1.133 -0.3789 -0.0604  0.0226
 3154TIP3    H231098   2.463   7.228   1.238 -0.5677 -1.1368  0.2926
 3155TIP3   OH231099   0.436   5.572   7.519 -0.3711 -0.0805  0.1339
 3155TIP3    H131100   0.512   5.631   7.528  1.6963 -2.7863  1.2358
 3155TIP3    H231101   0.362   5.623   7.553  1.1794  2.2000  0.2142
 3156TIP3   OH231102   2.761   0.125   7.338  0.0111  0.3600  0.7481
 3156TIP3    H131103   2.842   0.101   7.293 -0.4678 -0.9280  0.5381
 3156TIP3    H231104   2.700   0.148   7.268 -0.2872 -0.2292  0.8095
 3157TIP3   OH231105   5.895   6.819   0.135 -0.0801  0.2100 -0.3958
 3157TIP3    H131106   5.868   6.779   0.052 -0.6191 -1.0572  0.3797
 3157TIP3    H231107   5.814   6.858   0.170  0.1046  0.5694 -0.3684
 3158TIP3   OH231108   2.197   6.319   0.865  0.0025  0.2298 -0.2195
 3158TIP3    H131109   2.180   6.339   0.957  0.9360  1.5779 -0.3171
 3158TIP3    H231110   2.134   6.373   0.817 -0.6602 -0.6725 -0.3637
 3159TIP3   OH231111   2.321   3.871   8.463 -0.3422  0.0802 -0.1358
 3159TIP3    H131112   2.280   3.827   8.538 -1.6996  0.9145 -0.3850
 3159TIP3    H231113   2.381   3.805   8.428  0.4199 -0.2766  1.7605
 3160TIP3   OH231114   1.991   0.236   8.162  0.6362 -0.0990 -0.2483
 3160TIP3    H131115   1.896   0.230   8.161  0.6204  0.1932 -0.9824
 3160TIP3    H231116   2.010   0.318   8.116  1.1675  0.8499  1.5889
 3161TIP3   OH231117   4.170   1.124   0.640  0.1403 -0.3352 -0.3815
 3161TIP3    H131118   4.248   1.169   0.671 -1.0279  1.7466 -0.3985
 3161TIP3    H231119   4.195   1.032   0.636  2.8286  0.4035 -1.1362
 3162TIP3   OH231120   3.503   1.248   1.373 -0.0054  0.0088  0.2558
 3162TIP3    H131121   3.539   1.164   1.346  1.6132  0.2725  1.5336
 3162TIP3    H231122   3.413   1.228   1.400 -0.0800 -1.0566 -0.7536
 3163TIP3   OH231123   4.395   0.936   0.791  0.0565 -0.3439  0.3759
 3163TIP3    H131124   4.452   0.915   0.717 -0.3369  4.2993 -1.3989
 3163TIP3    H231125   4.321   0.876   0.782  1.0715 -1.3322 -1.7535
 3164TIP3   OH231126   2.565   1.921   7.780  0.1016  0.1560  0.0435
 3164TIP3    H131127   2.578   1.975   7.859  2.0687  1.2537 -0.9891
 3164TIP3    H231128   2.569   1.831   7.812 -1.8506  0.5907  1.5989
 3165TIP3   OH231129   2.201   3.953   0.353  0.2820  0.4805 -0.7113
 3165TIP3    H131130   2.175   4.030   0.402 -2.4212  0.0915 -1.4374
 3165TIP3    H231131   2.173   3.971   0.263  1.5476 -0.4780 -1.3240
 3166TIP3   OH231132   0.530   0.773   6.230  0.1477  0.6021 -0.9112
 3166TIP3    H131133   0.561   0.696   6.182 -0.1889  0.2871 -0.6272
 3166TIP3    H231134   0.541   0.749   6.322 -0.4195  0.7040 -0.8140
 3167TIP3   OH231135   0.543   5.499   8.125 -1.0709  0.4123  0.1088
 3167TIP3    H131136   0.506   5.486   8.212  0.4916 -1.7743  0.4956
 3167TIP3    H231137   0.499   5.433   8.070 -0.8105  0.6320 -0.3661
 3168TIP3   OH231138   1.665   0.460   6.729  0.3769 -0.1007  0.3195
 3168TIP3    H131139   1.730   0.529   6.737 -1.0245  1.0042  2.4475
 3168TIP3    H231140   1.584   0.506   6.704 -0.9930 -0.7105  3.4746
 3169TIP3   OH231141   2.752   0.534   1.527 -0.1018 -0.0939 -0.6331
 3169TIP3    H131142   2.833   0.555   1.574 -1.2407  1.8910  0.5255
 3169TIP3    H231143   2.716   0.459   1.574 -1.0469  1.6505  1.5456
 3170TIP3   OH231144   2.877   2.015   7.336  0.6580  0.3715  0.2299
 3170TIP3    H131145   2.814   1.983   7.401  0.0612 -0.9878 -0.9677
 3170TIP3    H231146   2.921   1.936   7.305  1.8370  1.1474 -0.1032
 3171TIP3   OH231147   2.933   0.060   7.557 -0.2540 -0.0503  0.1776
 3171TIP3    H131148   2.989   0.064   7.479 -1.1061 -2.0668 -0.5700
 3171TIP3    H231149   2.923   0.151   7.584  0.5244  0.6308 -1.7385
 3172TIP3   OH231150   1.645   1.047   7.682 -0.7382  0.0621 -0.2481
 3172TIP3    H131151   1.700   1.020   7.755  0.9871  0.2823 -1.4566
 3172TIP3    H231152   1.555   1.032   7.714 -0.0809  1.2696  2.3435
 3173TIP3   OH231153   3.761   1.052   7.221 -0.2714  0.1517  0.3321
 3173TIP3    H131154   3.825   1.116   7.188 -1.3054  1.7483  1.3409
 3173TIP3    H231155   3.804   0.967   7.211  1.0040  0.9670 -1.3503
 3174TIP3   OH231156   3.731   7.206   6.883  0.3402  0.1143  0.1820
 3174TIP3    H131157   3.798   7.141   6.862  0.9878  0.6432  0.6085
 3174TIP3    H231158   3.651   7.155   6.896  0.3414 -0.4109 -1.6784
 3175TIP3   OH231159   2.901   0.773   7.255  0.4127 -0.4598  0.3270
 3175TIP3    H131160   2.883   0.773   7.349 -0.8293 -1.3994  0.1013
 3175TIP3    H231161   2.966   0.703   7.244 -0.2142 -1.0549  0.3563
 3176TIP3   OH231162   3.920   2.977   0.058 -0.2259 -0.0685 -0.1237
 3176TIP3    H131163   3.834   2.939   0.080 -1.9313  2.2094 -2.5286
 3176TIP3    H231164   3.971   2.903   0.025 -1.8919 -1.1284 -0.4036
 3177TIP3   OH231165   4.587   4.273   7.381  0.0928 -0.2611  0.1196
 3177TIP3    H131166   4.679   4.298   7.372 -0.0542  1.1095  2.0588
 3177TIP3    H231167   4.557   4.258   7.291  1.9715  0.1103 -0.5917
 3178TIP3   OH231168   0.991   0.459   6.479 -0.2170  0.1017  0.5245
 3178TIP3    H131169   1.068   0.495   6.434 -0.0926 -0.2490  0.4573
 3178TIP3    H231170   0.924   0.527   6.470 -0.0603  0.2128  0.1768
 3179TIP3   OH231171   3.471   1.351   1.088  0.1257  0.1701 -0.3781
 3179TIP3    H131172   3.508   1.321   1.171 -0.5658 -1.5337 -0.6747
 3179TIP3    H231173   3.442   1.272   1.044  2.9327  0.7971 -3.4944
 3180TIP3   OH231174   1.759   3.797   0.979  0.5187  0.5246 -0.4136
 3180TIP3    H131175   1.831   3.806   1.041  0.3186  1.9167 -0.3670
 3180TIP3    H231176   1.706   3.876   0.992  0.2958  0.6754 -2.1204
 3181TIP3   OH231177   2.351   1.565   8.191  0.6444  0.8019  0.0708
 3181TIP3    H131178   2.294   1.614   8.251  0.0156 -0.6740  0.7210
 3181TIP3    H231179   2.332   1.602   8.105 -2.0241 -0.2621  0.1516
 3182TIP3   OH231180   3.427   2.410   8.364  0.5189  0.2089 -0.0366
 3182TIP3    H131181   3.448   2.413   8.271  0.9848 -1.1041  0.0136
 3182TIP3    H231182   3.498   2.458   8.406 -0.8228  2.7122 -0.5067
 3183TIP3   OH231183   4.362   2.173   7.387  0.3684 -0.0328 -0.1085
 3183TIP3    H131184   4.340   2.263   7.408 -0.1703 -0.3003  0.4924
 3183TIP3    H231185   4.287   2.122   7.418  0.6946 -0.6917 -0.3876
 3184TIP3   OH231186   2.893   0.817   0.439  0.0049  0.2960  0.0152
 3184TIP3    H131187   2.942   0.735   0.446 -2.7151 -1.4034 -0.3913
 3184TIP3    H231188   2.816   0.804   0.493 -1.3316  1.9415 -1.4241
 3185TIP3   OH231189   0.935   6.367   0.666 -0.1790 -0.2865  0.1316
 3185TIP3    H131190   0.859   6.422   0.684 -0.6309 -1.5273  2.1019
 3185TIP3    H231191   0.899   6.279   0.653  0.7527 -0.5436 -0.8286
 3186TIP3   OH231192   3.116   0.516   0.315 -0.7228  0.6794  0.1668
 3186TIP3    H131193   3.047   0.522   0.381 -1.9866 -0.6917 -0.9895
 3186TIP3    H231194   3.068   0.514   0.232  0.7412  0.3072 -0.6716
 3187TIP3   OH231195   3.310   1.179   8.424  0.1955 -0.2850 -0.0069
 3187TIP3    H131196   3.360   1.111   8.469  1.4587  1.1888  0.8327
 3187TIP3    H231197   3.330   1.165   8.331  1.3504 -0.3552  0.2413
 3188TIP3   OH231198   5.212   1.895   0.180 -0.1272 -0.2799 -0.1272
 3188TIP3    H131199   5.268   1.835   0.229 -0.5683 -1.7906 -1.4200
 3188TIP3    H231200   5.165   1.945   0.247  0.5471 -1.0854  0.9631
 3189TIP3   OH231201   0.831   5.679   0.080 -0.7919  0.5153 -0.0981
 3189TIP3    H131202   0.899   5.730   0.123 -0.2606 -0.3159  0.0596
 3189TIP3    H231203   0.777   5.744   0.035 -0.5204  1.2716  0.6421
 3190TIP3   OH231204   3.107   6.736   0.351  0.2506 -0.2030 -0.5647
 3190TIP3    H131205   3.117   6.713   0.443  0.7407 -0.5674 -0.7094
 3190TIP3    H231206   3.054   6.815   0.352  1.9436  0.9457  0.1355
 3191TIP3   OH231207   2.720   6.432   6.760 -0.4087  0.3236 -0.1922
 3191TIP3    H131208   2.634   6.454   6.797 -0.2003  0.2982  0.3099
 3191TIP3    H231209   2.775   6.507   6.782 -0.6213  0.9085 -1.6169
 3192TIP3   OH231210   3.119   1.253   7.109  0.4521  0.0305 -0.2021
 3192TIP3    H131211   3.212   1.239   7.093  0.9881  0.0391  2.6757
 3192TIP3    H231212   3.086   1.168   7.139 -0.3728  0.1752 -0.6540
 3193TIP3   OH231213   3.617   2.616   1.156  0.3400  0.1276 -0.5347
 3193TIP3    H131214   3.614   2.540   1.214  1.5245  0.6816  0.2700
 3193TIP3    H231215   3.537   2.609   1.104 -0.4436 -0.7002  0.7440
 3194TIP3   OH231216   2.555   1.685   0.081  0.4331 -0.3629  0.4518
 3194TIP3    H131217   2.519   1.773   0.065 -1.8545 -1.1406  1.1585
 3194TIP3    H231218   2.566   1.680   0.176  1.1748 -0.6222  0.3559
 3195TIP3   OH231219   4.818   1.423   7.383  0.1622  0.1389  0.2321
 3195TIP3    H131220   4.788   1.378   7.463 -0.8171  2.4404  1.2003
 3195TIP3    H231221   4.914   1.418   7.388  0.1080  0.0741  1.4427
 3196TIP3   OH231222   6.550   5.625   8.266  0.0382  0.6305 -0.1335
 3196TIP3    H131223   6.470   5.594   8.223  0.8930  0.4445 -1.6421
 3196TIP3    H231224   6.545   5.592   8.355 -0.7108 -0.9204 -0.7323
 3197TIP3   OH231225   3.084   0.482   1.318  0.7912  0.3935 -0.3539
 3197TIP3    H131226   3.118   0.558   1.366 -1.5002  0.3408  1.3824
 3197TIP3    H231227   3.000   0.511   1.282  0.9424 -0.6272 -1.5841
 3198TIP3   OH231228   3.631   5.367   0.521 -0.1710 -0.2536  0.0183
 3198TIP3    H131229   3.608   5.329   0.606  0.9226  1.0810  0.9196
 3198TIP3    H231230   3.634   5.461   0.537  0.8097 -0.0501 -1.3123
 3199TIP3   OH231231   2.452   6.616   0.908 -0.9281  0.7723 -0.0789
 3199TIP3    H131232   2.417   6.620   0.819  0.0960  2.3656 -0.4184
 3199TIP3    H231233   2.374   6.615   0.964 -1.5748 -0.2175 -0.9811
 3200TIP3   OH231234   0.449   7.327   0.737  0.6773  0.8819  0.0167
 3200TIP3    H131235   0.465   7.234   0.755  1.5191  1.3205  1.5683
 3200TIP3    H231236   0.355   7.339   0.754  0.7314  0.4971  0.5599
 3201TIP3   OH231237   2.953   2.446   0.715 -0.1474 -0.1439 -0.8541
 3201TIP3    H131238   2.975   2.516   0.653  0.1149  0.7183  0.2169
 3201TIP3    H231239   3.031   2.391   0.717 -0.4265 -0.5913 -1.8460
 3202TIP3   OH231240   2.760   1.392   1.712  0.1244  0.1894  0.2278
 3202TIP3    H131241   2.827   1.327   1.734 -0.9515 -0.4255  1.7296
 3202TIP3    H231242   2.686   1.370   1.768 -1.5450  0.5495 -1.8124
 3203TIP3   OH231243   4.453   7.318   7.870  0.1394 -0.0373 -0.1690
 3203TIP3    H131244   4.399   7.364   7.807 -0.6981 -1.7646 -0.7410
 3203TIP3    H231245   4.452   7.227   7.841  1.4471 -0.5009  1.1505
 3204TIP3   OH231246   4.179   0.240   0.360  0.0923 -0.5875 -0.6273
 3204TIP3    H131247   4.274   0.241   0.362  0.0825 -0.1616 -0.1552
 3204TIP3    H231248   4.153   0.303   0.427 -0.5163  0.2698 -1.6538
 3205TIP3   OH231249   5.901   1.887   1.717 -0.0938  0.0213  0.0729
 3205TIP3    H131250   5.915   1.815   1.777 -0.5310 -1.0588 -1.1011
 3205TIP3    H231251   5.883   1.962   1.774 -0.7659 -1.0324  1.2798
 3206TIP3   OH231252   5.526   1.053   8.247  0.0179  0.5656 -0.0087
 3206TIP3    H131253   5.516   0.977   8.190  1.8692 -1.2743  2.0090
 3206TIP3    H231254   5.616   1.082   8.233 -0.4957  2.0514 -0.3260
 3207TIP3   OH231255   4.385   1.290   0.701  0.1428 -0.0589  0.0336
 3207TIP3    H131256   4.415   1.317   0.787  1.9121  1.0904 -0.8989
 3207TIP3    H231257   4.460   1.242   0.664 -0.5220 -0.3600 -0.9353
 3208TIP3   OH231258   4.569   0.626   0.609  0.1237 -0.3749  0.1612
 3208TIP3    H131259   4.501   0.627   0.677  0.6481 -0.1884  0.6808
 3208TIP3    H231260   4.604   0.715   0.609  1.4857 -0.8927  1.0197
 3209TIP3   OH231261   3.592   6.769   6.386 -0.1635  0.1083 -0.2722
 3209TIP3    H131262   3.533   6.819   6.329  0.2240  1.3013  0.3549
 3209TIP3    H231263   3.563   6.678   6.376 -2.8962  0.8019  0.9530
 3210TIP3   OH231264   5.329   1.347   7.187 -0.7971  0.0691 -0.1186
 3210TIP3    H131265   5.332   1.254   7.210  0.2275  0.1191 -0.0263
 3210TIP3    H231266   5.280   1.350   7.105  0.9540 -0.7950 -1.2386
 3211TIP3   OH231267   7.066   7.051   1.239  0.2652  0.1747 -0.1729
 3211TIP3    H131268   7.085   7.019   1.327 -0.2187 -1.4263 -0.6315
 3211TIP3    H231269   7.002   7.121   1.252 -0.7687 -0.9002  0.6778
 3212TIP3   OH231270   4.031   1.007   6.665  0.2808 -0.2072  0.2651
 3212TIP3    H131271   4.001   0.917   6.651  2.8016 -1.1315  0.4893
 3212TIP3    H231272   4.021   1.049   6.579 -0.6960 -0.7487  0.1032
 3213TIP3   OH231273   4.628   7.158   0.541  0.7985 -0.0225  0.3796
 3213TIP3    H131274   4.706   7.165   0.486  2.1225  1.3731  2.3607
 3213TIP3    H231275   4.556   7.146   0.479  2.4103 -0.0056 -1.5586
 3214TIP3   OH231276   4.656   5.817   7.805 -0.2327 -0.1509  0.1937
 3214TIP3    H131277   4.648   5.847   7.896  0.2151 -0.1500  0.2350
 3214TIP3    H231278   4.744   5.780   7.800 -0.8054 -1.5334  0.1538
 3215TIP3   OH231279   5.303   0.478   7.749  0.3212  0.2871  0.2286
 3215TIP3    H131280   5.304   0.445   7.839  0.4701 -0.8155 -0.1742
 3215TIP3    H231281   5.391   0.460   7.715  0.3384  0.9103 -0.0616
 3216TIP3   OH231282   6.239   6.762   1.645  0.2787  0.2352 -0.4644
 3216TIP3    H131283   6.297   6.754   1.720 -1.4441 -0.1993  0.8519
 3216TIP3    H231284   6.186   6.839   1.663 -0.2441  0.0530 -1.1742
 3217TIP3   OH231285   5.771   7.327   7.866  0.2715 -0.5029 -0.1694
 3217TIP3    H131286   5.821   7.370   7.935  1.7423 -1.4784 -0.5967
 3217TIP3    H231287   5.680   7.348   7.886  0.8161  1.0276  0.8221
 3218TIP3   OH231288   5.197   0.399   0.654 -0.0213  0.1217  0.3700
 3218TIP3    H131289   5.184   0.313   0.613 -0.9202  0.4179  0.0216
 3218TIP3    H231290   5.243   0.450   0.587 -1.2016  0.5044 -0.1612
 3219TIP3   OH231291   6.357   6.675   8.231 -0.0601 -0.2194 -0.3422
 3219TIP3    H131292   6.267   6.704   8.242  0.0004  0.0542 -0.5768
 3219TIP3    H231293   6.352   6.607   8.163 -0.1024 -0.2705 -0.2877
 3220TIP3   OH231294   4.266   0.680   7.851 -0.0417  0.7747  0.7853
 3220TIP3    H131295   4.345   0.705   7.898  0.3829 -0.9785  1.0145
 3220TIP3    H231296   4.284   0.593   7.817 -0.9623  1.3359 -1.2394
 3221TIP3   OH231297   2.647   1.083   0.611 -0.2289 -0.1520  0.0943
 3221TIP3    H131298   2.656   1.155   0.673  1.8833  0.1437 -0.5092
 3221TIP3    H231299   2.625   1.007   0.665  0.2920  0.3806  1.0721
 3222TIP3   OH231300   4.214   0.404   0.792 -0.3349  0.3292  0.3321
 3222TIP3    H131301   4.209   0.393   0.697 -0.3400  1.7527  0.1620
 3222TIP3    H231302   4.124   0.418   0.820 -0.1358  1.6127  0.3341
 3223TIP3   OH231303   3.072   2.662   0.107 -0.4498 -0.1916  0.0019
 3223TIP3    H131304   3.019   2.740   0.120  0.3064  0.3210  0.0126
 3223TIP3    H231305   3.103   2.640   0.195  2.0318  1.4095 -0.4349
 3224TIP3   OH231306   5.809   6.936   1.070  0.4370 -0.0902 -0.2559
 3224TIP3    H131307   5.753   6.957   0.995  0.6470  1.9125  0.1143
 3224TIP3    H231308   5.817   7.019   1.118  2.9057 -0.5789  0.2428
 3225TIP3   OH231309   4.682   7.111   1.720  0.6435  0.2856 -0.4536
 3225TIP3    H131310   4.734   7.127   1.799  0.4753  0.2765 -0.3407
 3225TIP3    H231311   4.629   7.034   1.741  0.8658  0.0601 -0.7080
 3226TIP3   OH231312   3.008   3.525   7.707  0.1465  0.5009 -0.0815
 3226TIP3    H131313   3.081   3.463   7.722  1.1632  1.0990 -2.3153
 3226TIP3    H231314   3.050   3.603   7.670 -1.4300  1.5538  0.3065
 3227TIP3   OH231315   5.586   7.320   7.262  0.0854 -0.0968 -0.0887
 3227TIP3    H131316   5.552   7.329   7.173  0.0288  0.3498 -0.0199
 3227TIP3    H231317   5.673   7.359   7.259  1.2836 -2.7149 -0.6731
 3228TIP3   OH231318   4.918   7.010   0.701  0.4409 -0.4053 -0.1126
 3228TIP3    H131319   4.838   7.005   0.649 -1.6876 -0.1721  3.0047
 3228TIP3    H231320   4.960   6.925   0.690 -1.7427 -1.5840  0.5606
 3229TIP3   OH231321   6.320   6.177   8.050  0.1810 -0.0072 -0.1343
 3229TIP3    H131322   6.324   6.185   8.145 -0.6922  1.7195 -0.2198
 3229TIP3    H231323   6.328   6.083   8.033  0.2419 -0.3331  1.6388
 3230TIP3   OH231324   4.455   6.038   8.159 -0.5988 -0.2786  0.0483
 3230TIP3    H131325   4.411   6.096   8.097 -0.4221  0.7593  0.8793
 3230TIP3    H231326   4.490   6.096   8.226 -0.8540 -1.3997  1.1754
 3231TIP3   OH231327   3.017   1.768   1.304  0.6388  0.2453  0.4413
 3231TIP3    H131328   3.112   1.759   1.312  0.6513  0.6964  0.7880
 3231TIP3    H231329   2.982   1.683   1.329  1.1396 -1.0729 -3.0602
 3232TIP3   OH231330   4.579   5.836   0.168  0.4983 -0.6714  0.5579
 3232TIP3    H131331   4.500   5.806   0.212  0.9771 -1.1653  1.0888
 3232TIP3    H231332   4.575   5.931   0.174 -1.6027 -0.5455 -2.1527
 3233TIP3   OH231333   3.601   2.024   7.857 -0.0976  0.5423 -0.1125
 3233TIP3    H131334   3.566   2.036   7.945 -0.3366 -1.2144  0.0566
 3233TIP3    H231335   3.537   2.067   7.800  0.5189  2.4740  0.6151
 3234TIP3   OH231336   4.067   1.396   0.720  0.3517 -0.3915 -0.0955
 3234TIP3    H131337   4.122   1.468   0.751  0.2973 -0.0651 -0.7491
 3234TIP3    H231338   4.106   1.372   0.636 -0.8819  0.2588 -0.8647
 3235TIP3   OH231339   4.895   3.782   6.412 -0.0687 -0.0478  0.3632
 3235TIP3    H131340   4.869   3.823   6.495 -1.4197  1.1116 -0.6042
 3235TIP3    H231341   4.814   3.743   6.378 -0.3224  2.3176 -1.9693
 3236TIP3   OH231342   3.537   6.714   0.295  0.4761  0.0526  0.0807
 3236TIP3    H131343   3.608   6.778   0.293  0.0766  0.5580  1.3058
 3236TIP3    H231344   3.473   6.747   0.232 -0.5426  1.8810  1.9861
 3237TIP3   OH231345   4.277   1.007   7.396  0.0725  0.0558 -0.0915
 3237TIP3    H131346   4.261   1.099   7.418  2.2089  0.9574 -2.0669
 3237TIP3    H231347   4.264   1.003   7.301  0.1720 -1.6619 -0.0478
 3238TIP3   OH231348   5.339   0.677   7.382 -0.1878 -0.4007 -0.0640
 3238TIP3    H131349   5.356   0.680   7.476  2.6338  1.3221 -0.5850
 3238TIP3    H231350   5.350   0.584   7.359 -1.1685 -0.8808  1.3232
 3239TIP3   OH231351   0.052   7.279   7.817  0.5685 -0.4743  0.4069
 3239TIP3    H131352   0.148   7.284   7.809  0.5024  0.6579  0.1087
 3239TIP3    H231353   0.020   7.324   7.739 -0.2351 -2.8372 -0.6354
 3240TIP3   OH231354   6.035   0.913   7.320  0.0086  0.0541  1.0299
 3240TIP3    H131355   6.073   0.859   7.390  2.6486  0.2810 -0.1755
 3240TIP3    H231356   5.998   0.850   7.259 -1.9349 -0.1616  2.4051
 3241TIP3   OH231357   4.024   1.293   7.674 -0.2540 -0.5114 -0.4372
 3241TIP3    H131358   3.973   1.224   7.630  1.0592 -1.7838  0.0079
 3241TIP3    H231359   4.053   1.252   7.756  0.4109  0.6300 -0.1009
 3242TIP3   OH231360   4.253   6.731   7.850 -0.0830 -0.2119 -0.1689
 3242TIP3    H131361   4.255   6.670   7.777  1.7980  0.3875 -0.6599
 3242TIP3    H231362   4.340   6.724   7.890 -0.4687  0.7794  0.8909
 3243TIP3   OH231363   4.673   1.162   6.703  0.3263  0.5752 -0.4655
 3243TIP3    H131364   4.613   1.234   6.685  1.4446  1.7926  0.5382
 3243TIP3    H231365   4.737   1.166   6.631 -0.1343  0.0095 -0.9066
 3244TIP3   OH231366   2.657   2.943   7.567 -0.0845 -0.2317 -0.4438
 3244TIP3    H131367   2.671   2.962   7.474 -1.4724 -0.2475 -0.6658
 3244TIP3    H231368   2.647   3.029   7.607  1.8342 -0.1636 -0.0780
 3245TIP3   OH231369   1.876   6.483   1.185  0.2948  0.2735  0.4260
 3245TIP3    H131370   1.858   6.391   1.167  1.2719 -0.2623  2.0841
 3245TIP3    H231371   1.792   6.520   1.212 -0.3224  0.1341 -1.2439
 3246TIP3   OH231372   7.214   1.273   1.682 -0.4368 -0.3963 -0.5688
 3246TIP3    H131373   7.124   1.248   1.663 -0.9150  1.0825 -0.2574
 3246TIP3    H231374   7.236   1.226   1.762 -1.1648 -0.2012 -0.2534
 3247TIP3   OH231375   5.572   7.148   7.470 -0.0574 -0.3994 -0.2341
 3247TIP3    H131376   5.560   7.066   7.422 -1.4731  0.0537 -0.6855
 3247TIP3    H231377   5.612   7.208   7.407  0.1490 -0.4810 -0.1796
 3248TIP3   OH231378   6.964   6.375   0.970 -0.2038 -0.6068  0.0508
 3248TIP3    H131379   6.946   6.281   0.962  0.2065 -0.8598  1.8408
 3248TIP3    H231380   6.907   6.416   0.905  0.0979 -2.1335 -1.2349
 3249TIP3   OH231381   0.704   2.060   1.304 -0.1168 -0.4653 -0.1107
 3249TIP3    H131382   0.643   2.036   1.235  1.6991 -2.1912 -1.1726
 3249TIP3    H231383   0.682   2.151   1.326 -2.1552 -0.6376 -1.3831
 3250TIP3   OH231384   1.087   7.291   1.088  0.4269  0.2996  0.0277
 3250TIP3    H131385   1.140   7.238   1.147 -0.0704 -0.6701 -0.3801
 3250TIP3    H231386   1.049   7.359   1.144 -0.5930 -1.0172  0.9919
 3251TIP3   OH231387   4.843   0.500   8.006  0.2817 -0.4013 -0.4534
 3251TIP3    H131388   4.781   0.549   7.951 -1.3275  1.2637  2.6787
 3251TIP3    H231389   4.926   0.547   7.998 -0.0408  0.0454 -1.1535
 3252TIP3   OH231390   3.273   4.996   8.047 -0.2508  0.5390  0.1287
 3252TIP3    H131391   3.209   4.960   8.109  1.5736 -1.0836  1.1246
 3252TIP3    H231392   3.287   5.086   8.077 -1.1557  0.5250  0.6255
 3253TIP3   OH231393   5.589   6.316   7.133 -0.3036 -0.4196 -0.1094
 3253TIP3    H131394   5.528   6.274   7.195 -0.3874 -1.9124 -1.1677
 3253TIP3    H231395   5.665   6.340   7.187 -1.2525  0.2433  0.9715
 3254TIP3   OH231396   0.785   6.191   7.904 -0.0249 -0.4172  0.5572
 3254TIP3    H131397   0.871   6.212   7.941 -0.3399 -1.0962  1.6688
 3254TIP3    H231398   0.739   6.145   7.973 -1.2962 -0.0720 -0.0396
 3255TIP3   OH231399   5.746   0.566   1.421 -0.2546 -0.1715  0.0330
 3255TIP3    H131400   5.816   0.623   1.454  1.0848 -0.7469 -1.7343
 3255TIP3    H231401   5.751   0.488   1.477  0.6830 -0.3141 -0.2369
 3256TIP3   OH231402   1.149   6.045   8.454  0.2090  0.2784 -0.3806
 3256TIP3    H131403   1.202   6.016   8.528  0.0738  0.4826 -0.2070
 3256TIP3    H231404   1.210   6.093   8.398  0.1705  0.6323 -0.1124
 3257TIP3   OH231405   5.696   5.407   8.204 -0.0723 -0.1749  0.0830
 3257TIP3    H131406   5.774   5.458   8.224  0.1760 -0.3445 -0.4369
 3257TIP3    H231407   5.670   5.437   8.116  0.2265 -1.1388 -0.3334
 3258TIP3   OH231408   6.741   6.462   0.815  0.0713  0.8168 -0.3353
 3258TIP3    H131409   6.656   6.424   0.793  0.5003 -0.5147  0.2398
 3258TIP3    H231410   6.722   6.554   0.832 -1.1369  0.6900 -0.9156
 3259TIP3   OH231411   5.778   1.083   8.191  0.8742 -0.2242  0.6172
 3259TIP3    H131412   5.835   1.096   8.266  1.8516  0.3711 -0.2216
 3259TIP3    H231413   5.822   1.017   8.137  0.5393 -0.1078  0.1918
 3260TIP3   OH231414   6.106   6.583   7.697  0.1702 -0.4462 -0.7684
 3260TIP3    H131415   6.072   6.655   7.750 -2.5299  0.1213 -3.1616
 3260TIP3    H231416   6.190   6.561   7.738  0.5552  3.3141  0.6689
 3261TIP3   OH231417   5.540   0.306   0.049  0.6608 -0.3410  0.0887
 3261TIP3    H131418   5.494   0.369  -0.007 -0.7242 -1.0261  0.4508
 3261TIP3    H231419   5.481   0.292   0.123  2.4307  0.4788  1.6815
 3262TIP3   OH231420   6.837   7.191   7.431  0.2886  0.1865  0.3124
 3262TIP3    H131421   6.886   7.268   7.404 -2.6373  2.3436  0.8019
 3262TIP3    H231422   6.784   7.167   7.355 -0.0327 -0.3049  0.6816
 3263TIP3   OH231423   0.716   0.805   0.973  0.5411  0.1876  0.0874
 3263TIP3    H131424   0.756   0.756   0.900  2.1209  0.4109  0.7833
 3263TIP3    H231425   0.791   0.839   1.022 -0.4831 -1.2671  2.7180
 3264TIP3   OH231426   0.098   0.527   8.405  0.0861 -0.7472 -0.6176
 3264TIP3    H131427   0.022   0.500   8.353 -1.4495 -0.4004  1.3485
 3264TIP3    H231428   0.090   0.622   8.413  0.4112 -0.7728  0.0684
 3265TIP3   OH231429   1.286   0.199   1.947 -0.5884  0.0132  0.0032
 3265TIP3    H131430   1.289   0.152   2.030 -0.8455  0.6932  0.4032
 3265TIP3    H231431   1.193   0.200   1.924 -0.4524 -0.6719 -0.5800
 3266TIP3   OH231432   4.654   0.001   8.163 -0.0013  0.2418 -0.2965
 3266TIP3    H131433   4.649  -0.017   8.257  1.1639  1.1967 -0.0420
 3266TIP3    H231434   4.654  -0.086   8.122 -1.4576 -0.1583  0.5199
 3267TIP3   OH231435   4.198   0.908   0.179 -0.0398 -0.4316 -0.2248
 3267TIP3    H131436   4.178   0.817   0.200 -0.8791 -0.3938 -0.8414
 3267TIP3    H231437   4.160   0.959   0.250  0.0935 -0.5379 -0.0787
 3268TIP3   OH231438   0.809   7.087   0.074  0.4546  0.0281 -0.3170
 3268TIP3    H131439   0.880   7.151   0.078  0.5511 -0.1326  0.8171
 3268TIP3    H231440   0.809   7.056  -0.016  0.3685  1.6780 -0.9043
 3269TIP3   OH231441   4.017   2.449   7.083 -0.2898 -0.2895 -0.2451
 3269TIP3    H131442   3.976   2.363   7.093 -1.3068  0.3848  1.6321
 3269TIP3    H231443   3.961   2.508   7.134  0.7232  1.3819 -1.0323
 3270TIP3   OH231444   0.044   0.273   7.999  0.1333  0.3208  0.9314
 3270TIP3    H131445  -0.030   0.268   7.939 -0.3259 -3.8622  1.6774
 3270TIP3    H231446   0.121   0.274   7.942 -0.3905  0.0047  0.2041
 3271TIP3   OH231447   5.952   0.376   1.882  0.5787  0.3601  0.7928
 3271TIP3    H131448   5.943   0.317   1.957  1.9612  0.8633  1.3690
 3271TIP3    H231449   5.980   0.459   1.920  0.6220  0.8158 -0.2151
 3272TIP3   OH231450   6.774   0.305   7.858  0.1369 -0.3550  0.2493
 3272TIP3    H131451   6.757   0.375   7.796 -1.5494 -2.1463 -1.3653
 3272TIP3    H231452   6.689   0.267   7.876  1.2948 -3.7641 -1.0833
 3273TIP3   OH231453   4.948   0.298   0.920 -0.0034 -0.0360 -0.4934
 3273TIP3    H131454   4.961   0.366   0.986  0.2274 -1.0537  0.5289
 3273TIP3    H231455   5.036   0.269   0.897 -0.0988  0.0191 -0.9338
 3274TIP3   OH231456   5.774   0.888   7.757  0.2963 -0.2357  0.8467
 3274TIP3    H131457   5.786   0.810   7.811  0.9049 -0.5395  0.2918
 3274TIP3    H231458   5.719   0.859   7.685  1.4026 -0.4413  0.0657
 3275TIP3   OH231459   1.674   6.914   0.005  0.4049  0.5403 -0.4060
 3275TIP3    H131460   1.748   6.857   0.027  0.9535  0.4172 -2.4582
 3275TIP3    H231461   1.613   6.904   0.078  0.6627 -2.3966 -0.5156
 3276TIP3   OH231462   3.849   5.711   0.466  0.7188  0.2014 -0.2240
 3276TIP3    H131463   3.838   5.801   0.433 -0.1316  0.5083  0.8671
 3276TIP3    H231464   3.761   5.683   0.490  1.2221 -0.2856  1.0695
 3277TIP3   OH231465   0.200   0.265   1.035 -0.3873  0.6255  0.5699
 3277TIP3    H131466   0.252   0.333   1.077 -1.2669  0.8365  1.3379
 3277TIP3    H231467   0.182   0.202   1.105  0.7547 -0.6080 -0.2237
 3278TIP3   OH231468   5.047   0.683   7.339 -0.1431  0.2587  0.4122
 3278TIP3    H131469   5.113   0.751   7.355  0.4488 -0.2256  0.0455
 3278TIP3    H231470   5.060   0.619   7.409  0.1694 -0.1273  0.0082
 3279TIP3   OH231471   6.587   0.616   1.803  0.0038 -0.3938  0.4234
 3279TIP3    H131472   6.663   0.628   1.859  0.7377 -0.4382 -0.5625
 3279TIP3    H231473   6.620   0.567   1.727 -0.7966  0.4282 -0.4618
 3280TIP3   OH231474   6.272   1.159   6.270 -0.4971  0.3161 -0.3031
 3280TIP3    H131475   6.329   1.089   6.304 -0.8536  1.3463  2.5320
 3280TIP3    H231476   6.318   1.190   6.192  2.2959  0.3320  1.2508
 3281TIP3   OH231477   3.065   2.953   1.641 -0.0159  0.6100  0.5182
 3281TIP3    H131478   3.014   2.872   1.640  0.9139 -0.0043 -2.1336
 3281TIP3    H231479   3.002   3.021   1.617  0.1392 -0.0002 -1.7295
 3282TIP3   OH231480   2.101   3.574   0.597  0.3031 -0.3224  0.2468
 3282TIP3    H131481   2.054   3.587   0.514  0.1452 -0.1918  0.3563
 3282TIP3    H231482   2.129   3.662   0.622 -1.1864 -0.1227  1.2435
 3283TIP3   OH231483   2.773   1.479   8.015  0.6548 -0.2105  0.7060
 3283TIP3    H131484   2.733   1.392   8.019  0.1130  0.0151  0.3440
 3283TIP3    H231485   2.814   1.491   8.100  0.9468 -0.9206  0.6672
 3284TIP3   OH231486   0.811   5.060   8.331 -0.7793 -0.3890  0.1002
 3284TIP3    H131487   0.759   5.008   8.269 -2.3463  2.2451 -0.8529
 3284TIP3    H231488   0.770   5.044   8.416 -1.1429 -0.8500 -0.1572
 3285TIP3   OH231489   0.654   2.781   1.819 -0.0812 -0.2380  0.1254
 3285TIP3    H131490   0.582   2.727   1.852  0.8024 -1.3367  0.2711
 3285TIP3    H231491   0.635   2.868   1.853  0.5025 -1.2240  3.1511
 3286TIP3   OH231492   2.561   3.615   7.574  0.0267 -0.6031 -0.1303
 3286TIP3    H131493   2.645   3.605   7.529 -0.1772 -0.7470 -0.4778
 3286TIP3    H231494   2.496   3.602   7.506 -0.2864 -1.0696  0.2609
 3287TIP3   OH231495   2.188   3.061   1.208  0.2911 -0.0600 -0.9032
 3287TIP3    H131496   2.126   3.127   1.239  1.9938  0.3398  1.7466
 3287TIP3    H231497   2.222   3.097   1.126  0.0248  1.6124 -0.2913
 3288TIP3   OH231498   6.457   5.262   7.176  0.6922 -1.1148  0.4829
 3288TIP3    H131499   6.407   5.316   7.238  0.9859 -0.3888  0.0946
 3288TIP3    H231500   6.399   5.188   7.156 -1.1100  0.7915 -1.6123
 3289TIP3   OH231501   5.715   3.891   0.682  0.3906 -0.2134  0.1357
 3289TIP3    H131502   5.672   3.936   0.755  2.0743  0.7257  0.5459
 3289TIP3    H231503   5.668   3.921   0.604  2.0761  3.0110  0.2997
 3290TIP3   OH231504   5.192   2.325   0.019  0.0996 -0.3148  0.0440
 3290TIP3    H131505   5.189   2.420   0.029 -0.8456 -0.3056 -0.2599
 3290TIP3    H231506   5.101   2.300   0.002  0.4734 -1.1795 -0.6996
 3291TIP3   OH231507   2.534   3.150   8.081 -0.4008 -0.3577 -0.4071
 3291TIP3    H131508   2.612   3.152   8.136  0.2230  0.9077 -1.2971
 3291TIP3    H231509   2.462   3.135   8.141  0.3228  0.4852  0.6887
 3292TIP3   OH231510   5.970   4.032   0.670  0.0398  0.2469 -0.3377
 3292TIP3    H131511   5.894   3.974   0.657 -1.5955  2.5242 -1.1699
 3292TIP3    H231512   5.939   4.098   0.731  0.7693  2.2264 -2.0694
 3293TIP3   OH231513   3.865   3.714   0.120  0.5541 -0.5670  0.1728
 3293TIP3    H131514   3.849   3.623   0.096  0.3253 -0.7651  1.0331
 3293TIP3    H231515   3.941   3.740   0.068  0.7200 -1.3036  0.0422
 3294TIP3   OH231516   1.111   5.676   6.765 -0.3043 -0.2017  0.1208
 3294TIP3    H131517   1.185   5.707   6.714  0.0256 -0.8808  0.1737
 3294TIP3    H231518   1.095   5.587   6.732 -0.1449 -0.6127  1.1262
 3295TIP3   OH231519   5.294   3.313   7.384  0.2123 -0.1627 -0.2176
 3295TIP3    H131520   5.263   3.239   7.332 -1.7586  0.0806  0.5407
 3295TIP3    H231521   5.388   3.316   7.369  0.0803 -1.8314 -1.5148
 3296TIP3   OH231522   4.605   3.567   0.739  0.1464  0.3479 -0.1074
 3296TIP3    H131523   4.549   3.564   0.661 -2.3738  1.0932  1.5820
 3296TIP3    H231524   4.620   3.476   0.762  0.5536  0.1284 -1.1988
 3297TIP3   OH231525   2.250   1.903   7.367  1.0856 -0.4923 -0.8566
 3297TIP3    H131526   2.276   1.943   7.451  3.6994 -0.9983 -1.3660
 3297TIP3    H231527   2.307   1.826   7.360 -1.1637 -2.1161 -1.7382
 3298TIP3   OH231528   2.009   3.596   6.702 -0.7412 -0.2205  0.7513
 3298TIP3    H131529   2.026   3.669   6.643 -1.8502 -0.6931 -0.1685
 3298TIP3    H231530   1.957   3.634   6.773 -3.0228 -0.5112 -0.7362
 3299TIP3   OH231531   0.440   5.099   0.145 -0.2859  0.0485 -0.1599
 3299TIP3    H131532   0.467   5.008   0.136 -2.2752 -0.4151 -1.6098
 3299TIP3    H231533   0.501   5.147   0.088 -1.8532 -0.9082 -2.7678
 3300TIP3   OH231534   0.583   3.343   1.728  0.3547  0.6014 -0.4766
 3300TIP3    H131535   0.490   3.319   1.725  0.4224  0.4208 -1.7806
 3300TIP3    H231536   0.586   3.432   1.693  0.9101 -0.2597 -2.7113
 3301TIP3   OH231537   4.869   4.562   0.508  0.5573 -0.0065  0.2133
 3301TIP3    H131538   4.824   4.605   0.436  0.9119 -3.4605 -2.1588
 3301TIP3    H231539   4.962   4.584   0.496  0.5748 -0.2943 -0.1500
 3302TIP3   OH231540   0.595   5.733   1.236 -0.2048  0.0309  0.0196
 3302TIP3    H131541   0.631   5.658   1.284 -1.7997 -0.6519  0.1634
 3302TIP3    H231542   0.557   5.788   1.304  0.2278  0.5674 -0.1737
 3303TIP3   OH231543   3.470   3.217   0.470 -0.0220 -0.3770 -0.3197
 3303TIP3    H131544   3.475   3.309   0.445 -1.1666  0.0521  0.9822
 3303TIP3    H231545   3.486   3.216   0.565  0.0036 -1.5192 -0.3213
 3304TIP3   OH231546   7.264   4.189   1.670  0.9180 -0.1471  0.3329
 3304TIP3    H131547   7.258   4.258   1.604  4.2738  1.7193  1.8340
 3304TIP3    H231548   7.343   4.139   1.646  0.1889 -1.6290  0.9459
 3305TIP3   OH231549   6.492   0.935   1.426  0.2080  0.1171  0.2839
 3305TIP3    H131550   6.437   0.957   1.351 -1.4925 -1.4041  1.0303
 3305TIP3    H231551   6.566   0.996   1.421 -2.0510  2.9090 -0.1791
 3306TIP3   OH231552   1.767   4.917   8.155 -0.6919 -0.0793  0.0646
 3306TIP3    H131553   1.807   5.004   8.153 -2.0533  0.5405 -0.2888
 3306TIP3    H231554   1.715   4.912   8.075  0.6315 -1.8354 -0.7208
 3307TIP3   OH231555   6.545   5.154   0.266 -0.1259  0.7700  0.8551
 3307TIP3    H131556   6.610   5.168   0.197 -0.2611  0.6010  0.6963
 3307TIP3    H231557   6.462   5.142   0.220 -0.2674  0.9522  1.0572
 3308TIP3   OH231558   1.504   4.800   6.195  0.3105 -0.0781 -0.0630
 3308TIP3    H131559   1.556   4.874   6.226  0.7161  0.5595 -2.1434
 3308TIP3    H231560   1.418   4.837   6.176  0.8203  0.1551 -2.1336
 3309TIP3   OH231561   2.908   1.721   7.975 -0.1366  0.0431 -0.5677
 3309TIP3    H131562   2.889   1.784   8.045 -0.0286 -0.1292 -0.3808
 3309TIP3    H231563   2.861   1.642   8.002  1.0855 -0.4883  0.0633
 3310TIP3   OH231564   2.383   3.305   1.105  0.0981 -0.4600 -0.4919
 3310TIP3    H131565   2.363   3.385   1.055  0.7018 -0.7777 -1.2679
 3310TIP3    H231566   2.416   3.336   1.189 -1.8876  0.0789  0.1000
 3311TIP3   OH231567   0.775   4.257   0.316 -0.6971  0.4175 -0.2463
 3311TIP3    H131568   0.685   4.232   0.336 -1.3275  0.1715 -3.2185
 3311TIP3    H231569   0.778   4.264   0.221  2.3498  0.7505 -0.1833
 3312TIP3   OH231570   3.484   3.389   0.164 -1.1240  0.4753  0.2945
 3312TIP3    H131571   3.459   3.306   0.204 -1.8768  1.0121  0.9578
 3312TIP3    H231572   3.417   3.405   0.097 -0.9255  0.4990  0.1007
 3313TIP3   OH231573   6.108   5.222   6.881 -0.0750  0.3600 -0.1342
 3313TIP3    H131574   6.035   5.194   6.826  0.9059 -0.4748 -1.0123
 3313TIP3    H231575   6.151   5.291   6.830  1.2996 -0.9553 -0.7567
 3314TIP3   OH231576   2.014   2.887   6.550  0.4961 -0.1300  0.5993
 3314TIP3    H131577   2.006   2.817   6.614 -1.1402  0.5654  1.1842
 3314TIP3    H231578   1.938   2.876   6.493  1.2599  0.0228 -0.4650
 3315TIP3   OH231579   0.457   0.445   0.568 -0.2349  0.0417 -0.1398
 3315TIP3    H131580   0.454   0.354   0.538  0.1020 -0.1996  0.5602
 3315TIP3    H231581   0.384   0.487   0.522 -1.6945 -1.0625  1.0995
 3316TIP3   OH231582   2.147   3.267   6.427  0.3557 -0.0873  0.1778
 3316TIP3    H131583   2.106   3.226   6.503 -0.4732 -0.5578 -0.5183
 3316TIP3    H231584   2.154   3.196   6.362  0.6855  0.4042 -0.3305
 3317TIP3   OH231585   2.292   1.748   0.506  0.0637  0.1508  0.2115
 3317TIP3    H131586   2.285   1.722   0.414 -0.4222 -1.0736  0.5838
 3317TIP3    H231587   2.225   1.696   0.550 -1.8330  2.9740  0.8047
 3318TIP3   OH231588   1.196   2.559   6.291  0.2168  0.3504 -0.1213
 3318TIP3    H131589   1.242   2.641   6.306  0.4135  0.3397 -0.6664
 3318TIP3    H231590   1.104   2.585   6.282  0.4353  0.6621 -1.5708
 3319TIP3   OH231591   1.092   3.592   1.675  0.6015 -0.4340  0.0643
 3319TIP3    H131592   1.159   3.545   1.724  0.1059 -1.8186 -0.5651
 3319TIP3    H231593   1.011   3.543   1.692 -0.2296  1.0971  0.6596
 3320TIP3   OH231594   4.649   2.596   7.848 -0.0035  0.5881 -0.2899
 3320TIP3    H131595   4.710   2.522   7.844  0.6037  1.0184  0.9126
 3320TIP3    H231596   4.663   2.643   7.766  1.6754  0.9871  0.2023
 3321TIP3   OH231597   3.189   4.539   7.954 -0.3948  0.2676 -0.6090
 3321TIP3    H131598   3.157   4.587   8.030  0.5573  0.6201 -0.4244
 3321TIP3    H231599   3.114   4.534   7.895 -1.2293 -0.2777  0.4860
 3322TIP3   OH231600   7.282   3.435   1.818  0.1671  0.1417 -0.0114
 3322TIP3    H131601   7.270   3.347   1.855  0.1558  1.3282  2.9871
 3322TIP3    H231602   7.365   3.430   1.771  0.4351 -1.3613  0.5879
 3323TIP3   OH231603   3.178   3.764   1.155  0.3144 -0.1323  0.6935
 3323TIP3    H131604   3.179   3.770   1.060 -0.8751  1.2113  0.7444
 3323TIP3    H231605   3.110   3.700   1.174  0.7970 -0.6636  0.6297
 3324TIP3   OH231606   2.118   3.925   7.687  0.3158  0.0631  0.1991
 3324TIP3    H131607   2.167   3.991   7.736  0.2125  0.0534  0.3161
 3324TIP3    H231608   2.145   3.938   7.596  2.1023 -1.3337  0.5156
 3325TIP3   OH231609   3.657   3.021   6.830  0.9432  0.0411  0.2455
 3325TIP3    H131610   3.693   2.939   6.798 -0.1742 -1.0689  1.7149
 3325TIP3    H231611   3.647   3.076   6.752  1.2680 -1.3888 -0.8156
 3326TIP3   OH231612   3.736   7.035   0.933 -0.3942 -0.5069  0.3365
 3326TIP3    H131613   3.695   7.089   1.001  0.1229 -0.1311  0.3549
 3326TIP3    H231614   3.828   7.031   0.958 -0.1002  0.0680 -0.6272
 3327TIP3   OH231615   2.646   6.021   0.533 -0.6066  0.6415 -0.5619
 3327TIP3    H131616   2.583   6.039   0.602 -0.5581 -1.6017  0.1206
 3327TIP3    H231617   2.696   6.102   0.524 -0.1730  0.7822  2.5215
 3328TIP3   OH231618   1.938   5.228   0.087  0.8755 -0.2790 -0.0022
 3328TIP3    H131619   1.860   5.195   0.132  1.4981 -2.7304 -0.6065
 3328TIP3    H231620   1.910   5.239  -0.004  1.4195 -1.9786 -0.3975
 3329TIP3   OH231621   5.822   2.316   8.266 -0.5430 -0.8951 -0.0749
 3329TIP3    H131622   5.768   2.240   8.286 -1.4533 -0.1852  0.1747
 3329TIP3    H231623   5.876   2.329   8.344 -0.3923 -1.2702 -0.1133
 3330TIP3   OH231624   3.634   0.070   0.866  0.4012  0.5472 -0.0338
 3330TIP3    H131625   3.676   0.001   0.814  0.5061  0.2329  0.4693
 3330TIP3    H231626   3.548   0.081   0.825 -2.0071 -3.9829  3.3718
 3331TIP3   OH231627   2.537   1.195   8.397 -0.3438 -0.2519  0.5886
 3331TIP3    H131628   2.630   1.176   8.399 -0.1450  0.6832  0.4161
 3331TIP3    H231629   2.531   1.290   8.405 -1.1234  0.0364 -2.5962
 3332TIP3   OH231630   2.567   1.942   0.238  0.1177 -0.0678 -0.0599
 3332TIP3    H131631   2.550   2.006   0.307  1.2682  1.1228 -0.8655
 3332TIP3    H231632   2.516   1.972   0.163  0.0870 -0.5102 -0.2215
 3333TIP3   OH231633   3.377   2.103   7.728  0.1641  0.3099 -0.1579
 3333TIP3    H131634   3.394   2.194   7.752  1.3541 -0.3401  1.5096
 3333TIP3    H231635   3.305   2.108   7.665  1.8511  2.6113 -2.0066
 3334TIP3   OH231636   3.305   0.338   0.835  0.5796  0.0745  0.4649
 3334TIP3    H131637   3.362   0.333   0.912  0.9267 -1.2512  0.1268
 3334TIP3    H231638   3.336   0.416   0.788  2.7813 -1.1791 -0.2169
 3335TIP3   OH231639   5.363   2.336   1.513  0.1599 -0.0080  0.0279
 3335TIP3    H131640   5.392   2.260   1.463 -0.9888 -0.2090 -0.3474
 3335TIP3    H231641   5.361   2.306   1.604  1.1408  0.0171  0.0576
 3336TIP3   OH231642   6.368   6.975   8.069  0.0368 -0.2171 -0.8810
 3336TIP3    H131643   6.446   7.014   8.109  1.4514 -1.8463 -1.9951
 3336TIP3    H231644   6.378   6.881   8.084 -1.7599 -0.4400 -1.0019
 3337TIP3   OH231645   0.824   4.645   0.129  0.1392  0.3460 -0.1793
 3337TIP3    H131646   0.810   4.552   0.143  1.9833 -0.6532 -4.2638
 3337TIP3    H231647   0.746   4.673   0.081  0.3362  0.5293 -0.3936
 3338TIP3   OH231648   2.334   1.598   1.781 -0.0772  0.0777  0.1737
 3338TIP3    H131649   2.390   1.563   1.711 -2.8159 -0.1672 -1.9951
 3338TIP3    H231650   2.363   1.689   1.791  2.5852 -0.8359  1.1254
 3339TIP3   OH231651   4.519   3.657   0.171  0.0718  0.1289 -0.3037
 3339TIP3    H131652   4.532   3.607   0.090  1.9703 -1.4350  0.8941
 3339TIP3    H231653   4.602   3.702   0.185 -1.1848  2.6223 -0.6637
 3340TIP3   OH231654   4.102   3.996   7.908 -0.0161 -0.1564 -0.6454
 3340TIP3    H131655   4.141   3.910   7.921  0.0734 -0.1641 -0.9483
 3340TIP3    H231656   4.177   4.055   7.899 -0.0781  0.0458  0.1394
 3341TIP3   OH231657   2.069   1.603   0.556 -0.2602  0.0569  0.6359
 3341TIP3    H131658   2.042   1.581   0.467  2.0851 -1.3619  0.2552
 3341TIP3    H231659   2.019   1.543   0.612 -0.2140 -0.4424  0.1434
 3342TIP3   OH231660   4.098   2.860   1.129 -0.0041 -0.3468 -0.1548
 3342TIP3    H131661   4.105   2.786   1.190  0.3087  1.2481  1.8035
 3342TIP3    H231662   4.022   2.839   1.074 -1.8095 -0.7089  2.3995
 3343TIP3   OH231663   2.587   2.459   0.793  0.0314  0.6319  0.0951
 3343TIP3    H131664   2.537   2.405   0.856  0.6276 -0.6016 -0.4744
 3343TIP3    H231665   2.644   2.397   0.749  1.1731  1.8468 -0.1617
 3344TIP3   OH231666   3.253   2.875   7.619 -0.0314  0.5552  0.7753
 3344TIP3    H131667   3.233   2.967   7.605  0.5866  0.5273 -0.3446
 3344TIP3    H231668   3.198   2.828   7.557  2.7805  0.4419 -1.7498
 3345TIP3   OH231669   2.602   0.924   7.931 -0.5533  0.2215  0.1941
 3345TIP3    H131670   2.507   0.927   7.917 -0.6677  1.1208  1.0803
 3345TIP3    H231671   2.611   0.894   8.022 -0.0431  1.8344  0.6902
 3346TIP3   OH231672   2.867   4.488   0.424  0.2557 -0.3741  0.2107
 3346TIP3    H131673   2.787   4.441   0.402 -0.2120  0.9446 -0.9485
 3346TIP3    H231674   2.838   4.577   0.444  1.0633 -0.6332  2.8251
 3347TIP3   OH231675   3.203   4.104   0.779  0.0533 -1.3749  0.4225
 3347TIP3    H131676   3.230   4.143   0.862 -1.7519  1.2317 -0.1489
 3347TIP3    H231677   3.285   4.081   0.736  1.3899  3.7409 -0.0674
 3348TIP3   OH231678   5.046   4.226   7.061 -0.3439  0.3804 -0.0841
 3348TIP3    H131679   5.117   4.170   7.030 -0.6085  0.0572 -0.1052
 3348TIP3    H231680   5.084   4.275   7.134  0.3333  1.2709 -1.0134
 3349TIP3   OH231681   2.966   3.443   0.515  0.0538  0.3592 -0.1736
 3349TIP3    H131682   2.907   3.390   0.569 -0.2496  0.0122 -0.8369
 3349TIP3    H231683   2.915   3.520   0.493  0.0637  0.3516 -0.2245
 3350TIP3   OH231684   1.899   1.905   1.461  0.6072 -1.1479 -0.2144
 3350TIP3    H131685   1.990   1.935   1.457  1.9583 -4.8183  1.0824
 3350TIP3    H231686   1.878   1.880   1.372  0.7541 -0.0284 -0.5712
 3351TIP3   OH231687   5.479   3.314   7.081 -0.2549  0.3047 -0.1132
 3351TIP3    H131688   5.499   3.237   7.029 -0.5857  0.4146 -0.4106
 3351TIP3    H231689   5.539   3.381   7.049  0.7701 -0.1229  0.8863
 3352TIP3   OH231690   4.259   3.306   0.989 -0.5811 -0.3333 -0.4791
 3352TIP3    H131691   4.175   3.261   1.001 -0.0679 -1.4459 -0.9268
 3352TIP3    H231692   4.240   3.377   0.928 -1.0546 -1.0356 -1.1604
 3353TIP3   OH231693   4.895   2.784   6.388 -0.1005  0.5628 -0.2682
 3353TIP3    H131694   4.913   2.818   6.476  2.0280  3.0964 -1.5761
 3353TIP3    H231695   4.829   2.844   6.353 -0.7085 -0.2502 -0.5104
 3354TIP3   OH231696   3.335   3.660   7.851 -0.1803  0.0412 -0.5716
 3354TIP3    H131697   3.282   3.689   7.776  0.9262  2.2015 -0.5428
 3354TIP3    H231698   3.351   3.567   7.834 -1.4943  0.0701 -2.0780
 3355TIP3   OH231699   3.435   5.686   7.647 -0.2448  0.1040  0.1973
 3355TIP3    H131700   3.428   5.669   7.553 -0.5008 -1.0616  0.4215
 3355TIP3    H231701   3.488   5.614   7.681 -4.6370 -2.6199  1.7958
 3356TIP3   OH231702   2.045   4.384   7.207  0.0498 -0.6353  0.1243
 3356TIP3    H131703   2.100   4.403   7.283  0.0544 -0.4835  0.0829
 3356TIP3    H231704   2.086   4.431   7.135 -0.0703 -0.6138  0.0690
 3357TIP3   OH231705   1.930   2.247   6.933 -0.2205  0.4379 -0.3938
 3357TIP3    H131706   1.996   2.223   6.997 -0.3836 -2.5820 -1.2742
 3357TIP3    H231707   1.980   2.285   6.860  0.5066 -1.0370 -0.6921
 3358TIP3   OH231708   3.503   5.001   8.340  0.0643 -0.3386  0.4056
 3358TIP3    H131709   3.520   5.079   8.287 -1.2934  0.0664  0.5638
 3358TIP3    H231710   3.590   4.961   8.352  0.6331  0.6124 -0.4883
 3359TIP3   OH231711   4.080   0.711   0.534 -0.5532  0.0989 -0.0211
 3359TIP3    H131712   4.049   0.687   0.447 -0.6914  2.4059 -0.6336
 3359TIP3    H231713   4.001   0.716   0.587 -0.6254  0.1330 -0.1319
 3360TIP3   OH231714   3.062   3.265   7.405  0.3107 -0.4445 -0.2810
 3360TIP3    H131715   2.983   3.238   7.450 -0.5290 -0.7554 -1.9045
 3360TIP3    H231716   3.084   3.191   7.348  0.4353  0.5479 -1.5462
 3361TIP3   OH231717   2.734   6.483   0.166 -0.2790 -0.2051 -0.2951
 3361TIP3    H131718   2.655   6.535   0.152  0.4878  0.6368 -1.6354
 3361TIP3    H231719   2.804   6.533   0.124  0.9641 -0.9779  0.7810
 3362TIP3   OH231720   7.110   3.883   7.360  0.0373  0.0586 -0.0691
 3362TIP3    H131721   7.048   3.840   7.301  0.9486 -1.3934 -0.0035
 3362TIP3    H231722   7.195   3.846   7.336  0.4386 -0.5278  2.1064
 3363TIP3   OH231723   3.884   3.595   7.653  0.5537 -0.3908  0.3434
 3363TIP3    H131724   3.893   3.690   7.659 -0.5897  0.0089 -3.0341
 3363TIP3    H231725   3.808   3.575   7.707  1.2717  0.4659  1.7252
 3364TIP3   OH231726   2.140   4.420   7.482  0.3874 -0.2604  0.0480
 3364TIP3    H131727   2.121   4.480   7.554  3.0309  1.5967 -0.7322
 3364TIP3    H231728   2.116   4.334   7.515 -0.3607  0.8162  2.4015
 3365TIP3   OH231729   5.119   3.036   7.569 -0.7861 -0.0788  0.3532
 3365TIP3    H131730   5.213   3.022   7.557 -0.6218  0.3907  1.1105
 3365TIP3    H231731   5.093   3.092   7.496 -0.0307  1.6946  1.4093
 3366TIP3   OH231732   5.887   4.290   7.444  0.3734  0.1666  0.4647
 3366TIP3    H131733   5.905   4.380   7.420  2.0850 -0.0160  0.9568
 3366TIP3    H231734   5.796   4.289   7.471 -0.0474  1.4534 -0.8708
 3367TIP3   OH231735   4.074   0.147   7.087 -0.0435 -0.2795  0.5201
 3367TIP3    H131736   4.165   0.175   7.075 -0.8408  2.4658  0.5051
 3367TIP3    H231737   4.045   0.122   7.000  0.4945 -0.5776  0.4216
 3368TIP3   OH231738   6.531   3.259   1.459  0.4865 -0.7041 -0.0108
 3368TIP3    H131739   6.502   3.347   1.436  0.3242 -0.2108  2.0064
 3368TIP3    H231740   6.618   3.271   1.495  1.0060 -1.5414 -0.9647
 3369TIP3   OH231741   3.327   5.229   8.162  0.3261  0.1482  0.6546
 3369TIP3    H131742   3.422   5.226   8.161  0.2954 -1.2238 -0.0240
 3369TIP3    H231743   3.305   5.320   8.144  1.4920  0.0537 -1.3671
 3370TIP3   OH231744   5.963   3.365   1.483 -0.6633 -0.1678 -0.1949
 3370TIP3    H131745   5.936   3.457   1.474  1.3074  0.5603  0.8760
 3370TIP3    H231746   5.882   3.315   1.477 -2.0285  1.7995  1.2240
 3371TIP3   OH231747   3.878   2.176   7.169  0.1939  0.2262  0.5708
 3371TIP3    H131748   3.878   2.167   7.264 -0.2569  0.7118  0.6127
 3371TIP3    H231749   3.795   2.217   7.148  0.6391  0.8639  0.0328
 3372TIP3   OH231750   4.009   1.998   7.974 -0.0771 -0.1831  0.9864
 3372TIP3    H131751   3.977   1.995   7.884 -0.8400 -1.6094  1.2871
 3372TIP3    H231752   4.082   1.936   7.975  0.7920  0.8395  1.0222
 3373TIP3   OH231753   4.573   1.428   7.201  0.0555 -0.4531  0.0885
 3373TIP3    H131754   4.562   1.523   7.208  0.0713 -0.5649  1.8652
 3373TIP3    H231755   4.632   1.406   7.272 -1.7891 -2.0896  1.1693
 3374TIP3   OH231756   2.713   1.631   1.998  0.2673 -0.3961 -0.1918
 3374TIP3    H131757   2.726   1.712   1.949 -2.7901 -0.6434 -1.4993
 3374TIP3    H231758   2.797   1.585   1.990  1.7588  2.2399 -0.1061
 3375TIP3   OH231759   4.469   1.520   0.215 -0.0605  0.1104  0.1721
 3375TIP3    H131760   4.380   1.546   0.238 -0.4159 -0.2095 -0.7797
 3375TIP3    H231761   4.473   1.532   0.120  1.6863  2.4028  0.4967
 3376TIP3   OH231762   4.521   3.761   6.600 -0.2912  0.3689 -0.6847
 3376TIP3    H131763   4.597   3.806   6.637 -0.5347 -0.4904  0.8941
 3376TIP3    H231764   4.536   3.762   6.505 -0.0293  3.2706 -0.6524
 3377TIP3   OH231765   4.263   2.866   7.508 -0.0238 -0.2103  0.0589
 3377TIP3    H131766   4.307   2.916   7.439 -0.0317  0.1902  0.3414
 3377TIP3    H231767   4.239   2.932   7.574 -1.4142 -0.3748 -0.2793
 3378TIP3   OH231768   5.780   3.521   7.936  0.2619 -0.3166 -0.2176
 3378TIP3    H131769   5.803   3.511   7.843  0.1454  1.2262 -0.4223
 3378TIP3    H231770   5.692   3.559   7.935 -0.2473 -1.4250  0.5502
 3379TIP3   OH231771   2.769   2.638   0.852 -0.5263  0.3489 -0.3105
 3379TIP3    H131772   2.703   2.576   0.823  0.3703 -1.7506  2.0499
 3379TIP3    H231773   2.771   2.630   0.947  1.6915  1.8461 -0.1878
 3380TIP3   OH231774   4.360   3.382   0.598 -0.1789  0.2244  0.2289
 3380TIP3    H131775   4.426   3.420   0.540  0.3778  1.6882  1.7796
 3380TIP3    H231776   4.380   3.289   0.599  0.5083  0.3408 -1.0283
 3381TIP3   OH231777   5.627   3.766   7.948  0.4809 -0.1557 -0.5157
 3381TIP3    H131778   5.543   3.754   7.904 -0.1644  1.4814  0.2177
 3381TIP3    H231779   5.679   3.816   7.885  0.3919  0.1091 -0.3789
 3382TIP3   OH231780   4.300   2.428   6.584 -0.0979  0.6597 -0.1536
 3382TIP3    H131781   4.225   2.372   6.564 -0.4386  1.5674 -1.4984
 3382TIP3    H231782   4.376   2.378   6.556 -0.2634  0.1385  0.3191
 3383TIP3   OH231783   7.108   4.704   1.401  0.2392 -0.1108  0.7206
 3383TIP3    H131784   7.199   4.679   1.389  0.1969  0.3622 -0.5932
 3383TIP3    H231785   7.063   4.668   1.324 -0.1229  2.4236 -0.2770
 3384TIP3   OH231786   4.646   5.176   0.801 -0.6781  0.6965 -0.3481
 3384TIP3    H131787   4.612   5.107   0.744  0.5360 -0.5873  0.4192
 3384TIP3    H231788   4.625   5.145   0.889  0.8406  0.7581  0.0440
 3385TIP3   OH231789   4.872   2.595   6.914  0.8402  0.0797 -0.0099
 3385TIP3    H131790   4.942   2.567   6.856 -1.2583 -1.0238 -2.1012
 3385TIP3    H231791   4.817   2.518   6.925  0.3119  0.7202  2.1774
 3386TIP3   OH231792   3.147   3.850   8.453 -0.0164 -0.0482  0.1367
 3386TIP3    H131793   3.085   3.834   8.525  0.2038  0.0771  0.3546
 3386TIP3    H231794   3.187   3.934   8.474 -1.1956  0.8204 -1.0345
 3387TIP3   OH231795   3.753   2.235   7.712 -0.0394  0.6078  0.5215
 3387TIP3    H131796   3.730   2.160   7.768 -0.5024 -0.3137 -0.8580
 3387TIP3    H231797   3.818   2.283   7.761  0.0138 -0.5312  1.5901
 3388TIP3   OH231798   5.395   1.846   1.276 -0.2447 -0.0058  0.4462
 3388TIP3    H131799   5.301   1.845   1.293 -0.1127 -0.8295  1.1715
 3388TIP3    H231800   5.403   1.823   1.184 -0.7802  0.5171  0.2680
 3389TIP3   OH231801   3.715   6.898   7.246 -0.2040  0.4956 -0.3498
 3389TIP3    H131802   3.769   6.901   7.325 -1.8377  0.8905  0.7679
 3389TIP3    H231803   3.661   6.820   7.256 -0.9989  0.9987 -0.7001
 3390TIP3   OH231804   5.008   2.427   0.795  0.0840  0.1099  0.0357
 3390TIP3    H131805   5.015   2.338   0.763 -1.3155  0.0589 -0.1486
 3390TIP3    H231806   4.953   2.421   0.874  0.8037  0.6701  0.5952
 3391TIP3   OH231807   3.851   2.065   0.803 -0.5203 -0.8559  0.9265
 3391TIP3    H131808   3.887   2.011   0.873 -1.6023 -0.3495  1.8905
 3391TIP3    H231809   3.757   2.049   0.806 -0.6952  0.0394  0.3368
 3392TIP3   OH231810   3.667   2.429   0.150 -0.2678  0.7730 -0.0276
 3392TIP3    H131811   3.675   2.475   0.067 -0.1048 -0.9742 -1.0097
 3392TIP3    H231812   3.574   2.407   0.157  0.1400 -1.4277 -1.0799
 3393TIP3   OH231813   5.165   2.385   7.648 -0.3130  1.0105 -0.2552
 3393TIP3    H131814   5.110   2.320   7.692  3.3662 -1.1992  1.2824
 3393TIP3    H231815   5.182   2.451   7.715 -0.9659  1.6507 -0.7077
 3394TIP3   OH231816   3.205   2.281   0.716 -0.5328  0.3377  0.8695
 3394TIP3    H131817   3.249   2.245   0.793  2.1748  0.2011 -0.6896
 3394TIP3    H231818   3.222   2.217   0.646  0.0948  2.1800 -0.7075
 3395TIP3   OH231819   4.312   3.327   8.374 -0.3335  0.4115  0.3139
 3395TIP3    H131820   4.242   3.266   8.350  1.5370 -1.8704  0.4551
 3395TIP3    H231821   4.326   3.313   8.467  2.0764 -1.1665 -0.2044
 3396TIP3   OH231822   5.641   1.567   7.756 -0.1172  0.4795 -0.0055
 3396TIP3    H131823   5.586   1.490   7.743 -0.2827  0.7731 -1.0941
 3396TIP3    H231824   5.640   1.581   7.851 -2.2936  0.7659 -0.0432
 3397TIP3   OH231825   5.550   4.631   1.056  0.8416  0.3440 -0.1467
 3397TIP3    H131826   5.524   4.580   1.133  3.7120 -0.9595 -0.0051
 3397TIP3    H231827   5.590   4.567   0.997  1.4135  1.8591 -1.4269
 3398TIP3   OH231828   3.083   2.200   7.917  0.2975  0.3179  0.4407
 3398TIP3    H131829   3.156   2.229   7.972  0.2357  1.0322  0.1606
 3398TIP3    H231830   3.066   2.110   7.944  1.0829  0.2510  0.7191
 3399TIP3   OH231831   4.676   3.113   7.981 -1.0497 -0.0100  0.2710
 3399TIP3    H131832   4.584   3.131   7.999 -1.9679 -3.2775 -1.0504
 3399TIP3    H231833   4.687   3.020   7.999  1.5496 -0.0800 -1.4052
 3400TIP3   OH231834   5.205   1.046   7.096 -0.1297  0.1346  0.3869
 3400TIP3    H131835   5.213   1.001   7.180  0.1877  0.2492  0.4194
 3400TIP3    H231836   5.276   1.011   7.043 -0.8982 -0.6254 -0.1564
 3401TIP3   OH231837   4.285   1.304   0.169 -0.2187  0.0218 -0.1553
 3401TIP3    H131838   4.303   1.379   0.113  3.1187 -0.5802 -0.0040
 3401TIP3    H231839   4.295   1.228   0.111  1.2023 -0.5043  0.7507
 3402TIP3   OH231840   3.522   3.329   8.057 -0.0549 -0.0847  0.6822
 3402TIP3    H131841   3.487   3.365   7.975  0.0706  0.5641  0.9088
 3402TIP3    H231842   3.504   3.235   8.051  1.3679 -0.2997 -0.7963
 3403TIP3   OH231843   3.186   2.061   1.835 -0.4093  0.1231 -0.0045
 3403TIP3    H131844   3.104   2.070   1.884  0.2669 -0.7074  1.3147
 3403TIP3    H231845   3.253   2.049   1.903  1.2372  3.7207 -0.8603
 3404TIP3   OH231846   4.771   3.081   7.510  0.1212 -0.1725 -0.0830
 3404TIP3    H131847   4.824   3.084   7.589 -0.8457 -0.2011  0.5821
 3404TIP3    H231848   4.833   3.061   7.439  1.0453  0.2407  0.6063
 3405TIP3   OH231849   3.981   3.229   0.354 -0.1348  0.1255  0.7174
 3405TIP3    H131850   3.943   3.151   0.314 -1.0397  0.4500  0.9328
 3405TIP3    H231851   3.909   3.268   0.404  0.1816  1.3575  0.2207
 3406TIP3   OH231852   3.674   4.032   7.707  0.3672  0.2878  0.0336
 3406TIP3    H131853   3.611   4.082   7.655  0.6212  0.2202 -0.3459
 3406TIP3    H231854   3.666   3.942   7.675  0.2336  0.1674  0.3989
 3407TIP3   OH231855   4.947   1.414   1.460 -0.0812 -0.3879  0.2867
 3407TIP3    H131856   4.908   1.475   1.398  0.4273 -0.6386 -0.2911
 3407TIP3    H231857   4.893   1.335   1.452  0.4151 -0.6719 -0.3801
 3408TIP3   OH231858   6.409   3.547   0.744  0.9118 -0.2412 -0.0751
 3408TIP3    H131859   6.448   3.604   0.810  0.9816 -0.2001 -0.1518
 3408TIP3    H231860   6.342   3.600   0.703  1.1567 -0.1264 -0.3282
 3409TIP3   OH231861   0.572   0.530   1.495 -0.1532  0.0371 -0.0105
 3409TIP3    H131862   0.556   0.622   1.518 -2.2481  0.0337 -1.2949
 3409TIP3    H231863   0.663   0.529   1.465 -0.4866  1.9766 -1.2078
 3410TIP3   OH231864   6.255   4.422   7.736  0.3678  0.2945 -0.8233
 3410TIP3    H131865   6.322   4.468   7.785 -0.9701 -0.7471  2.0768
 3410TIP3    H231866   6.298   4.343   7.704  1.4977  1.4298 -2.2203
 3411TIP3   OH231867   6.959   4.105   0.965  0.4182  0.0770  0.0447
 3411TIP3    H131868   6.947   4.199   0.975 -1.4169 -0.2394  0.9910
 3411TIP3    H231869   6.949   4.089   0.871  0.4537  0.7721 -0.0787
 3412TIP3   OH231870   5.484   1.751   0.063 -0.2328  0.0574 -0.2981
 3412TIP3    H131871   5.540   1.680   0.093  3.8768  1.7551 -3.4252
 3412TIP3    H231872   5.496   1.820   0.128 -0.1270 -0.2638  0.0217
 3413TIP3   OH231873   6.374   0.443   1.356 -0.4060 -0.0728 -0.0085
 3413TIP3    H131874   6.436   0.513   1.334  0.1234 -0.4174  0.3588
 3413TIP3    H231875   6.318   0.481   1.423  0.4336 -0.2723  0.8248
 3414TIP3   OH231876   5.135   2.822   6.798 -0.1669 -0.3630 -0.8571
 3414TIP3    H131877   5.050   2.820   6.754 -1.4795 -1.7421  1.6578
 3414TIP3    H231878   5.145   2.912   6.827 -2.2309 -0.8806  1.5614
 3415TIP3   OH231879   4.672   0.877   7.577  0.3314 -0.7023  0.0467
 3415TIP3    H131880   4.750   0.929   7.593 -0.8272  1.5978 -1.4051
 3415TIP3    H231881   4.696   0.816   7.507  0.9100 -0.1946 -0.1941
 3416TIP3   OH231882   6.894   0.791   7.134  0.2485 -0.3903 -0.1765
 3416TIP3    H131883   6.819   0.850   7.130  0.4460  0.0381  1.7590
 3416TIP3    H231884   6.859   0.705   7.111 -0.7714 -0.1447  0.4618
 3417TIP3   OH231885   5.341   1.322   0.679 -0.1332 -0.5805 -0.0725
 3417TIP3    H131886   5.332   1.324   0.774  0.6578  2.1012 -0.0164
 3417TIP3    H231887   5.276   1.385   0.647 -0.2824 -1.3393 -1.3145
 3418TIP3   OH231888   6.022   3.809   1.452 -0.0201  0.2118  0.7863
 3418TIP3    H131889   6.081   3.768   1.516  0.4931 -1.0648 -0.4688
 3418TIP3    H231890   5.936   3.772   1.471  0.2658 -0.7394  0.2905
 3419TIP3   OH231891   5.666   1.785   1.307 -0.0100  0.3076 -0.4925
 3419TIP3    H131892   5.583   1.827   1.325  0.8451  2.0362 -0.4773
 3419TIP3    H231893   5.693   1.747   1.391 -2.2575 -3.0051 -1.2046
 3420TIP3   OH231894   4.878   3.023   8.212  0.1982  0.2799 -0.1574
 3420TIP3    H131895   4.889   3.117   8.197 -0.4323  0.5799  1.1647
 3420TIP3    H231896   4.808   3.017   8.277  1.2194 -1.0283  0.8693
 3421TIP3   OH231897   6.347   4.118   7.182 -0.5243  0.1620  0.0861
 3421TIP3    H131898   6.380   4.179   7.248  1.5437  0.4424 -1.1812
 3421TIP3    H231899   6.270   4.162   7.146 -1.7467 -0.0443  2.3635
 3422TIP3   OH231900   5.551   6.948   8.401  0.6528  0.0212  0.1350
 3422TIP3    H131901   5.627   7.005   8.408  0.9457 -0.3695  0.1630
 3422TIP3    H231902   5.587   6.863   8.377  0.0447  0.2983 -1.8143
 3423TIP3   OH231903   4.926   3.402   0.116 -0.2305 -0.2605 -0.2127
 3423TIP3    H131904   4.894   3.364   0.199 -0.0735 -0.8613 -0.4262
 3423TIP3    H231905   4.986   3.471   0.144 -0.1628 -0.4714  0.1816
 3424TIP3   OH231906   6.607   3.837   1.336  0.0241 -0.3177 -0.0824
 3424TIP3    H131907   6.621   3.775   1.264  1.4335  0.0842 -0.1539
 3424TIP3    H231908   6.512   3.847   1.339 -0.1681 -1.7539 -0.6874
 3425TIP3   OH231909   4.823   1.354   8.481  0.3664 -0.2780  0.0518
 3425TIP3    H131910   4.844   1.283   8.542  0.9813 -0.0776  0.0763
 3425TIP3    H231911   4.730   1.342   8.462  0.1076 -0.2170  1.2031
 3426TIP3   OH231912   5.197   2.342   7.383 -0.9499  0.2985 -0.1335
 3426TIP3    H131913   5.174   2.364   7.473 -0.3506 -0.1371  0.1267
 3426TIP3    H231914   5.276   2.392   7.365  0.9175 -2.2676  0.7511
 3427TIP3   OH231915   5.664   2.894   7.532 -0.2531  0.4880 -0.3146
 3427TIP3    H131916   5.727   2.914   7.463  0.3854  1.0316  0.4193
 3427TIP3    H231917   5.692   2.947   7.606  0.4176 -1.7532  1.0876
 3428TIP3   OH231918   5.884   2.885   0.806  0.3264  0.0681 -0.0989
 3428TIP3    H131919   5.848   2.890   0.895 -1.2605 -1.8729 -0.6180
 3428TIP3    H231920   5.975   2.911   0.816 -0.1727  1.1445  1.8890
 3429TIP3   OH231921   7.253   5.201   1.334  0.2236  0.0351  0.3993
 3429TIP3    H131922   7.284   5.265   1.398 -1.1364  0.6149  0.4875
 3429TIP3    H231923   7.197   5.142   1.385 -0.6796  0.3608 -0.1970
 3430TIP3   OH231924   5.230   2.917   8.151 -0.0468 -0.0116 -0.1508
 3430TIP3    H131925   5.221   2.962   8.235  1.0441 -1.3432  0.7018
 3430TIP3    H231926   5.323   2.925   8.130 -0.0985 -0.7329 -0.6473
 3431TIP3   OH231927   6.671   5.004   7.976 -0.1401 -0.2201  0.1192
 3431TIP3    H131928   6.763   4.978   7.974 -0.0167  0.1693  0.6465
 3431TIP3    H231929   6.670   5.093   7.940 -0.3972 -0.4871 -0.5251
 3432TIP3   OH231930   5.172   3.805   0.062  0.1313  0.1285  0.1480
 3432TIP3    H131931   5.162   3.789  -0.032  3.3902 -0.2944 -0.1893
 3432TIP3    H231932   5.190   3.899   0.068  0.1212  0.1175  0.3395
 3433TIP3   OH231933   6.059   3.370   6.641  0.1685  0.3599 -0.0169
 3433TIP3    H131934   6.027   3.403   6.725 -0.2872 -2.2771  0.8968
 3433TIP3    H231935   5.995   3.303   6.616  0.6188  0.7194 -2.1933
 3434TIP3   OH231936   5.716   3.785   8.213 -0.1312  0.0834 -0.0878
 3434TIP3    H131937   5.721   3.775   8.118  0.2352  2.2045 -0.3170
 3434TIP3    H231938   5.721   3.880   8.228 -1.3134 -0.1511  1.9822
 3435TIP3   OH231939   6.138   4.152   7.430  0.0288 -0.4722  0.5724
 3435TIP3    H131940   6.144   4.100   7.350  1.8023  1.1636 -0.4180
 3435TIP3    H231941   6.068   4.215   7.413  0.6821  0.1426  0.1234
 3436TIP3   OH231942   4.289   1.562   7.375 -0.2408 -0.7847 -0.2451
 3436TIP3    H131943   4.340   1.639   7.351  0.7202 -1.9279 -1.9981
 3436TIP3    H231944   4.327   1.532   7.457  0.7111 -0.5640 -0.6060
 3437TIP3   OH231945   5.184   3.427   7.945 -0.0473 -0.7865  0.2821
 3437TIP3    H131946   5.242   3.352   7.959 -2.1110 -1.9121  3.2421
 3437TIP3    H231947   5.202   3.485   8.019 -0.9988 -0.0459 -0.0619
 3438TIP3   OH231948   5.944   3.038   2.242 -0.2692 -0.2780 -0.1364
 3438TIP3    H131949   5.964   3.125   2.275  0.0124  0.1271 -1.3782
 3438TIP3    H231950   5.862   3.014   2.286 -0.6054  0.8103 -0.1637
 3439TIP3   OH231951   4.811   1.913   1.073 -0.2699 -0.1574 -0.5474
 3439TIP3    H131952   4.759   1.993   1.066 -0.2487 -0.1395 -0.5057
 3439TIP3    H231953   4.885   1.926   1.013  0.4366  0.4083  0.4287
 3440TIP3   OH231954   5.015   1.186   0.816 -0.1643  0.3776 -0.1883
 3440TIP3    H131955   5.046   1.103   0.779  1.0700  0.7849 -0.0952
 3440TIP3    H231956   5.083   1.250   0.792 -1.1996  1.4005 -0.4298
 3441TIP3   OH231957   5.648   3.331   1.866 -0.5409 -0.3322 -0.1633
 3441TIP3    H131958   5.731   3.312   1.910 -1.2953  0.0832  1.4542
 3441TIP3    H231959   5.629   3.251   1.816 -0.1761 -1.2172  1.0764
 3442TIP3   OH231960   5.565   2.031   0.879  0.6319  0.4497 -0.1254
 3442TIP3    H131961   5.620   1.953   0.868 -1.7848 -1.3950  0.4364
 3442TIP3    H231962   5.604   2.078   0.952  2.0063 -0.3389 -0.3396
 3443TIP3   OH231963   3.476   4.231   0.286  0.2529  0.0568  0.2220
 3443TIP3    H131964   3.567   4.229   0.317  0.7013 -1.6080 -1.1021
 3443TIP3    H231965   3.474   4.302   0.222  0.8451 -0.3691 -0.2869
 3444TIP3   OH231966   0.673   6.048   1.330 -0.1080 -0.4060  0.0051
 3444TIP3    H131967   0.664   6.087   1.416  0.5680 -1.2472  0.4665
 3444TIP3    H231968   0.584   6.040   1.297 -0.4957 -1.6540  1.3351
 3445TIP3   OH231969   1.495   4.282   8.188 -0.5502  0.5869  0.2965
 3445TIP3    H131970   1.509   4.220   8.259 -2.7092  1.5232  1.5706
 3445TIP3    H231971   1.479   4.227   8.111  0.3671 -0.4113  0.8052
 3446TIP3   OH231972   2.713   3.569   0.185  0.0516 -0.5411  0.6029
 3446TIP3    H131973   2.675   3.539   0.267 -1.4640  0.0265  0.1249
 3446TIP3    H231974   2.698   3.664   0.184 -0.1318 -0.5668 -0.4042
 3447TIP3   OH231975   1.296   7.227   1.977 -0.2006 -0.4226  0.0224
 3447TIP3    H131976   1.320   7.191   2.062  0.8020 -1.4349 -0.6835
 3447TIP3    H231977   1.231   7.166   1.942  0.7895 -1.0324 -0.7585
 3448TIP3   OH231978   1.415   5.740   0.838 -0.2387  0.0987 -0.4882
 3448TIP3    H131979   1.410   5.667   0.900 -0.7014  0.4848 -0.0654
 3448TIP3    H231980   1.501   5.731   0.798 -0.0157 -0.2780  0.0609
 3449TIP3   OH231981   2.079   3.720   8.343  0.0603  0.1584 -0.2009
 3449TIP3    H131982   2.087   3.653   8.411 -0.9264 -0.0929 -0.3295
 3449TIP3    H231983   2.168   3.752   8.331  0.4822 -0.8524  0.1458
 3450TIP3   OH231984   6.991   4.274   1.410  0.1042  0.6978 -0.4979
 3450TIP3    H131985   6.968   4.182   1.427 -1.7965  1.5555  1.8199
 3450TIP3    H231986   7.079   4.270   1.373  0.2646 -2.0191  0.0531
 3451TIP3   OH231987   0.117   1.890   1.861  0.0689  0.0587  0.6753
 3451TIP3    H131988   0.035   1.903   1.908 -0.0863 -0.9067  0.6977
 3451TIP3    H231989   0.177   1.855   1.926  0.4405  0.5731  0.6114
 3452TIP3   OH231990   2.145   6.349   8.147  0.1760  0.3335 -0.1879
 3452TIP3    H131991   2.137   6.295   8.068 -1.4492  0.7086 -0.2921
 3452TIP3    H231992   2.167   6.436   8.114 -0.6443  0.5219 -0.2282
 3453TIP3   OH231993   0.204   2.114   1.388  0.2080  0.5195  0.1470
 3453TIP3    H131994   0.201   2.082   1.478  1.5229  0.4857  0.1871
 3453TIP3    H231995   0.164   2.202   1.392  0.0963  0.4436  0.7178
 3454TIP3   OH231996   2.724   5.119   7.209 -0.5853 -0.0934 -0.4189
 3454TIP3    H131997   2.758   5.189   7.265 -1.7203 -0.0756  0.2523
 3454TIP3    H231998   2.766   5.039   7.242  1.6196  0.3830 -1.9275
 3455TIP3   OH231999   7.117   5.192   6.929  0.3114 -0.2145  0.5411
 3455TIP3    H132000   7.072   5.185   6.845 -0.3151  0.2333  0.8361
 3455TIP3    H232001   7.180   5.263   6.917 -0.6692  0.7146  0.8445
 3456TIP3   OH232002   2.942   3.768   7.036  0.0730 -0.1034 -0.0686
 3456TIP3    H132003   2.978   3.690   6.995  1.9402  0.7802 -0.1332
 3456TIP3    H232004   2.937   3.832   6.965 -2.4597 -0.4424 -0.2658
 3457TIP3   OH232005   0.039   4.858   6.867 -0.2721  0.0798  0.2366
 3457TIP3    H132006   0.019   4.767   6.848  1.3349 -0.3409  0.4768
 3457TIP3    H232007  -0.027   4.884   6.932 -0.6682 -0.9385  0.2449
 3458TIP3   OH232008   7.272   6.691   8.147 -0.7054 -0.1643  0.4554
 3458TIP3    H132009   7.337   6.622   8.162  0.1024  0.7740  1.3993
 3458TIP3    H232010   7.306   6.766   8.197 -2.5362  0.3181  0.9840
 3459TIP3   OH232011   2.777   4.882   6.955  0.4682 -0.3104  0.6864
 3459TIP3    H132012   2.730   4.836   7.024  1.1641 -0.3070  1.1677
 3459TIP3    H232013   2.868   4.881   6.983  1.1686 -2.4850 -1.3865
 3460TIP3   OH232014   2.441   5.426   1.109  0.0015  0.0352 -0.4033
 3460TIP3    H132015   2.535   5.442   1.113  0.0472  0.1782 -1.8381
 3460TIP3    H232016   2.433   5.335   1.077 -0.3293 -0.8391  2.0672
 3461TIP3   OH232017   1.074   3.609   1.045 -0.6816  0.0909  0.1798
 3461TIP3    H132018   1.113   3.663   1.114  0.1891 -0.3255  0.0247
 3461TIP3    H232019   1.110   3.644   0.964  1.4403 -1.8945  0.1742
 3462TIP3   OH232020   6.805   6.743   1.070 -0.1985 -0.1758  0.3770
 3462TIP3    H132021   6.797   6.702   1.156 -0.3332 -0.5680  0.1774
 3462TIP3    H232022   6.899   6.759   1.059 -0.3171  1.1831  1.2047
 3463TIP3   OH232023   1.462   0.449   7.856  0.0560 -0.7661  0.1684
 3463TIP3    H132024   1.451   0.488   7.943 -1.4877  0.5222 -0.5727
 3463TIP3    H232025   1.401   0.375   7.855 -0.7927 -0.0703 -0.2145
 3464TIP3   OH232026   5.764   0.208   8.438  0.4216 -0.3169  0.4638
 3464TIP3    H132027   5.691   0.245   8.489  1.1043  0.3682  0.9546
 3464TIP3    H232028   5.839   0.213   8.498  1.2885  0.7216 -0.6935
 3465TIP3   OH232029   1.446   5.003   8.166  0.3820 -0.5589 -0.3418
 3465TIP3    H132030   1.456   4.983   8.259  0.6472 -0.9267 -0.4473
 3465TIP3    H232031   1.533   5.034   8.139 -0.0233  0.7363 -0.1821
 3466TIP3   OH232032   1.334   5.072   7.927 -0.0446 -0.4380 -0.5738
 3466TIP3    H132033   1.346   5.051   8.020  0.1102  0.0200 -0.4902
 3466TIP3    H232034   1.315   5.165   7.926 -0.6618 -0.5690 -0.9530
 3467TIP3   OH232035   1.584   3.896   1.891 -0.3418  0.3013 -0.0610
 3467TIP3    H132036   1.571   3.957   1.818  2.4670 -0.4078 -1.1939
 3467TIP3    H232037   1.626   3.949   1.959 -0.2056  0.2255 -0.0871
 3468TIP3   OH232038   2.440   6.815   7.883  0.0951 -0.1308  0.0618
 3468TIP3    H132039   2.389   6.890   7.914 -1.4987 -2.1490  2.5022
 3468TIP3    H232040   2.375   6.756   7.845  1.1751 -0.8269 -0.7251
 3469TIP3   OH232041   2.064   5.346   8.234  0.2104  0.1315 -0.0447
 3469TIP3    H132042   2.033   5.351   8.143  0.2284  2.1155  0.0394
 3469TIP3    H232043   1.987   5.363   8.287  0.9032  2.7541  0.2065
 3470TIP3   OH232044   1.584   4.812   7.600 -0.7521 -0.1764  0.2788
 3470TIP3    H132045   1.500   4.828   7.556 -2.0238 -0.6272  2.4558
 3470TIP3    H232046   1.585   4.718   7.618  1.3914 -0.6380 -1.9477
 3471TIP3   OH232047   0.885   4.664   1.225  0.8812 -0.1974  0.0212
 3471TIP3    H132048   0.886   4.607   1.302  0.2021  0.7047  0.7032
 3471TIP3    H232049   0.792   4.683   1.210  1.1064  0.8096 -0.1402
 3472TIP3   OH232050   0.545   4.591   0.862 -0.0381 -0.0662 -0.9162
 3472TIP3    H132051   0.530   4.545   0.779  0.3416  0.7594 -1.4434
 3472TIP3    H232052   0.542   4.684   0.839 -2.0425  0.2097  0.3690
 3473TIP3   OH232053   1.871   5.855   1.277  0.7015 -0.4753  0.1515
 3473TIP3    H132054   1.959   5.882   1.251  0.6245  0.4739  0.8396
 3473TIP3    H232055   1.869   5.761   1.262  1.6626 -0.4175 -0.3613
 3474TIP3   OH232056   0.970   6.194   6.004 -0.4875 -0.2777  0.6594
 3474TIP3    H132057   0.876   6.208   5.995 -0.5840 -1.1535  0.2344
 3474TIP3    H232058   0.981   6.100   5.993  0.6374  0.0337 -1.1295
 3475TIP3   OH232059   0.754   0.108   7.712  0.1716  0.4067  0.1672
 3475TIP3    H132060   0.689   0.082   7.646  0.0645 -0.1299  0.4775
 3475TIP3    H232061   0.710   0.093   7.796  1.3043 -1.6735  0.4336
 3476TIP3   OH232062   0.567   6.677   1.179  0.3365  0.3673 -0.0236
 3476TIP3    H132063   0.568   6.716   1.267  0.8018 -0.7987  0.4925
 3476TIP3    H232064   0.616   6.596   1.189 -2.2553 -1.3237 -0.6495
 3477TIP3   OH232065   2.398   3.149   0.619 -0.2446 -0.1125 -0.6041
 3477TIP3    H132066   2.322   3.092   0.624 -0.1167 -0.4570 -2.2820
 3477TIP3    H232067   2.373   3.227   0.669 -0.9369 -1.0405  0.5246
 3478TIP3   OH232068   2.437   4.573   7.789  0.4459 -0.7682  0.4007
 3478TIP3    H132069   2.444   4.538   7.878  1.4575 -0.3096  0.4992
 3478TIP3    H232070   2.492   4.650   7.789  0.3264 -0.6794 -0.5911
 3479TIP3   OH232071   1.607   4.056   6.258 -0.8470  0.4088 -0.2261
 3479TIP3    H132072   1.586   4.139   6.215  1.5992  0.3876 -1.5245
 3479TIP3    H232073   1.702   4.053   6.260 -0.9021 -1.1847  2.1789
 3480TIP3   OH232074   1.568   3.787   6.871  0.0501 -0.0279 -0.0146
 3480TIP3    H132075   1.634   3.776   6.803  1.2603 -1.1974  1.3313
 3480TIP3    H232076   1.606   3.851   6.931 -0.9846  0.9495 -0.3939
 3481TIP3   OH232077   6.791   2.100   1.944 -0.4774  0.2439  0.0921
 3481TIP3    H132078   6.716   2.116   2.001 -2.3815 -1.3814 -1.8333
 3481TIP3    H232079   6.785   2.007   1.922  0.2561  0.7719 -2.5767
 3482TIP3   OH232080   1.081   0.912   1.501 -0.0359  0.4443  0.2036
 3482TIP3    H132081   1.164   0.931   1.457  0.0126  1.6511  0.8038
 3482TIP3    H232082   1.107   0.871   1.584 -0.1111 -1.2308 -0.5782
 3483TIP3   OH232083   4.232   5.278   0.684 -0.3822  0.5739  0.0367
 3483TIP3    H132084   4.138   5.295   0.676 -0.1525  1.2125 -1.3718
 3483TIP3    H232085   4.271   5.364   0.696  0.0223  0.2981  0.7357
 3484TIP3   OH232086   2.525   7.259   8.273  0.5248 -0.0955 -0.1008
 3484TIP3    H132087   2.579   7.243   8.195  0.0660  1.2092 -0.7062
 3484TIP3    H232088   2.443   7.213   8.254  0.9875 -1.1185  0.3231
 3485TIP3   OH232089   2.437   3.094   6.973  0.0057 -0.4226  0.6648
 3485TIP3    H132090   2.395   3.167   7.018 -1.4962 -1.0963  0.4050
 3485TIP3    H232091   2.376   3.072   6.902  0.3347 -2.0668  0.8732
 3486TIP3   OH232092   3.344   3.655   8.451 -0.9245  0.4732 -0.1760
 3486TIP3    H132093   3.301   3.740   8.450  1.8082  1.9352  1.3379
 3486TIP3    H232094   3.403   3.658   8.376 -1.7467 -0.6356 -0.8925
 3487TIP3   OH232095   5.320   3.420   8.281 -0.0008 -0.0981 -0.8527
 3487TIP3    H132096   5.337   3.389   8.370  0.0128  0.8708 -0.5157
 3487TIP3    H232097   5.324   3.341   8.227 -0.3663 -0.7408  0.0537
 3488TIP3   OH232098   0.341   4.635   0.494 -0.5904 -0.9155  0.0602
 3488TIP3    H132099   0.303   4.689   0.563 -1.2360 -0.9972 -0.2200
 3488TIP3    H232100   0.435   4.636   0.510 -0.7206 -0.7572  0.8090
 3489TIP3   OH232101   3.127   5.177   1.559  0.0644  0.2875 -0.4351
 3489TIP3    H132102   3.042   5.159   1.600  0.5657  0.5173  0.7300
 3489TIP3    H232103   3.127   5.124   1.480 -1.1444  0.2373 -0.4046
 3490TIP3   OH232104   4.549   3.487   8.467  0.2835 -0.2847  0.2401
 3490TIP3    H132105   4.640   3.487   8.439 -0.0000 -1.7020 -0.7365
 3490TIP3    H232106   4.522   3.395   8.462 -0.8193 -0.0591  1.7949
 3491TIP3   OH232107   1.989   4.703   6.838  0.4216 -0.2557 -0.3718
 3491TIP3    H132108   1.975   4.760   6.914  2.3807 -0.4540  0.1760
 3491TIP3    H232109   1.941   4.623   6.859 -0.0795  0.1550  0.0834
 3492TIP3   OH232110   3.612   4.893   2.139 -0.3226 -0.0067 -0.2811
 3492TIP3    H132111   3.541   4.829   2.139  0.8741 -1.3589 -0.9464
 3492TIP3    H232112   3.629   4.910   2.232 -3.0202  2.0813 -0.1108
 3493TIP3   OH232113   2.081   5.624   7.562 -0.0592 -0.7143 -0.0269
 3493TIP3    H132114   2.099   5.642   7.654 -0.5989  1.7078 -0.3605
 3493TIP3    H232115   2.146   5.675   7.514 -0.9264 -0.5292 -1.0292
 3494TIP3   OH232116   3.605   1.840   6.782  0.0442 -0.4667 -0.3232
 3494TIP3    H132117   3.585   1.759   6.735  1.9418 -2.2200  1.7609
 3494TIP3    H232118   3.586   1.820   6.873  0.1055  1.5910  0.1625
 3495TIP3   OH232119   3.797   3.906   6.931  0.0189 -0.2137 -0.0175
 3495TIP3    H132120   3.805   3.956   6.850  0.7447  0.3023  0.3631
 3495TIP3    H232121   3.820   3.816   6.906  0.3303 -0.0391 -0.3682
 3496TIP3   OH232122   3.920   5.018   7.940 -0.7557 -0.2985  0.6299
 3496TIP3    H132123   3.885   5.081   7.877 -2.2612 -2.1767 -0.4449
 3496TIP3    H232124   3.964   4.952   7.886 -1.5786 -1.6385  1.5844
 3497TIP3   OH232125   4.015   3.163   6.533 -0.0228  0.0289  0.2588
 3497TIP3    H132126   4.021   3.071   6.508 -2.1689 -0.7555  2.4161
 3497TIP3    H232127   3.957   3.202   6.468  0.2876 -0.3099 -0.2264
 3498TIP3   OH232128   3.240   2.948   0.205  0.3148 -0.0738 -1.1028
 3498TIP3    H132129   3.164   2.974   0.153 -0.6217 -0.4230  0.0680
 3498TIP3    H232130   3.257   2.857   0.178 -0.0774 -0.2062 -0.9124
 3499TIP3   OH232131   2.620   4.498   0.748 -0.4057 -0.2640 -0.0195
 3499TIP3    H132132   2.635   4.457   0.833  0.1357 -2.2364 -1.0355
 3499TIP3    H232133   2.654   4.435   0.685 -1.9428  0.6106 -1.7676
 3500TIP3   OH232134   4.424   2.157   1.430  0.4973  0.5198  0.1236
 3500TIP3    H132135   4.474   2.237   1.416  0.9215  0.2916  0.3297
 3500TIP3    H232136   4.374   2.145   1.349 -0.0356  1.3226  0.3318
 3501TIP3   OH232137   2.986   5.913   7.758  0.1138 -0.1291 -0.4437
 3501TIP3    H132138   3.071   5.872   7.746 -0.5799 -2.5178  2.1684
 3501TIP3    H232139   2.970   5.908   7.852 -2.8891  0.2948 -0.8679
 3502TIP3   OH232140   3.458   5.501   1.113 -0.0508  0.4976 -0.2842
 3502TIP3    H132141   3.488   5.592   1.119 -1.8868  1.0832  0.4594
 3502TIP3    H232142   3.399   5.500   1.038  2.9595 -1.0129 -2.7587
 3503TIP3   OH232143   2.469   4.817   0.419  0.1981 -0.1037  0.6923
 3503TIP3    H132144   2.391   4.795   0.470  0.5570 -0.8033  0.9442
 3503TIP3    H232145   2.541   4.777   0.468  0.8574  1.6018  1.1296
 3504TIP3   OH232146   3.948   5.452   0.481  0.0383 -0.0341  0.2244
 3504TIP3    H132147   3.897   5.529   0.456 -1.5116 -0.8344  0.8643
 3504TIP3    H232148   3.949   5.398   0.402  1.5023  0.8268 -0.3611
 3505TIP3   OH232149   3.225   5.541   0.257  0.3330 -0.1934 -0.2486
 3505TIP3    H132150   3.164   5.496   0.198 -0.8097 -0.2028  0.9306
 3505TIP3    H232151   3.311   5.510   0.230 -0.3034 -1.5310 -0.7887
 3506TIP3   OH232152   2.674   4.735   7.708  0.3156 -0.8274  0.1726
 3506TIP3    H132153   2.751   4.681   7.727  0.2530 -0.6998  0.7974
 3506TIP3    H232154   2.704   4.825   7.723  0.3279 -0.7100 -0.5518
 3507TIP3   OH232155   1.065   4.141   7.531 -0.6102 -0.1164  0.2027
 3507TIP3    H132156   1.120   4.073   7.492  1.3959  1.0620  0.8733
 3507TIP3    H232157   1.114   4.171   7.608 -1.6660  1.7397  0.2048
 3508TIP3   OH232158   4.060   2.285   0.257 -0.8193 -0.0756  0.3047
 3508TIP3    H132159   4.061   2.263   0.164  0.2485 -2.7107  0.8868
 3508TIP3    H232160   4.063   2.380   0.260 -1.0729  0.0283 -2.3591
 3509TIP3   OH232161   2.908   4.841   0.743 -0.5613  0.1047 -0.2604
 3509TIP3    H132162   2.961   4.788   0.684  1.4718  0.1208  1.5041
 3509TIP3    H232163   2.904   4.927   0.701 -0.6085 -0.3566 -1.2163
 3510TIP3   OH232164   3.225   5.644   6.827 -0.3188  0.3802 -0.0652
 3510TIP3    H132165   3.194   5.630   6.917  0.8701 -1.6975  0.0583
 3510TIP3    H232166   3.145   5.655   6.776 -1.0556  0.3133  1.0359
 3511TIP3   OH232167   2.421   6.796   7.062 -0.4167  0.0261  0.1029
 3511TIP3    H132168   2.497   6.825   7.010  0.0983  0.1470  0.9083
 3511TIP3    H232169   2.443   6.822   7.152 -2.8463  2.9749 -0.1019
 3512TIP3   OH232170   1.845   5.564   1.319  0.0108  0.3595 -0.3345
 3512TIP3    H132171   1.794   5.529   1.391 -1.0806  0.7383 -0.9105
 3512TIP3    H232172   1.850   5.493   1.255  1.6120 -0.2308  0.4152
 3513TIP3   OH232173   3.559   5.162   0.891 -0.3511  0.2041 -0.1961
 3513TIP3    H132174   3.483   5.135   0.943  0.6497  1.1210  1.7601
 3513TIP3    H232175   3.527   5.236   0.840 -0.6278  0.9764  1.0728
 3514TIP3   OH232176   3.370   4.186   7.805  0.4436 -0.2182  0.3069
 3514TIP3    H132177   3.428   4.223   7.738  0.4141  0.7430  0.7991
 3514TIP3    H232178   3.294   4.155   7.756  0.4938  0.3363 -0.1315
 3515TIP3   OH232179   2.512   5.668   0.080 -0.6954 -0.1209 -0.1453
 3515TIP3    H132180   2.466   5.743   0.042  0.0624  0.2268 -0.3656
 3515TIP3    H232181   2.598   5.701   0.104 -0.8332 -0.5764  1.0183
 3516TIP3   OH232182   4.346   4.106   1.656 -0.1011 -0.4699  0.7341
 3516TIP3    H132183   4.360   4.014   1.631 -0.4576 -0.5688  0.9053
 3516TIP3    H232184   4.327   4.103   1.750 -1.4308 -0.3404  0.4736
 3517TIP3   OH232185   1.886   5.908   1.661 -0.6010  0.2913  0.1085
 3517TIP3    H132186   1.861   5.819   1.638 -0.3686  0.2988 -0.1733
 3517TIP3    H232187   1.866   5.915   1.755 -0.0848 -0.2362  0.2587
 3518TIP3   OH232188   3.038   5.219   7.361  0.0090 -0.0619 -0.4217
 3518TIP3    H132189   2.978   5.211   7.436  0.6903 -1.7617 -0.0477
 3518TIP3    H232190   3.003   5.293   7.311 -2.5377 -1.1196 -0.3136
 3519TIP3   OH232191   5.793   4.032   0.068  0.1813 -0.2418 -0.3991
 3519TIP3    H132192   5.729   4.072   0.127  0.2993 -0.0235 -0.4166
 3519TIP3    H232193   5.763   3.942   0.056  0.9853 -0.7504  1.2131
 3520TIP3   OH232194   3.932   4.227   0.284  0.3310  0.3278 -0.7366
 3520TIP3    H132195   3.901   4.147   0.241  2.1304  1.5632 -4.6459
 3520TIP3    H232196   3.939   4.204   0.376 -1.2778 -3.3549 -1.4485
 3521TIP3   OH232197   5.475   5.266   7.253  0.5120  0.6590  0.7754
 3521TIP3    H132198   5.434   5.234   7.334  1.7922  0.4046  1.3289
 3521TIP3    H232199   5.519   5.347   7.278  2.3122 -0.2831  0.7232
 3522TIP3   OH232200   2.754   3.612   0.467  0.0715  0.1038 -0.3601
 3522TIP3    H132201   2.801   3.695   0.472 -0.6918  0.5562 -0.5677
 3522TIP3    H232202   2.667   3.633   0.500 -0.0625 -0.6591 -0.2414
 3523TIP3   OH232203   5.894   4.768   7.853 -0.6583 -0.3534  0.0602
 3523TIP3    H132204   5.813   4.796   7.896 -1.2038 -0.9415 -0.5711
 3523TIP3    H232205   5.866   4.698   7.793  0.4748 -1.2482  0.5785
 3524TIP3   OH232206   2.728   4.362   7.808 -0.3263  0.0176 -0.3832
 3524TIP3    H132207   2.821   4.341   7.795 -0.0070  1.0622  0.1826
 3524TIP3    H232208   2.702   4.409   7.729  0.5779  2.8884  0.9883
 3525TIP3   OH232209   2.236   4.253   0.802  0.5684 -0.2817 -0.2215
 3525TIP3    H132210   2.289   4.261   0.881 -0.6312  0.2236  0.5422
 3525TIP3    H232211   2.186   4.335   0.798  0.4707 -0.3892 -1.3867
 3526TIP3   OH232212   1.367   5.760   7.721  0.3058 -0.1046 -0.1551
 3526TIP3    H132213   1.294   5.817   7.747  0.3206 -1.1517  2.2885
 3526TIP3    H232214   1.336   5.718   7.641 -0.3399  2.0806 -1.1164
 3527TIP3   OH232215   4.975   6.058   2.049  0.7246 -0.3496 -0.4548
 3527TIP3    H132216   4.968   6.148   2.081 -3.9948 -0.8432  0.2937
 3527TIP3    H232217   5.060   6.028   2.081  0.2069  2.2104  3.7512
 3528TIP3   OH232218   4.246   5.284   8.223  0.1180  0.0478  0.5376
 3528TIP3    H132219   4.308   5.349   8.256  2.1711 -1.4472 -0.2817
 3528TIP3    H232220   4.190   5.333   8.162 -0.1153  1.6002  1.9638
 3529TIP3   OH232221   5.873   5.626   1.879 -0.6100 -0.3682 -0.6538
 3529TIP3    H132222   5.809   5.674   1.933 -0.8067 -0.1233 -1.1004
 3529TIP3    H232223   5.911   5.561   1.938  0.7632  1.3403  0.3980
 3530TIP3   OH232224   4.303   7.085   1.952  0.3891 -0.0244  0.1495
 3530TIP3    H132225   4.353   7.156   1.913  0.6012 -1.1522 -1.6937
 3530TIP3    H232226   4.370   7.025   1.986  0.2421 -0.2319  0.0769
 3531TIP3   OH232227   3.971   6.746   7.142  0.8482 -0.2648  0.2995
 3531TIP3    H132228   3.898   6.690   7.168  1.7352 -1.3218  0.5530
 3531TIP3    H232229   4.009   6.702   7.066  0.4527  0.9425 -0.6092
 3532TIP3   OH232230   4.995   5.229   8.364 -0.2301  0.4323  0.5763
 3532TIP3    H132231   5.077   5.280   8.357  0.5221 -0.7720  0.4390
 3532TIP3    H232232   4.990   5.204   8.456  0.9180 -1.6787  0.0949
 3533TIP3   OH232233   6.130   3.657   8.463 -0.1073 -0.0960 -0.1012
 3533TIP3    H132234   6.138   3.570   8.424 -0.8057  0.6085 -1.8607
 3533TIP3    H232235   6.220   3.681   8.485  0.5553  0.2340 -2.9847
 3534TIP3   OH232236   3.889   5.029   6.902 -0.2303 -0.3630  0.3402
 3534TIP3    H132237   3.941   4.971   6.959  0.6466  1.1088  1.0709
 3534TIP3    H232238   3.954   5.069   6.844 -1.1298 -1.8952 -1.7842
 3535TIP3   OH232239   3.117   3.840   1.747  0.2113 -0.2260  0.0676
 3535TIP3    H132240   3.036   3.883   1.774 -0.9513 -0.7987 -2.3408
 3535TIP3    H232241   3.099   3.807   1.659  3.0832 -0.3417 -0.5478
 3536TIP3   OH232242   4.720   4.010   0.969 -0.0715 -0.0171  0.1295
 3536TIP3    H132243   4.677   3.946   1.025  0.4251  0.0617  0.6061
 3536TIP3    H232244   4.670   4.008   0.888  0.2681 -1.3840 -0.0518
 3537TIP3   OH232245   5.438   3.652   0.048 -0.3385  0.2075  0.1330
 3537TIP3    H132246   5.412   3.560   0.043  2.5515 -0.7447  1.5935
 3537TIP3    H232247   5.449   3.669   0.142  1.0951  1.4476 -0.2391
 3538TIP3   OH232248   5.343   4.730   0.562 -0.3351 -0.2301  0.1307
 3538TIP3    H132249   5.337   4.822   0.535 -0.3337 -0.5755 -1.1182
 3538TIP3    H232250   5.437   4.713   0.567 -0.3325 -0.2965 -0.1345
 3539TIP3   OH232251   5.204   4.070   0.712  0.3256  0.4270 -0.7628
 3539TIP3    H132252   5.263   4.002   0.679  0.8070 -0.5832  2.0515
 3539TIP3    H232253   5.124   4.023   0.735 -0.1394  1.1753 -0.8129
 3540TIP3   OH232254   5.277   5.694   7.724  0.5055  0.1995 -0.1342
 3540TIP3    H132255   5.331   5.667   7.650  0.7354  2.2889 -0.7596
 3540TIP3    H232256   5.196   5.726   7.684 -1.4247 -3.2094  0.8010
 3541TIP3   OH232257   4.643   2.610   0.442 -0.7896  0.4026  0.2894
 3541TIP3    H132258   4.557   2.573   0.421 -0.1608 -0.9240 -0.0065
 3541TIP3    H232259   4.684   2.544   0.498  0.5995  0.3558 -0.7499
 3542TIP3   OH232260   6.790   4.600   1.612 -0.2886  0.4042 -0.2272
 3542TIP3    H132261   6.760   4.510   1.599  1.1337  0.0610 -1.1946
 3542TIP3    H232262   6.877   4.591   1.651  0.4101  1.3334 -1.5497
 3543TIP3   OH232263   4.999   5.416   7.606  0.9060 -0.6249 -0.8361
 3543TIP3    H132264   4.921   5.437   7.554  1.5420 -1.5433 -2.2133
 3543TIP3    H232265   5.071   5.459   7.560  1.1539  0.6580  0.7249
 3544TIP3   OH232266   3.810   5.362   6.744  0.1154 -0.2015  0.1783
 3544TIP3    H132267   3.868   5.287   6.731 -0.9779 -1.1675  0.7721
 3544TIP3    H232268   3.798   5.367   6.839 -0.5415  0.1662  0.0796
 3545TIP3   OH232269   5.436   5.297   0.307 -0.3285  0.0382 -0.3984
 3545TIP3    H132270   5.352   5.253   0.315  0.4232 -1.4672 -0.5777
 3545TIP3    H232271   5.493   5.253   0.371  0.4219  0.7658 -0.5540
 3546TIP3   OH232272   4.514   2.420   1.378 -0.1696 -1.1982 -0.4670
 3546TIP3    H132273   4.457   2.451   1.308 -0.2789 -0.9597 -0.2766
 3546TIP3    H232274   4.551   2.500   1.415  1.8701 -1.4595 -1.9100
 3547TIP3   OH232275   2.380   6.035   6.953 -0.0349  0.0324 -0.6967
 3547TIP3    H132276   2.356   6.127   6.959 -2.2737 -0.6428  2.1923
 3547TIP3    H232277   2.332   6.002   6.877  1.0780  1.3027 -1.9638
 3548TIP3   OH232278   4.077   5.059   0.399  0.4603 -0.0251 -0.6383
 3548TIP3    H132279   4.104   4.981   0.350  0.5267  0.2491 -1.0365
 3548TIP3    H232280   4.039   5.024   0.480  0.4987 -0.4718 -0.8113
 3549TIP3   OH232281   4.246   5.284   6.834 -0.4946  0.2662 -0.4397
 3549TIP3    H132282   4.316   5.296   6.770  1.0656 -1.7319  0.8209
 3549TIP3    H232283   4.173   5.250   6.783 -0.0272  0.8643 -1.5264
 3550TIP3   OH232284   4.257   6.382   0.339  0.3921  0.0924 -0.4275
 3550TIP3    H132285   4.222   6.405   0.253  0.1538  1.7006  0.0845
 3550TIP3    H232286   4.183   6.345   0.386 -0.2384  1.8858  0.0559
 3551TIP3   OH232287   3.473   4.619   0.333 -0.1693  0.2319  1.0254
 3551TIP3    H132288   3.565   4.594   0.346 -0.0241  0.5082  0.5668
 3551TIP3    H232289   3.473   4.666   0.249 -1.1673 -2.1093 -0.3420
 3552TIP3   OH232290   5.126   0.413   0.338  0.0995  0.5035 -0.2359
 3552TIP3    H132291   5.047   0.441   0.384  1.2145  1.8212  0.9380
 3552TIP3    H232292   5.122   0.458   0.254 -1.5834 -1.3269 -1.1639
 3553TIP3   OH232293   5.609   7.200   0.154 -0.8804  0.0766 -0.3166
 3553TIP3    H132294   5.648   7.270   0.206 -2.1271 -0.1850  0.9979
 3553TIP3    H232295   5.628   7.224   0.064 -0.4665  1.6206  0.1647
 3554TIP3   OH232296   5.070   6.991   7.081 -0.2618 -0.1978 -0.8377
 3554TIP3    H132297   5.133   6.928   7.115 -0.6495 -0.8312 -1.2884
 3554TIP3    H232298   5.124   7.059   7.040  0.1178 -0.8818 -1.4647
 3555TIP3   OH232299   3.766   5.117   0.557 -0.4685 -0.2050 -0.2521
 3555TIP3    H132300   3.726   5.201   0.535  1.1268 -0.1131 -3.0643
 3555TIP3    H232301   3.843   5.140   0.610 -1.0258 -0.0307  0.4908
 3556TIP3   OH232302   3.775   3.341   0.496 -0.5908 -0.9304 -0.2340
 3556TIP3    H132303   3.782   3.377   0.584 -0.3098 -0.7466 -0.3322
 3556TIP3    H232304   3.693   3.377   0.462 -0.1863 -0.1877 -0.4227
 3557TIP3   OH232305   4.262   3.650   7.318 -0.4563  0.1152 -0.4030
 3557TIP3    H132306   4.218   3.662   7.402 -1.3923 -1.0378 -0.7002
 3557TIP3    H232307   4.355   3.646   7.339 -0.6126  0.9198  0.4452
 3558TIP3   OH232308   6.401   5.412   6.488 -0.4150 -0.0529  0.2644
 3558TIP3    H132309   6.364   5.490   6.447 -2.3235 -0.6521  0.8129
 3558TIP3    H232310   6.408   5.349   6.417  0.9129  0.5123 -0.1306
 3559TIP3   OH232311   6.030   6.277   8.011  0.4262  0.4682 -0.2466
 3559TIP3    H132312   6.051   6.201   8.065 -1.0417 -1.2410 -2.0347
 3559TIP3    H232313   6.114   6.306   7.975  1.0789  0.1509  1.0181
 3560TIP3   OH232314   5.976   3.940   8.026 -0.1420  0.2985 -0.4519
 3560TIP3    H132315   6.004   3.854   7.996 -0.6334  0.4431 -1.3741
 3560TIP3    H232316   5.999   3.943   8.119 -0.1758 -0.8397 -0.4066
 3561TIP3   OH232317   5.821   0.342   0.808 -0.2670  0.5372 -0.1507
 3561TIP3    H132318   5.904   0.384   0.825 -0.1010  0.1596 -0.0179
 3561TIP3    H232319   5.783   0.326   0.895  0.1699 -0.5731 -0.1591
 3562TIP3   OH232320   5.137   6.579   8.397  0.0677  0.7386 -0.0870
 3562TIP3    H132321   5.159   6.631   8.320 -0.4047  1.0608 -0.0065
 3562TIP3    H232322   5.125   6.644   8.467  3.2220  0.2965  0.9457
 3563TIP3   OH232323   5.052   4.770   7.848  0.3873  0.3244 -0.3825
 3563TIP3    H132324   5.092   4.734   7.768  0.3927 -0.5370  0.0010
 3563TIP3    H232325   5.104   4.849   7.867  3.2173 -1.8109  1.1899
 3564TIP3   OH232326   6.156   4.036   0.021  0.4046 -0.0051 -0.3146
 3564TIP3    H132327   6.128   3.959   0.070  0.3014 -1.2711 -2.2872
 3564TIP3    H232328   6.236   4.065   0.065  0.4927 -1.2895  0.3999
 3565TIP3   OH232329   5.191   5.538   1.408  0.6181  0.5653 -0.2431
 3565TIP3    H132330   5.109   5.505   1.445 -0.3146  2.7697 -0.2678
 3565TIP3    H232331   5.208   5.481   1.333  1.8597 -3.1449  2.7282
 3566TIP3   OH232332   4.406   5.040   7.563 -0.5097 -0.4950 -0.2288
 3566TIP3    H132333   4.466   5.032   7.489 -0.7879 -0.7704 -0.4250
 3566TIP3    H232334   4.450   4.995   7.634 -0.2667 -0.2776 -0.2407
 3567TIP3   OH232335   4.204   0.266   7.999 -0.5240  0.2952  0.1571
 3567TIP3    H132336   4.156   0.321   7.937  0.5106  1.8214  0.6900
 3567TIP3    H232337   4.140   0.247   8.068 -2.0891 -2.4775 -1.9091
 3568TIP3   OH232338   4.002   6.624   6.883 -0.0673  0.4324 -0.7823
 3568TIP3    H132339   4.017   6.636   6.789 -1.5915  0.3477 -1.0480
 3568TIP3    H232340   3.993   6.530   6.895 -0.4277  0.4813 -0.6439
 3569TIP3   OH232341   6.487   4.106   6.946  0.1911  0.1508  0.0317
 3569TIP3    H132342   6.406   4.127   6.900 -0.3980 -0.1859  0.9122
 3569TIP3    H232343   6.463   4.107   7.039  1.1683 -0.0583  0.2911
 3570TIP3   OH232344   7.282   3.852   6.228 -0.7940  0.7632  0.0848
 3570TIP3    H132345   7.230   3.916   6.179  0.2305  0.2728 -1.7022
 3570TIP3    H232346   7.299   3.782   6.165 -1.2899 -0.9443  1.8005
 3571TIP3   OH232347   0.739   3.927   2.331  0.9422 -0.2744 -0.1171
 3571TIP3    H132348   0.752   4.022   2.327  1.6615 -0.3760 -0.3196
 3571TIP3    H232349   0.744   3.898   2.240 -0.0539 -0.4101 -0.1268
 3572TIP3   OH232350   1.134   4.471   7.407  0.3928 -0.0927 -0.2224
 3572TIP3    H132351   1.049   4.426   7.398 -0.2044  1.0834 -0.6218
 3572TIP3    H232352   1.152   4.504   7.319  1.6153 -0.9329 -0.2957
 3573TIP3   OH232353   6.188   3.871   0.249 -0.1188  0.2035  0.0203
 3573TIP3    H132354   6.207   3.887   0.341 -0.8845  0.6447  0.1129
 3573TIP3    H232355   6.268   3.895   0.203 -0.1669  1.2569  0.4596
 3574TIP3   OH232356   0.509   3.838   1.179 -0.1858  0.6282 -0.0763
 3574TIP3    H132357   0.427   3.843   1.228  0.2198  0.0586  0.6712
 3574TIP3    H232358   0.576   3.822   1.245  0.3081 -0.6731 -0.8652
 3575TIP3   OH232359   6.804   5.213   7.858  0.2627  0.6988  0.2205
 3575TIP3    H132360   6.862   5.154   7.809  0.8711  0.8812  0.7197
 3575TIP3    H232361   6.792   5.288   7.800  1.6205  1.2752  0.6497
 3576TIP3   OH232362   5.493   4.745   0.131  0.4996  0.9876 -0.2890
 3576TIP3    H132363   5.506   4.696   0.050 -1.3711  0.1890 -0.1390
 3576TIP3    H232364   5.401   4.774   0.126  1.0499  2.9303  0.4643
 3577TIP3   OH232365   4.977   4.091   7.941  0.1075 -0.2728  0.1738
 3577TIP3    H132366   5.020   4.087   8.027 -0.1428  0.2102  0.3219
 3577TIP3    H232367   4.981   4.183   7.916  2.3028 -0.7424 -1.4257
 3578TIP3   OH232368   6.012   4.196   1.434 -0.7371 -0.0893  0.2247
 3578TIP3    H132369   5.941   4.173   1.375 -0.8313 -0.5580  0.5180
 3578TIP3    H232370   5.974   4.190   1.522 -0.3547 -0.2853  0.3809
 3579TIP3   OH232371   1.362   4.723   0.134 -0.2994  0.4674 -0.6054
 3579TIP3    H132372   1.425   4.696   0.066  0.1913  0.5646 -0.1952
 3579TIP3    H232373   1.276   4.711   0.093 -0.1752 -3.2164  0.0628
 3580TIP3   OH232374   6.304   6.086   0.436  0.3315 -0.2333  0.0723
 3580TIP3    H132375   6.224   6.060   0.390 -1.5454  0.8247  2.5770
 3580TIP3    H232376   6.358   6.126   0.369 -2.3450  1.3455 -1.2374
 3581TIP3   OH232377   6.210   4.156   1.198  0.0327  0.0284 -0.8488
 3581TIP3    H132378   6.155   4.112   1.134  1.6087 -1.3308 -1.2938
 3581TIP3    H232379   6.163   4.146   1.281 -0.4550 -1.0033 -1.2403
 3582TIP3   OH232380   6.559   4.745   8.036 -0.3368  0.4516 -0.3785
 3582TIP3    H132381   6.521   4.756   8.123 -0.2005  0.8728 -0.3679
 3582TIP3    H232382   6.570   4.835   8.004 -2.4054  0.2819 -1.7045
 3583TIP3   OH232383   5.529   0.409   1.240 -0.1892 -0.1713  1.2194
 3583TIP3    H132384   5.612   0.429   1.283  0.3686 -0.1967  0.1722
 3583TIP3    H232385   5.516   0.483   1.180 -0.5732 -0.5181  0.8778
 3584TIP3   OH232386   0.690   4.925   8.116 -0.3421  0.2682 -0.8362
 3584TIP3    H132387   0.705   4.959   8.027 -0.6378  1.5441 -0.4075
 3584TIP3    H232388   0.599   4.895   8.114  0.1256 -1.1168 -1.4135
 3585TIP3   OH232389   5.719   4.613   7.190  0.6626 -0.3467 -0.1886
 3585TIP3    H132390   5.775   4.540   7.214  3.0907  1.4518 -0.2258
 3585TIP3    H232391   5.775   4.690   7.197 -1.7177  1.4870 -0.5469
 3586TIP3   OH232392   6.000   4.399   7.882 -0.4463  0.1029  0.3171
 3586TIP3    H132393   6.084   4.406   7.837 -0.8507  0.8126 -0.3520
 3586TIP3    H232394   5.957   4.325   7.840  0.5658 -1.4349  1.9041
 3587TIP3   OH232395   0.192   6.110   5.983 -0.4015  0.7521  0.2712
 3587TIP3    H132396   0.204   6.090   6.075  0.0898  0.3642  0.1287
 3587TIP3    H232397   0.229   6.035   5.937 -0.3684  1.0779 -0.2436
 3588TIP3   OH232398   7.016   5.327   7.337 -0.0467  0.7375  0.1876
 3588TIP3    H132399   6.946   5.378   7.377  1.0000  1.0298  1.6832
 3588TIP3    H232400   6.972   5.271   7.273 -1.6048  1.0867  0.9401
 3589TIP3   OH232401   6.749   5.136   0.062  0.9773 -0.4048 -0.3758
 3589TIP3    H132402   6.721   5.109  -0.025 -0.3666  0.2544 -0.1588
 3589TIP3    H232403   6.831   5.184   0.047 -0.1565  1.2221 -1.4733
 3590TIP3   OH232404   6.354   5.080   0.094 -0.3611 -0.1368 -0.1433
 3590TIP3    H132405   6.354   4.984   0.094  2.0103 -0.1634 -0.0844
 3590TIP3    H232406   6.367   5.103   0.002 -0.2509  0.1305 -0.0594
 3591TIP3   OH232407   0.066   7.331   8.096  0.1258 -0.3112 -0.7751
 3591TIP3    H132408   0.042   7.321   8.003 -1.1741 -1.0514 -0.3718
 3591TIP3    H232409   0.061   7.426   8.111 -2.8175 -0.4236 -0.6692
 3592TIP3   OH232410   0.222   4.088   0.948  0.1764  0.0364  0.3111
 3592TIP3    H132411   0.183   4.163   0.994  1.0421  1.3736 -1.0705
 3592TIP3    H232412   0.164   4.074   0.873 -0.0180 -0.7311  0.6014
 3593TIP3   OH232413   0.345   4.449   7.450  0.0906  0.0720 -0.5322
 3593TIP3    H132414   0.329   4.502   7.372 -1.5823  0.4342  0.0421
 3593TIP3    H232415   0.433   4.474   7.478  0.2977  0.6942 -1.7147
 3594TIP3   OH232416   6.021   5.796   1.394 -0.2293 -0.0613 -0.3398
 3594TIP3    H132417   5.964   5.758   1.327 -1.5657  0.4336  0.4963
 3594TIP3    H232418   6.017   5.735   1.467  2.3734 -1.3472 -1.2015
 3595TIP3   OH232419   6.840   5.917   6.171  0.0906 -0.0480 -0.3012
 3595TIP3    H132420   6.786   5.852   6.216  1.0396 -2.0697 -1.9600
 3595TIP3    H232421   6.930   5.892   6.192  0.5117 -0.2862 -2.2288
 3596TIP3   OH232422   7.326   5.791   0.214 -0.0109 -0.7760  0.6419
 3596TIP3    H132423   7.298   5.801   0.304 -0.5909 -0.1653  0.3928
 3596TIP3    H232424   7.334   5.696   0.201 -0.0360 -0.8650  1.2904
 3597TIP3   OH232425   6.197   0.768   7.583 -0.2407  0.0457 -0.2714
 3597TIP3    H132426   6.206   0.737   7.673 -0.9318 -0.3313 -0.3208
 3597TIP3    H232427   6.151   0.852   7.591 -2.0240 -0.9008 -0.3796
 3598TIP3   OH232428   5.559   5.151   0.846 -0.2160  0.1684 -0.7226
 3598TIP3    H132429   5.532   5.243   0.849 -3.0136 -0.5492 -2.4389
 3598TIP3    H232430   5.481   5.102   0.868  0.8567 -1.8642 -1.3401
 3599TIP3   OH232431   6.001   3.062   6.536  0.0234 -0.0536 -0.1423
 3599TIP3    H132432   6.094   3.042   6.528 -0.3598 -1.7869 -0.6211
 3599TIP3    H232433   5.985   3.132   6.473  1.0775  0.4968  0.2066
 3600TIP3   OH232434   6.895   5.422   6.543  0.1779  0.3116  0.1620
 3600TIP3    H132435   6.896   5.451   6.452  0.1667 -2.5896 -0.8341
 3600TIP3    H232436   6.822   5.469   6.583  0.4165  1.8996 -1.2395
 3601TIP3   OH232437   4.762   3.515   1.026 -0.9829 -0.4610 -0.1995
 3601TIP3    H132438   4.689   3.542   1.081 -1.1986  0.4075 -0.8893
 3601TIP3    H232439   4.722   3.492   0.942 -0.4510  0.3607 -0.6972
 3602TIP3   OH232440   1.628   2.031   1.802 -0.0127  0.1345 -0.6621
 3602TIP3    H132441   1.641   2.017   1.896 -0.7559  1.2355 -0.3928
 3602TIP3    H232442   1.682   1.964   1.760 -0.0593 -0.6786  0.5576
 3603TIP3   OH232443   6.906   5.151   7.165  0.0984 -0.2259 -0.1981
 3603TIP3    H132444   6.864   5.066   7.166  1.6596 -1.0242  0.4302
 3603TIP3    H232445   6.957   5.153   7.084 -0.9202  0.6226 -0.8291
 3604TIP3   OH232446   5.898   6.902   7.500  0.0911  0.1453 -0.4858
 3604TIP3    H132447   5.936   6.876   7.416  0.6891 -3.7431  0.8514
 3604TIP3    H232448   5.974   6.921   7.556 -0.3305  4.3381 -1.2090
 3605TIP3   OH232449   7.236   7.146   1.591  0.3291  0.1701  0.6095
 3605TIP3    H132450   7.169   7.077   1.582  0.2276  0.2063  1.0496
 3605TIP3    H232451   7.237   7.189   1.506  0.4353 -0.4148  0.3076
 3606TIP3   OH232452   1.765   7.214   0.978  0.4350 -0.2331 -0.7752
 3606TIP3    H132453   1.715   7.250   1.051  1.9371 -0.0783  0.1925
 3606TIP3    H232454   1.849   7.190   1.016  2.3628  2.6153 -3.0328
 3607TIP3   OH232455   0.913   5.896   8.258 -0.0251  0.1560 -0.1982
 3607TIP3    H132456   0.871   5.810   8.258 -0.1199  0.2024 -0.8575
 3607TIP3    H232457   1.001   5.880   8.292 -1.0906  0.3286  2.8691
 3608TIP3   OH232458   1.149   7.217   7.830 -0.1412 -0.1383 -0.4379
 3608TIP3    H132459   1.118   7.295   7.877 -1.0200 -0.6239 -0.1962
 3608TIP3    H232460   1.084   7.149   7.851  1.8048 -1.5541  1.1790
 3609TIP3   OH232461   0.798   4.137   7.586 -0.8275  0.1408  0.6849
 3609TIP3    H132462   0.857   4.085   7.641  0.1652  2.4311  1.8548
 3609TIP3    H232463   0.836   4.131   7.499  1.4995  1.9602  1.5022
 3610TIP3   OH232464   0.119   0.638   6.897 -0.2168 -0.6236  0.2560
 3610TIP3    H132465   0.035   0.623   6.940 -0.3660  1.1279  0.6338
 3610TIP3    H232466   0.172   0.562   6.919 -2.1417 -2.3976 -1.1128
 3611TIP3   OH232467   0.631   7.078   8.348  0.2938 -0.9709 -0.3346
 3611TIP3    H132468   0.628   7.150   8.286  0.6959 -0.6438  0.0247
 3611TIP3    H232469   0.622   7.119   8.434  1.9980 -1.2012 -0.0308
 3612TIP3   OH232470   7.267   5.414   7.456  0.0537 -0.5768 -0.6930
 3612TIP3    H132471   7.341   5.418   7.395 -0.5267  1.8563 -1.2633
 3612TIP3    H232472   7.198   5.369   7.407  0.3688 -0.7294 -1.0006
 3613TIP3   OH232473   0.530   3.650   6.935 -0.4740 -0.8013  0.0958
 3613TIP3    H132474   0.455   3.710   6.933 -0.9422 -1.3608  0.5159
 3613TIP3    H232475   0.492   3.564   6.916  0.0072 -1.1378  0.6454
 3614TIP3   OH232476   7.034   6.630   7.069  0.0580 -0.0541  0.0880
 3614TIP3    H132477   7.016   6.536   7.067 -0.2151 -0.0075  0.3051
 3614TIP3    H232478   7.111   6.641   7.014 -0.7895 -0.2092 -1.1499
 3615TIP3   OH232479   1.083   0.426   1.747  1.0409 -0.4848  0.5086
 3615TIP3    H132480   1.168   0.445   1.787  0.2643  0.3221  1.8607
 3615TIP3    H232481   1.035   0.378   1.815  0.5763 -1.3345 -0.4120
 3616TIP3   OH232482   2.225   6.768   0.221 -0.2798  0.0324 -0.2352
 3616TIP3    H132483   2.242   6.674   0.214  1.5285  0.4071 -1.1068
 3616TIP3    H232484   2.186   6.779   0.308  3.1149 -1.0222  1.4873
 3617TIP3   OH232485   0.117   4.692   1.649  0.2011 -0.1000  0.0226
 3617TIP3    H132486   0.136   4.599   1.638  1.6983  0.0573  1.0882
 3617TIP3    H232487   0.202   4.735   1.638 -0.6993  1.2954 -1.8597
 3618TIP3   OH232488   1.177   5.601   0.303  0.1517 -0.3582  0.2632
 3618TIP3    H132489   1.134   5.574   0.384 -0.6530  0.4434  0.1093
 3618TIP3    H232490   1.122   5.671   0.269 -0.9603 -2.3642 -2.2912
 3619TIP3   OH232491   2.480   1.640   1.120 -0.1505  0.2378  0.2592
 3619TIP3    H132492   2.412   1.580   1.090  0.3890 -0.1132 -0.2628
 3619TIP3    H232493   2.523   1.671   1.040 -0.1567  1.0048  0.5453
 3620TIP3   OH232494   1.418   5.786   7.119 -0.1174 -0.1960 -0.5396
 3620TIP3    H132495   1.421   5.784   7.023  0.0763  1.4588 -0.5870
 3620TIP3    H232496   1.382   5.872   7.140  0.3363 -0.3352  0.8819
 3621TIP3   OH232497   0.221   5.886   0.583  0.1816  0.3663 -0.2197
 3621TIP3    H132498   0.233   5.926   0.497  1.4037  0.7589  0.1246
 3621TIP3    H232499   0.307   5.852   0.607  0.5554  2.7459  2.0674
 3622TIP3   OH232500   4.550   7.234   1.987  0.0215 -0.1944 -0.5141
 3622TIP3    H132501   4.572   7.142   1.977 -0.0235 -0.0556 -1.9216
 3622TIP3    H232502   4.598   7.261   2.066  1.9382 -0.8222 -1.4394
 3623TIP3   OH232503   1.778   0.025   7.515 -0.2622  0.6977 -0.4219
 3623TIP3    H132504   1.709   0.073   7.469  0.3398  1.0072 -1.0224
 3623TIP3    H232505   1.735  -0.052   7.550 -0.5608  0.0048 -2.2641
 3624TIP3   OH232506   6.876   7.201   6.011 -0.1887  0.3802  0.3644
 3624TIP3    H132507   6.894   7.119   6.057  1.8194  1.2422  1.1882
 3624TIP3    H232508   6.841   7.259   6.078  1.2096  1.1207  0.4795
 3625TIP3   OH232509   1.164   5.912   7.835 -0.4792 -0.0877 -0.0564
 3625TIP3    H132510   1.074   5.902   7.805 -0.0501 -0.8597 -1.1325
 3625TIP3    H232511   1.201   5.980   7.778 -0.6258  0.8944  0.9845
 3626TIP3   OH232512   6.917   6.130   2.086  0.1198  0.0907 -0.1308
 3626TIP3    H132513   6.890   6.065   2.021 -1.1121  0.3662  0.0991
 3626TIP3    H232514   6.851   6.199   2.081  0.5177  0.5500  0.7785
 3627TIP3   OH232515   3.030   5.051   7.725  0.3879 -0.4793 -0.0846
 3627TIP3    H132516   3.124   5.046   7.710  0.2452 -3.8545 -0.2469
 3627TIP3    H232517   2.991   5.010   7.648 -1.4437  3.6875 -1.5527
 3628TIP3   OH232518   1.412   0.600   6.706  0.2318  0.4709  1.1510
 3628TIP3    H132519   1.356   0.678   6.711  2.5529  2.2195  0.8565
 3628TIP3    H232520   1.355   0.528   6.734 -2.9434  1.7405 -1.6193
 3629TIP3   OH232521   3.372   0.099   6.818 -0.9529 -0.1961  0.0790
 3629TIP3    H132522   3.448   0.150   6.848  0.3136 -0.9937 -1.6812
 3629TIP3    H232523   3.305   0.165   6.799 -0.9539  0.4814  2.2214
 3630TIP3   OH232524   6.656   3.535   1.357  0.1877  0.3914 -0.5389
 3630TIP3    H132525   6.656   3.576   1.271 -1.0410  2.6411  0.4580
 3630TIP3    H232526   6.749   3.522   1.377  0.4353 -1.4289 -2.7430
 3631TIP3   OH232527   3.779   6.675   0.798  0.1024 -0.7803  0.1526
 3631TIP3    H132528   3.827   6.601   0.835  0.8973 -0.0900  0.5199
 3631TIP3    H232529   3.734   6.714   0.873  1.1136  0.1698  0.2834
 3632TIP3   OH232530   1.146   6.928   8.174 -0.1983  0.6732  0.5743
 3632TIP3    H132531   1.082   6.973   8.229 -1.7859 -1.1614  0.2864
 3632TIP3    H232532   1.110   6.839   8.164  1.3801  0.2223 -1.2525
 3633TIP3   OH232533   1.084   6.368   7.668  0.1876 -0.2751  0.1920
 3633TIP3    H132534   1.052   6.386   7.757  0.5505 -1.4378  0.5698
 3633TIP3    H232535   1.178   6.385   7.672  0.0103  0.8902 -0.3106
 3634TIP3   OH232536   6.134   0.412   7.724 -0.0109 -0.5486  0.1172
 3634TIP3    H132537   6.201   0.403   7.656  0.5133 -0.0686  0.5677
 3634TIP3    H232538   6.061   0.454   7.679 -0.4241 -2.0536 -0.6430
 3635TIP3   OH232539   5.233   6.793   1.177 -0.0338 -0.1369 -0.1241
 3635TIP3    H132540   5.326   6.783   1.156  0.1004 -2.4749  1.3527
 3635TIP3    H232541   5.198   6.849   1.108  2.7018  1.7396 -0.0717
 3636TIP3   OH232542   0.237   6.458   1.073 -0.0717 -0.0524  0.6936
 3636TIP3    H132543   0.169   6.447   1.007  1.3978  0.5510 -0.9625
 3636TIP3    H232544   0.222   6.545   1.109  1.4049  1.1661 -1.5539
 3637TIP3   OH232545   0.611   4.592   0.455  0.1067  0.3306 -0.5269
 3637TIP3    H132546   0.585   4.505   0.483 -1.0998  0.2343 -1.8856
 3637TIP3    H232547   0.674   4.621   0.521 -2.2508 -0.0663  2.0004
 3638TIP3   OH232548   2.055   0.114   7.449  0.0852  0.0549 -0.3048
 3638TIP3    H132549   1.969   0.089   7.481 -0.5242 -1.2730 -2.8896
 3638TIP3    H232550   2.083   0.185   7.507 -3.2960  1.3965 -0.2426
 3639TIP3   OH232551   1.628   5.091   0.877  0.4736 -0.1443  0.0183
 3639TIP3    H132552   1.624   5.178   0.837  0.6195  0.1015  0.5397
 3639TIP3    H232553   1.677   5.104   0.958  2.0262 -1.0425 -0.7573
 3640TIP3   OH232554   3.048   4.468   0.222 -0.2225 -0.2229  0.2074
 3640TIP3    H132555   3.119   4.464   0.286 -0.2759  1.2703  0.3795
 3640TIP3    H232556   2.969   4.482   0.275 -0.4108 -0.0599 -0.1171
 3641TIP3   OH232557   6.204   5.827   6.626 -0.0117 -0.6022  0.5240
 3641TIP3    H132558   6.283   5.775   6.619  0.7387  0.5831 -0.0403
 3641TIP3    H232559   6.189   5.859   6.537 -0.9508 -0.5679  0.6913
 3642TIP3   OH232560   2.921   6.957   6.884  0.2589  0.0961  0.0323
 3642TIP3    H132561   2.971   7.039   6.893  0.8136 -0.1233 -0.9770
 3642TIP3    H232562   2.850   6.980   6.824  0.2000 -0.0706  0.0400
 3643TIP3   OH232563   3.931   4.623   7.293  0.3413  0.2931 -0.2993
 3643TIP3    H132564   3.904   4.683   7.223 -0.5989  0.7020  0.4018
 3643TIP3    H232565   4.027   4.627   7.293  0.2838  3.7523  1.3612
 3644TIP3   OH232566   3.069   5.068   0.185  0.5600  0.0856 -0.0920
 3644TIP3    H132567   3.153   5.034   0.216  1.7753  3.9863  1.1961
 3644TIP3    H232568   3.014   5.072   0.263  0.0315 -0.0852 -0.4556
 3645TIP3   OH232569   5.026   5.802   7.598  0.1407  0.0952  0.0232
 3645TIP3    H132570   5.039   5.872   7.533  0.9802 -1.0269 -1.0472
 3645TIP3    H232571   4.950   5.754   7.566  0.4885 -0.3927 -0.0770
 3646TIP3   OH232572   7.110   5.836   6.885  0.3238 -0.1425  0.6232
 3646TIP3    H132573   7.105   5.913   6.827 -0.1312 -0.0615  0.7678
 3646TIP3    H232574   7.069   5.766   6.834  0.3883 -0.1961  0.6455
 3647TIP3   OH232575   1.306   5.281   0.244  0.1533  0.2828  0.4077
 3647TIP3    H132576   1.213   5.288   0.224  0.2724  0.7648 -0.0007
 3647TIP3    H232577   1.348   5.276   0.158  0.4413 -0.7895  0.6043
 3648TIP3   OH232578   4.637   6.164   1.132 -0.1348 -0.0582 -0.3565
 3648TIP3    H132579   4.691   6.096   1.173 -0.8206 -0.8806 -0.8095
 3648TIP3    H232580   4.551   6.123   1.121  0.2934 -0.2560 -3.5323
 3649TIP3   OH232581   1.517   5.527   7.131  0.3199 -0.6333 -0.1340
 3649TIP3    H132582   1.498   5.620   7.117 -0.2940 -0.9485 -1.3873
 3649TIP3    H232583   1.609   5.517   7.103  1.4073  0.2195  2.9264
 3650TIP3   OH232584   2.369   0.156   6.621 -0.1009 -0.4506  0.3570
 3650TIP3    H132585   2.436   0.131   6.557 -2.7520 -1.0353 -2.3040
 3650TIP3    H232586   2.342   0.243   6.594 -2.4979 -1.4053 -0.4771
 3651TIP3   OH232587   2.962   6.113   8.056 -0.5549 -0.5102 -0.0258
 3651TIP3    H132588   3.000   6.152   8.135 -1.5997  0.4450  0.0204
 3651TIP3    H232589   3.013   6.034   8.042  2.6959  1.6829 -1.0647
 3652TIP3   OH232590   3.924   6.370   6.797  0.5001  0.0145  0.0461
 3652TIP3    H132591   3.913   6.275   6.788  2.6295 -0.1549 -1.1676
 3652TIP3    H232592   3.894   6.406   6.713 -1.4286  0.5426  0.9401
 3653TIP3   OH232593   2.480   4.091   8.429  0.2075 -0.4033 -0.0975
 3653TIP3    H132594   2.426   4.014   8.448  0.6994 -0.8035 -0.3163
 3653TIP3    H232595   2.568   4.066   8.456  0.1801  0.4730  0.8249
 3654TIP3   OH232596   3.739   4.622   6.567 -0.3960 -0.8475  0.5574
 3654TIP3    H132597   3.792   4.650   6.492 -1.2889  0.7497  0.4915
 3654TIP3    H232598   3.736   4.527   6.560  1.7003 -0.9049  0.0496
 3655TIP3   OH232599   0.045   6.121   0.282  0.0093 -0.6993  0.5287
 3655TIP3    H132600   0.014   6.075   0.360 -0.2983  0.9788  1.4322
 3655TIP3    H232601   0.111   6.182   0.314 -0.7138  0.5998 -0.3818
 3656TIP3   OH232602   4.962   5.660   8.124 -0.0804 -0.3598 -0.6006
 3656TIP3    H132603   4.958   5.648   8.219 -0.8437  1.8220 -0.3218
 3656TIP3    H232604   5.055   5.671   8.105 -0.0226  0.3424  0.0621
 3657TIP3   OH232605   2.798   6.817   8.262 -0.1414  0.7267 -0.2995
 3657TIP3    H132606   2.845   6.848   8.185  0.5255  1.2576  0.3161
 3657TIP3    H232607   2.721   6.773   8.227  0.0444  1.1580 -1.2587
 3658TIP3   OH232608   3.257   0.315   6.690  0.9962  0.5518 -0.3738
 3658TIP3    H132609   3.278   0.290   6.600  2.2194 -0.0683  0.0807
 3658TIP3    H232610   3.319   0.385   6.711  1.9204 -0.5530  0.6126
 3659TIP3   OH232611   3.684   0.676   7.685  0.1631 -0.4378  0.4319
 3659TIP3    H132612   3.681   0.707   7.594 -0.6138 -2.0518 -0.1189
 3659TIP3    H232613   3.698   0.755   7.737 -0.5476  0.6653 -1.0092
 3660TIP3   OH232614   0.339   5.832   7.824 -0.3365 -0.2555  1.0997
 3660TIP3    H132615   0.402   5.785   7.769 -0.5796  1.1025 -0.3749
 3660TIP3    H232616   0.354   5.798   7.912  0.2520 -2.2868  0.2520
 3661TIP3   OH232617   1.806   7.240   8.308 -0.4157 -0.5719  0.5196
 3661TIP3    H132618   1.836   7.198   8.228  2.2632 -2.8231  2.6122
 3661TIP3    H232619   1.747   7.176   8.348  1.3715 -1.1577  2.2723
 3662TIP3   OH232620   1.936   5.421   8.006 -0.2989  1.4269  0.0157
 3662TIP3    H132621   1.893   5.418   7.921  0.8847 -1.5757 -0.5443
 3662TIP3    H232622   2.029   5.428   7.985 -0.0712  1.7497  1.1033
 3663TIP3   OH232623   1.458   0.648   8.448 -0.0304  0.6586 -0.6906
 3663TIP3    H132624   1.493   0.559   8.458  1.0148  0.9362 -1.6687
 3663TIP3    H232625   1.370   0.636   8.414 -0.1364 -0.0223 -0.1777
 3664TIP3   OH232626   2.097   6.783   7.026  0.0868  0.6135  0.3237
 3664TIP3    H132627   2.023   6.840   7.006  0.1418  0.7815  0.5811
 3664TIP3    H232628   2.160   6.841   7.070  0.9401  0.7773 -1.0902
 3665TIP3   OH232629   2.230   0.974   7.384  0.1656 -0.0231  0.5346
 3665TIP3    H132630   2.298   0.985   7.317  0.2115 -0.4846  0.5040
 3665TIP3    H232631   2.165   1.040   7.362  1.1170  1.1654  1.2130
 3666TIP3   OH232632   2.694   0.878   0.038 -0.1249  0.3390  0.0846
 3666TIP3    H132633   2.731   0.952  -0.010 -0.1858 -0.2004 -0.7934
 3666TIP3    H232634   2.771   0.827   0.065 -0.1357  0.2197 -0.1144
 3667TIP3   OH232635   3.251   6.004   8.261  0.0222 -0.3489 -0.8948
 3667TIP3    H132636   3.340   5.971   8.258  0.1723  0.1306 -1.9503
 3667TIP3    H232637   3.254   6.077   8.323  0.4495 -0.0631 -1.2574
 3668TIP3   OH232638   4.117   5.733   7.387  0.0064  0.2913 -0.1374
 3668TIP3    H132639   4.206   5.740   7.353 -0.1029 -1.1686 -0.8036
 3668TIP3    H232640   4.127   5.698   7.475  0.1412  1.2034  0.2134
 3669TIP3   OH232641   3.044   5.216   1.170 -0.2005 -0.2861 -0.6014
 3669TIP3    H132642   3.043   5.284   1.237  0.5661  0.0197 -0.8996
 3669TIP3    H232643   3.098   5.146   1.207 -0.6006 -0.5434 -0.4913
 3670TIP3   OH232644   1.352   4.615   6.835  0.2651  0.2065 -0.0432
 3670TIP3    H132645   1.325   4.531   6.798 -0.0154  0.7785 -1.1598
 3670TIP3    H232646   1.392   4.592   6.919  1.7874 -1.2048 -1.1058
 3671TIP3   OH232647   1.771   6.587   7.819 -0.5844  0.1031  0.3094
 3671TIP3    H132648   1.758   6.610   7.911  0.4353 -1.3721  0.8466
 3671TIP3    H232649   1.835   6.515   7.821  0.1520  0.6796 -1.6111
 3672TIP3   OH232650   0.718   5.916   0.482 -1.0496 -0.4297  0.1351
 3672TIP3    H132651   0.676   5.953   0.404 -0.0259 -1.4347 -0.8964
 3672TIP3    H232652   0.677   5.830   0.493 -0.7172 -0.5649  0.3172
 3673TIP3   OH232653   1.571   4.238   0.022 -0.2057 -0.3585  0.2495
 3673TIP3    H132654   1.622   4.225   0.102 -1.4965  0.0454  1.1684
 3673TIP3    H232655   1.494   4.287   0.051 -1.1239 -0.9772 -1.0852
 3674TIP3   OH232656   3.021   5.591   7.032 -0.0349 -0.8015  0.0038
 3674TIP3    H132657   3.000   5.538   6.955  1.5452 -0.0914 -0.9343
 3674TIP3    H232658   2.983   5.677   7.014  1.0861 -0.3844 -0.3669
 3675TIP3   OH232659   3.413   6.436   0.019  0.3401  0.1564 -0.2931
 3675TIP3    H132660   3.352   6.484   0.075  0.8468 -0.3151  0.6901
 3675TIP3    H232661   3.488   6.418   0.076  0.3942 -1.3210 -0.7949
 3676TIP3   OH232662   3.947   3.774   8.178  0.0007 -0.2338  0.2252
 3676TIP3    H132663   3.940   3.683   8.205 -0.6662 -0.0703  0.6349
 3676TIP3    H232664   4.026   3.807   8.221 -0.4531 -0.2765  1.0917
 3677TIP3   OH232665   1.844   4.851   7.814  0.1487 -0.4498  0.8710
 3677TIP3    H132666   1.840   4.840   7.719 -0.1930 -1.9203  1.0436
 3677TIP3    H232667   1.762   4.894   7.837  1.3961  2.4213  0.2090
 3678TIP3   OH232668   0.277   5.339   1.414 -0.3904  0.5952 -0.4459
 3678TIP3    H132669   0.275   5.430   1.384 -0.9030  1.1715  1.2734
 3678TIP3    H232670   0.333   5.340   1.491  1.4601 -0.9862 -1.6988
 3679TIP3   OH232671   3.796   3.995   0.143  0.2212 -0.7362 -0.1448
 3679TIP3    H132672   3.794   3.900   0.153 -0.4345 -0.6715  0.3455
 3679TIP3    H232673   3.792   4.010   0.049  0.5681 -1.2007 -0.2324
 3680TIP3   OH232674   4.586   7.229   0.232 -0.2243 -0.3886  0.0386
 3680TIP3    H132675   4.558   7.143   0.202 -0.2856 -0.3240 -0.0914
 3680TIP3    H232676   4.657   7.254   0.173 -1.3553  0.3927 -1.0250
 3681TIP3   OH232677   5.202   5.444   8.329 -0.5676  0.4362  0.6876
 3681TIP3    H132678   5.288   5.424   8.366 -0.5768 -1.4937 -0.2532
 3681TIP3    H232679   5.221   5.501   8.254 -0.0240 -0.7678 -0.0945
 3682TIP3   OH232680   5.275   5.319   7.932  0.4271  0.1242  0.0416
 3682TIP3    H132681   5.343   5.385   7.950 -0.0539  0.8658 -0.8465
 3682TIP3    H232682   5.197   5.370   7.912  0.1653 -0.7092 -1.1277
 3683TIP3   OH232683   4.336   6.433   0.759  0.1980  0.1010 -0.4158
 3683TIP3    H132684   4.257   6.470   0.797  0.1281 -0.8725  0.4007
 3683TIP3    H232685   4.404   6.449   0.824  0.0715 -1.6079  0.1548
 3684TIP3   OH232686   4.130   6.604   1.685  0.2996 -0.2303  0.4729
 3684TIP3    H132687   4.088   6.667   1.627  0.6535 -0.8529 -0.4854
 3684TIP3    H232688   4.201   6.566   1.632 -0.2000 -1.7657  0.8728
 3685TIP3   OH232689   4.140   6.914   6.711 -0.1524  0.0283 -0.4226
 3685TIP3    H132690   4.116   6.829   6.674 -1.5632  0.4526 -0.4834
 3685TIP3    H232691   4.141   6.973   6.637  0.9287  0.0637 -0.3950
 3686TIP3   OH232692   4.670   6.091   0.211 -0.6078  0.2383 -0.1266
 3686TIP3    H132693   4.704   6.107   0.123 -0.1348  3.7421  0.6244
 3686TIP3    H232694   4.738   6.038   0.253 -1.0556 -1.8645 -1.9690
 3687TIP3   OH232695   4.428   5.282   0.338 -0.1066  0.1719 -0.1491
 3687TIP3    H132696   4.393   5.215   0.396 -1.4197 -1.3563 -2.6037
 3687TIP3    H232697   4.363   5.352   0.341 -0.6981 -0.3539 -0.5615
 3688TIP3   OH232698   4.733   5.137   8.245 -0.0650 -0.1595  0.2151
 3688TIP3    H132699   4.770   5.151   8.158 -1.0689  1.1428 -0.0249
 3688TIP3    H232700   4.797   5.174   8.305 -0.3984  1.0012 -0.1236
 3689TIP3   OH232701   5.736   5.316   6.437 -0.0965  0.2079  0.2121
 3689TIP3    H132702   5.729   5.283   6.527  1.6386  0.0673  0.3166
 3689TIP3    H232703   5.678   5.391   6.435 -1.6816 -0.9709  0.8876
 3690TIP3   OH232704   3.664   6.392   8.125 -0.0658  0.1324 -0.6647
 3690TIP3    H132705   3.741   6.431   8.167 -0.1658  1.3023 -1.5588
 3690TIP3    H232706   3.672   6.415   8.033 -1.3261 -0.0131 -0.8198
 3691TIP3   OH232707   5.035   5.008   7.206 -0.3888 -0.7804  0.4511
 3691TIP3    H132708   5.125   4.986   7.230  0.5931 -0.4988 -2.7072
 3691TIP3    H232709   5.044   5.058   7.125 -3.4002 -0.4981  0.2478
 3692TIP3   OH232710   3.766   6.965   8.012  0.0327 -0.0704 -0.3533
 3692TIP3    H132711   3.814   7.048   8.019 -0.6786  0.4239 -1.2146
 3692TIP3    H232712   3.683   6.981   8.056 -0.3646 -0.1138 -1.0791
 3693TIP3   OH232713   5.282   5.252   1.272  0.0928 -0.0368  0.5214
 3693TIP3    H132714   5.306   5.319   1.208  0.4073 -0.1439  0.5268
 3693TIP3    H232715   5.358   5.246   1.330  0.3582 -0.9186  0.0871
 3694TIP3   OH232716   4.749   5.453   0.398 -0.3057  0.2211  0.0964
 3694TIP3    H132717   4.711   5.534   0.364 -3.4549 -2.6486 -3.7074
 3694TIP3    H232718   4.692   5.429   0.471 -1.2216 -0.1152 -0.7209
 3695TIP3   OH232719   5.141   0.395   8.302  0.4536  0.2565 -0.1560
 3695TIP3    H132720   5.213   0.457   8.290 -0.6855  1.0623 -3.3231
 3695TIP3    H232721   5.181   0.309   8.292  1.4130  0.5750  0.7670
 3696TIP3   OH232722   3.525   6.202   8.287 -0.6856  0.0574 -0.3657
 3696TIP3    H132723   3.454   6.243   8.336  1.2930  0.6020  2.1327
 3696TIP3    H232724   3.572   6.275   8.247  1.3719  0.1491  2.0731
 3697TIP3   OH232725   4.733   6.353   0.521  1.1018 -0.0368 -0.3048
 3697TIP3    H132726   4.792   6.358   0.445 -0.0627  2.4081 -1.0778
 3697TIP3    H232727   4.647   6.376   0.486  0.5603  1.2247  1.7772
 3698TIP3   OH232728   5.926   1.055   0.388  0.2349  0.1828 -0.1439
 3698TIP3    H132729   5.936   1.015   0.474  0.1838  0.2659 -0.0993
 3698TIP3    H232730   5.919   0.981   0.328  1.4853  0.1170 -0.2205
 3699TIP3   OH232731   5.094   4.328   0.562  0.1741 -0.3576  0.0210
 3699TIP3    H132732   5.104   4.253   0.620  2.3769 -0.9361 -1.0630
 3699TIP3    H232733   5.129   4.402   0.612 -1.2051 -0.1722  0.7541
 3700TIP3   OH232734   4.193   6.626   8.147  0.0676  0.4951  0.3294
 3700TIP3    H132735   4.157   6.538   8.144  0.5927  0.3068 -0.6991
 3700TIP3    H232736   4.169   6.665   8.063  1.5185  0.6609 -0.0152
 3701TIP3   OH232737   2.702   5.712   0.779 -0.7973  0.6160  0.3753
 3701TIP3    H132738   2.705   5.794   0.730  1.3451  1.6259  2.0964
 3701TIP3    H232739   2.660   5.735   0.862 -1.5743 -0.3801  0.2663
 3702TIP3   OH232740   3.759   5.138   8.453  0.3424 -0.3115 -0.3618
 3702TIP3    H132741   3.771   5.160   8.545  2.7550  3.6460 -1.5218
 3702TIP3    H232742   3.812   5.059   8.441  0.3629 -0.6146  1.4808
 3703TIP3   OH232743   5.361   0.613   6.251  0.8447 -0.3603 -0.6049
 3703TIP3    H132744   5.431   0.669   6.283  0.7430  0.6903 -2.1623
 3703TIP3    H232745   5.355   0.632   6.157 -1.7950 -0.1200 -0.4438
 3704TIP3   OH232746   2.978   0.458   8.077  0.3792 -0.0826  0.0521
 3704TIP3    H132747   2.986   0.366   8.104  1.0180  0.2635  1.0577
 3704TIP3    H232748   2.889   0.483   8.102  0.9365  0.2134  1.7954
 3705TIP3   OH232749   6.733   0.441   7.370  0.4507 -0.3230 -0.7531
 3705TIP3    H132750   6.777   0.361   7.400 -0.2055 -0.5376 -0.3501
 3705TIP3    H232751   6.783   0.468   7.293  1.4418 -0.4247 -0.1578
 3706TIP3   OH232752   0.840   0.202   0.183 -0.2194 -0.5151 -0.4846
 3706TIP3    H132753   0.758   0.166   0.150 -0.7735 -0.3480  0.6526
 3706TIP3    H232754   0.813   0.261   0.254  0.8777 -0.3720 -0.1711
 3707TIP3   OH232755   6.675   0.127   1.352  0.3079  0.4762 -0.0185
 3707TIP3    H132756   6.624   0.078   1.416  0.4859  0.1334 -0.1409
 3707TIP3    H232757   6.634   0.108   1.268  0.0829  0.9157 -0.0123
 3708TIP3   OH232758   4.798   6.568   6.996  0.8278  0.3031  0.1621
 3708TIP3    H132759   4.886   6.537   7.015  1.0462  2.1345  2.4872
 3708TIP3    H232760   4.761   6.590   7.082 -2.2089 -1.1993 -0.6771
 3709TIP3   OH232761   4.453   7.070   7.728 -0.0117  0.3876  0.4478
 3709TIP3    H132762   4.481   7.002   7.667  0.7642  2.0467 -1.1018
 3709TIP3    H232763   4.497   7.049   7.811  0.1855 -0.9985 -0.0049
 3710TIP3   OH232764   7.064   4.256   7.763  0.2137  0.3325 -0.1404
 3710TIP3    H132765   7.156   4.260   7.736  1.0229  1.1432  2.5933
 3710TIP3    H232766   7.046   4.344   7.798 -1.2077 -0.2372  0.5877
 3711TIP3   OH232767   4.294   0.189   1.388  0.0186  0.2465  0.0498
 3711TIP3    H132768   4.312   0.099   1.361  1.0419  0.2442  0.6985
 3711TIP3    H232769   4.365   0.240   1.350  0.1895  0.5743  0.7979
 3712TIP3   OH232770   3.286   6.260   0.499  0.0410 -0.0234  0.4582
 3712TIP3    H132771   3.199   6.242   0.461  0.2771  3.1371 -1.7375
 3712TIP3    H232772   3.277   6.234   0.591 -3.1243 -0.0926  0.2060
 3713TIP3   OH232773   5.453   0.750   6.659 -0.0977  0.2029 -0.1648
 3713TIP3    H132774   5.466   0.777   6.568 -0.6423  1.6988  0.1858
 3713TIP3    H232775   5.541   0.746   6.696  0.1869 -1.1698 -0.9563
 3714TIP3   OH232776   3.699   6.556   0.577 -0.4275  0.6022  0.0938
 3714TIP3    H132777   3.717   6.632   0.522  3.7433 -0.9582 -0.8534
 3714TIP3    H232778   3.728   6.582   0.664  3.0618 -0.4907 -0.6389
 3715TIP3   OH232779   5.331   2.664   7.098  0.1136 -0.5899  0.0225
 3715TIP3    H132780   5.362   2.586   7.143  1.1276  0.3191  0.9315
 3715TIP3    H232781   5.248   2.638   7.057  0.3608 -2.0737  0.4633
 3716TIP3   OH232782   5.859   6.029   6.620 -0.5864  0.1332 -0.0789
 3716TIP3    H132783   5.818   5.973   6.554  0.1648  1.1030 -1.3657
 3716TIP3    H232784   5.898   5.968   6.682 -0.5014 -0.7766 -1.0204
 3717TIP3   OH232785   0.324   6.914   6.564  0.4807 -0.0033  0.5735
 3717TIP3    H132786   0.365   6.833   6.534 -0.8799 -0.5786  0.2795
 3717TIP3    H232787   0.243   6.921   6.514 -0.4009  0.5062  2.0329
 3718TIP3   OH232788   5.576   6.687   6.917 -0.1312  0.0800  0.0079
 3718TIP3    H132789   5.622   6.768   6.894  2.2402 -1.1397  0.2415
 3718TIP3    H232790   5.594   6.627   6.844 -1.2940 -0.4460  0.1465
 3719TIP3   OH232791   0.764   7.046   7.690 -0.7174  0.3239 -1.0027
 3719TIP3    H132792   0.832   7.041   7.757 -0.7503 -0.3707 -1.0183
 3719TIP3    H232793   0.785   6.977   7.628 -0.8964  0.7280 -1.5222
 3720TIP3   OH232794   0.072   5.971   6.931 -0.3659 -0.1310  0.3808
 3720TIP3    H132795  -0.014   5.930   6.942 -0.5479  0.6071  1.7439
 3720TIP3    H232796   0.067   6.016   6.847 -0.2489 -2.6560 -1.0518
 3721TIP3   OH232797   0.032   6.069   7.445 -0.2066 -0.2291  0.1167
 3721TIP3    H132798   0.058   6.012   7.372 -0.0886  0.2441 -0.2139
 3721TIP3    H232799  -0.027   6.015   7.498 -1.8514  0.0582 -1.3737
 3722TIP3   OH232800   4.741   6.862   0.548  0.3432  0.3942 -0.2378
 3722TIP3    H132801   4.657   6.865   0.593  1.0747 -0.1341  1.1796
 3722TIP3    H232802   4.732   6.925   0.476 -0.7096  1.5115  0.8536
 3723TIP3   OH232803   6.486   7.293   0.019 -0.5342  0.8650  0.2636
 3723TIP3    H132804   6.432   7.241   0.079 -0.8225  0.3754 -0.4151
 3723TIP3    H232805   6.530   7.356   0.075 -1.7506  1.2174  0.8458
 3724TIP3   OH232806   0.183   4.513   7.660  0.4570 -0.1019  0.5876
 3724TIP3    H132807   0.239   4.502   7.583  0.6675 -0.4160  0.7849
 3724TIP3    H232808   0.166   4.424   7.690  1.4068  0.0657  1.6516
 3725TIP3   OH232809   6.091   6.039   1.426 -0.0525  0.1930 -0.2084
 3725TIP3    H132810   6.090   5.944   1.415  0.5647  0.1201  0.3616
 3725TIP3    H232811   6.020   6.070   1.370 -2.1046 -0.8123  1.7824
 3726TIP3   OH232812   4.941   0.091   0.666 -0.5012 -0.4680  0.4521
 3726TIP3    H132813   4.947   0.042   0.584  1.1177  0.9045 -0.2802
 3726TIP3    H232814   4.923   0.025   0.732  0.1336 -1.8447 -0.7270
 3727TIP3   OH232815   0.306   0.367   7.329  0.9196  0.0496 -0.1706
 3727TIP3    H132816   0.229   0.406   7.287  0.5063  0.0536  0.5751
 3727TIP3    H232817   0.278   0.351   7.420  1.0336 -2.1150 -0.4927
 3728TIP3   OH232818   5.146   0.246   0.060  0.4494  0.4000 -0.5660
 3728TIP3    H132819   5.210   0.285   0.120  0.0294 -1.4325  1.1382
 3728TIP3    H232820   5.165   0.152   0.063 -2.4419 -0.2146  0.1640
 3729TIP3   OH232821   0.004   0.283   0.768 -0.4268 -0.5655 -0.3818
 3729TIP3    H132822  -0.066   0.229   0.804  0.0309 -1.0936 -0.2758
 3729TIP3    H232823  -0.031   0.372   0.770 -1.0975 -0.8261 -0.3388
 3730TIP3   OH232824   0.186   4.749   0.274  0.1417 -0.5197  1.1012
 3730TIP3    H132825   0.267   4.711   0.309  1.0633  0.6869  0.3183
 3730TIP3    H232826   0.167   4.697   0.196 -0.2528 -1.2832  1.7041
 3731TIP3   OH232827   6.732   5.959   7.741 -0.4879  0.2634  0.1685
 3731TIP3    H132828   6.780   6.038   7.714 -0.4752  1.2182  2.8618
 3731TIP3    H232829   6.756   5.894   7.675  3.0944  1.2346  0.3708
 3732TIP3   OH232830   7.250   7.335   0.177 -0.1397 -0.5026  0.2357
 3732TIP3    H132831   7.191   7.360   0.248  0.5347 -0.9196  0.9523
 3732TIP3    H232832   7.209   7.370   0.098 -0.9911 -0.1947  0.8084
 3733TIP3   OH232833   4.004   6.971   0.325  0.6494 -0.3644  0.6777
 3733TIP3    H132834   3.929   7.011   0.369  0.1731 -1.3460  0.7691
 3733TIP3    H232835   4.043   7.043   0.275 -0.7452  0.0015  0.0908
 3734TIP3   OH232836   6.505   6.365   1.585 -0.4813  0.2373  0.1147
 3734TIP3    H132837   6.475   6.420   1.658 -1.1282  0.3585 -0.2376
 3734TIP3    H232838   6.437   6.298   1.576  0.8779 -1.3326  1.2897
 3735TIP3   OH232839   6.663   1.030   1.698  0.0914  0.2255  0.0733
 3735TIP3    H132840   6.703   0.957   1.746  1.7367  0.5960 -0.6805
 3735TIP3    H232841   6.695   1.020   1.608 -0.7553  1.0919 -0.3345
 3736TIP3   OH232842   6.679   5.109   8.284 -0.3946  0.5583  0.2048
 3736TIP3    H132843   6.596   5.157   8.285  0.1407  1.4882  0.6282
 3736TIP3    H232844   6.731   5.155   8.218 -0.3184 -0.1975 -0.2621
 3737TIP3   OH232845   5.334   7.123   0.863  0.1545 -0.0374 -0.3654
 3737TIP3    H132846   5.424   7.154   0.868  0.2873 -0.4043 -0.4838
 3737TIP3    H232847   5.282   7.194   0.902  0.5497 -0.0902  0.2512
 3738TIP3   OH232848   5.714   0.384   7.907  0.3079  0.1205 -0.1335
 3738TIP3    H132849   5.744   0.328   7.978  2.4327 -0.8279 -1.7152
 3738TIP3    H232850   5.666   0.324   7.849  1.8047  0.0762 -1.3627
 3739TIP3   OH232851   7.002   5.731   7.822 -0.1398  1.0061 -0.1611
 3739TIP3    H132852   6.993   5.819   7.786 -1.9422  0.1165 -2.0113
 3739TIP3    H232853   7.032   5.678   7.749 -0.6546 -0.2071  0.4926
 3740TIP3   OH232854   6.084   0.202   8.293 -0.2202 -0.0046  0.2397
 3740TIP3    H132855   6.092   0.108   8.305  0.0107 -0.0496 -0.2496
 3740TIP3    H232856   6.146   0.240   8.355  2.1354 -0.2797 -1.8708
 3741TIP3   OH232857   6.649   0.097   7.614  0.0769  0.3251  0.2653
 3741TIP3    H132858   6.663   0.031   7.682  1.8452 -0.3849 -0.7506
 3741TIP3    H232859   6.612   0.172   7.661 -1.6266 -1.2329  1.4807
 3742TIP3   OH232860   6.483   4.682   0.607  0.1537  0.8667 -0.0535
 3742TIP3    H132861   6.496   4.777   0.610  0.3086  0.8310  0.5419
 3742TIP3    H232862   6.504   4.657   0.517 -1.3929  1.6181 -0.6408
 3743TIP3   OH232863   4.497   5.312   7.423  0.0118 -0.9405 -0.0725
 3743TIP3    H132864   4.563   5.268   7.477 -0.3649 -0.2936  0.9086
 3743TIP3    H232865   4.442   5.358   7.485 -1.3306 -1.4145 -0.8978
 3744TIP3   OH232866   6.133   7.122   6.627 -1.0514  0.2454  0.1038
 3744TIP3    H132867   6.153   7.061   6.556 -0.8869  0.9929 -0.4899
 3744TIP3    H232868   6.209   7.180   6.631 -0.4122 -0.6535  1.8170
 3745TIP3   OH232869   6.464   6.652   6.422 -0.5622  0.3551 -0.1911
 3745TIP3    H132870   6.490   6.743   6.434 -0.5608  0.6299 -2.0219
 3745TIP3    H232871   6.546   6.607   6.399 -0.9360  0.3484 -1.5512
 3746TIP3   OH232872   4.489   5.742   1.386  0.3725  0.2556 -0.1673
 3746TIP3    H132873   4.409   5.689   1.395 -0.0785  0.9290 -0.2036
 3746TIP3    H232874   4.560   5.678   1.386 -0.1490 -0.3273  0.1668
 3747TIP3   OH232875   7.215   4.639   6.782 -0.1631 -0.2709  0.3573
 3747TIP3    H132876   7.207   4.631   6.877 -0.6225 -0.7687  0.2764
 3747TIP3    H232877   7.217   4.549   6.750 -0.0248 -0.1039 -0.1055
 3748TIP3   OH232878   0.690   1.887   1.535  0.0003 -0.0828 -0.4356
 3748TIP3    H132879   0.612   1.837   1.558 -1.8621  1.4800 -3.0506
 3748TIP3    H232880   0.659   1.951   1.471  3.4558  0.4457 -1.6972
 3749TIP3   OH232881   1.072   1.543   2.137  0.0862 -0.4291  0.2080
 3749TIP3    H132882   1.021   1.610   2.184 -0.9715 -0.6835 -0.5643
 3749TIP3    H232883   1.146   1.592   2.101 -0.4423  0.2564  0.0239
 3750TIP3   OH232884   6.373   7.174   1.283  0.1056 -0.4947  0.2451
 3750TIP3    H132885   6.423   7.245   1.323  0.3468 -0.3079 -0.3838
 3750TIP3    H232886   6.335   7.128   1.357 -1.1278  1.0682  0.6112
 3751TIP3   OH232887   1.667   6.399   0.516  0.3250 -0.0505 -0.6586
 3751TIP3    H132888   1.761   6.405   0.534  0.0526 -1.2676  1.4080
 3751TIP3    H232889   1.643   6.310   0.543 -1.1239 -0.2929 -2.6747
 3752TIP3   OH232890   6.740   4.830   1.171 -1.4299  0.1321 -0.6590
 3752TIP3    H132891   6.699   4.917   1.175  0.8509  1.1741  1.6384
 3752TIP3    H232892   6.718   4.789   1.254  3.0138  1.1914  1.1855
 3753TIP3   OH232893   0.165   0.053   1.262  0.4123 -0.4479 -0.0018
 3753TIP3    H132894   0.182  -0.008   1.190 -1.0579  2.2403 -2.7172
 3753TIP3    H232895   0.251   0.084   1.287  0.9155 -1.0706 -0.9021
 3754TIP3   OH232896   2.131   0.645   1.188  0.0717 -0.5039  0.3242
 3754TIP3    H132897   2.159   0.646   1.096 -1.8590  2.3809 -0.2983
 3754TIP3    H232898   2.049   0.595   1.188 -1.5617  2.1073 -0.0915
 3755TIP3   OH232899   5.875   2.433   0.829  0.5512  0.8368  0.1927
 3755TIP3    H132900   5.855   2.366   0.765 -0.6992  1.7610 -0.3917
 3755TIP3    H232901   5.910   2.385   0.904 -0.8629 -0.5240  0.0047
 3756TIP3   OH232902   0.114   0.195   2.201  0.3103  0.6827 -0.0890
 3756TIP3    H132903   0.132   0.148   2.119  0.6863  1.9578 -0.7582
 3756TIP3    H232904   0.201   0.222   2.232 -0.0383  2.4961 -0.6720
 3757TIP3   OH232905   2.710   1.948   8.026 -0.1805 -0.6341  0.1488
 3757TIP3    H132906   2.771   1.978   8.093 -0.3891 -0.3642  0.2189
 3757TIP3    H232907   2.666   1.873   8.066 -0.4050 -0.3852  0.3677
 3758TIP3   OH232908   1.494   5.415   1.257  0.3311 -0.4387  0.0120
 3758TIP3    H132909   1.412   5.450   1.293  0.9589  1.7668 -0.5974
 3758TIP3    H232910   1.537   5.374   1.332  0.3482  1.6593  1.2131
 3759TIP3   OH232911   0.157   0.731   2.144  0.2527 -0.1363 -0.2731
 3759TIP3    H132912   0.145   0.820   2.112 -2.8615 -0.3491  0.1586
 3759TIP3    H232913   0.187   0.741   2.234  2.1904  0.4421 -0.9586
 3760TIP3   OH232914   5.609   0.277   1.973 -0.6425  0.4437  0.1314
 3760TIP3    H132915   5.691   0.303   2.016 -0.7493  3.6789 -1.4393
 3760TIP3    H232916   5.595   0.187   2.001  3.2673 -0.0831  0.7435
 3761TIP3   OH232917   2.147   6.481   1.091 -0.2924  0.6238 -0.1168
 3761TIP3    H132918   2.053   6.472   1.108 -0.5019 -0.3933 -1.7604
 3761TIP3    H232919   2.159   6.574   1.072 -0.7214  1.0173  1.4322
 3762TIP3   OH232920   1.602   0.095   6.264  0.4502  0.1700 -0.3508
 3762TIP3    H132921   1.666   0.166   6.268  2.1368 -1.2934 -0.9943
 3762TIP3    H232922   1.640   0.025   6.317 -1.3924 -0.1320  0.6077
 3763TIP3   OH232923   3.151   1.760   0.058 -0.2977  0.0464  0.1979
 3763TIP3    H132924   3.204   1.811  -0.003  1.5000 -0.9244  0.8998
 3763TIP3    H232925   3.106   1.695   0.004 -1.2855  1.2857 -0.4807
 3764TIP3   OH232926   3.038   3.393   1.020 -0.5002  0.5291  0.9339
 3764TIP3    H132927   3.069   3.479   1.049  0.1526  0.2436  1.1088
 3764TIP3    H232928   3.068   3.387   0.929 -2.6814  1.4883  0.1272
 3765TIP3   OH232929   2.084   3.955   1.042  1.1015 -0.0434 -0.3724
 3765TIP3    H132930   2.056   3.879   1.093  3.8234  0.5007  2.0339
 3765TIP3    H232931   2.164   3.926   0.997 -0.2164  0.0891 -2.8951
 3766TIP3   OH232932   0.470   1.270   2.391  0.2956 -0.4181 -1.0188
 3766TIP3    H132933   0.389   1.228   2.420 -0.2014 -0.7520 -2.8558
 3766TIP3    H232934   0.501   1.318   2.469 -1.1116 -1.1119 -0.0079
 3767TIP3   OH232935   2.752   6.580   1.496 -0.4111  0.2909 -0.1964
 3767TIP3    H132936   2.822   6.643   1.484 -0.5530  0.3877 -0.5505
 3767TIP3    H232937   2.710   6.605   1.578  2.4139 -2.1530  2.0917
 3768TIP3   OH232938   1.204   4.744   7.575  0.0119 -0.0973 -0.5034
 3768TIP3    H132939   1.181   4.775   7.487 -1.7397 -2.4246 -0.9379
 3768TIP3    H232940   1.162   4.658   7.581 -1.5979  0.8690  3.3532
 3769TIP3   OH232941   6.165   2.556   1.633 -0.7271 -0.2419 -0.0317
 3769TIP3    H132942   6.234   2.513   1.683 -0.3051  1.3178  0.7655
 3769TIP3    H232943   6.088   2.502   1.648 -0.1769 -0.7923  0.8652
 3770TIP3   OH232944   5.767   1.219   1.792 -0.1284  0.1065  0.3714
 3770TIP3    H132945   5.812   1.284   1.738  0.3408  0.2591  0.9382
 3770TIP3    H232946   5.789   1.243   1.882  1.3412 -1.7947  0.5383
 3771TIP3   OH232947   0.954   1.822   1.599 -0.4187  0.1460 -0.2563
 3771TIP3    H132948   0.861   1.845   1.590 -0.3800  0.1456 -0.6387
 3771TIP3    H232949   0.957   1.728   1.583 -0.5542 -0.1174  1.1620
 3772TIP3   OH232950   3.375   1.621   7.684  0.6376  0.5642 -0.3563
 3772TIP3    H132951   3.369   1.654   7.594  0.1557  3.3125  0.6392
 3772TIP3    H232952   3.461   1.650   7.715 -0.1366  1.7155  0.8092
 3773TIP3   OH232953   0.943   6.578   2.164 -0.0647 -0.5346 -0.3046
 3773TIP3    H132954   0.985   6.593   2.249  0.3755 -0.0352 -0.6100
 3773TIP3    H232955   0.865   6.527   2.185 -0.4701  0.4211  0.5055
 3774TIP3   OH232956   5.948   0.204   0.157 -0.2011 -0.2837 -0.8432
 3774TIP3    H132957   5.877   0.168   0.210 -1.1878  0.4739 -1.6336
 3774TIP3    H232958   5.993   0.127   0.123 -0.7817 -0.7729 -0.5180
 3775TIP3   OH232959   1.617   6.622   0.667  0.2803 -0.1039  0.8634
 3775TIP3    H132960   1.684   6.577   0.718  0.7895  0.2534  0.5159
 3775TIP3    H232961   1.612   6.573   0.585 -0.4519 -0.6041  1.1997
 3776TIP3   OH232962   1.585   1.288   1.915 -0.5318  0.3755 -0.3050
 3776TIP3    H132963   1.639   1.224   1.960 -1.3159 -0.5281 -0.6237
 3776TIP3    H232964   1.619   1.373   1.943  0.3198 -0.1819  0.3576
 3777TIP3   OH232965   0.601   5.628   2.217 -0.4097  0.0474 -0.0388
 3777TIP3    H132966   0.540   5.575   2.165 -0.8880  0.2518  0.3109
 3777TIP3    H232967   0.561   5.715   2.219 -0.7014 -0.1148  1.2038
 3778TIP3   OH232968   4.104   1.259   0.955 -0.9988 -0.0108  0.2056
 3778TIP3    H132969   4.153   1.321   1.010  0.1791 -0.2035 -0.6015
 3778TIP3    H232970   4.095   1.303   0.871  0.6606 -1.2859 -0.6693
 3779TIP3   OH232971   2.732   2.688   8.332  0.3247 -0.3005  0.5482
 3779TIP3    H132972   2.796   2.623   8.363  0.5152 -0.4666 -0.1900
 3779TIP3    H232973   2.783   2.747   8.276 -0.2796 -0.7591 -0.4986
 3780TIP3   OH232974   2.856   3.400   8.142 -0.1806  0.1738  0.2931
 3780TIP3    H132975   2.868   3.323   8.086 -0.0326  0.6609 -0.3459
 3780TIP3    H232976   2.778   3.443   8.108 -0.2572  0.3177  0.6417
 3781TIP3   OH232977   2.039   1.631   0.087  0.3598 -0.5992 -0.1914
 3781TIP3    H132978   1.994   1.631   0.171  0.1914 -3.0532 -0.2484
 3781TIP3    H232979   1.973   1.660   0.024  0.1352  0.0401  0.3334
 3782TIP3   OH232980   0.681   0.621   0.483 -0.6279 -0.1763  0.3166
 3782TIP3    H132981   0.653   0.710   0.464  0.9398  0.2140 -0.2440
 3782TIP3    H232982   0.600   0.573   0.501 -1.3832  1.6111  1.7753
 3783TIP3   OH232983   1.742   2.755   2.064  0.1403  0.4375 -0.3473
 3783TIP3    H132984   1.733   2.734   2.157  0.7361 -0.4980 -0.4996
 3783TIP3    H232985   1.761   2.849   2.063  1.4216  0.1905  0.5443
 3784TIP3   OH232986   1.604   6.759   1.882  0.3073  0.5528  0.0607
 3784TIP3    H132987   1.550   6.790   1.954  1.1691 -0.1924  1.0417
 3784TIP3    H232988   1.691   6.747   1.920  0.9538  0.8492 -1.2763
 3785TIP3   OH232989   0.131   2.779   2.928  0.0595 -0.0638 -0.1122
 3785TIP3    H132990   0.065   2.835   2.889  1.8990  2.2159 -0.0333
 3785TIP3    H232991   0.098   2.760   3.016 -2.2114 -2.0001 -1.3082
 3786TIP3   OH232992   4.731   0.542   1.455 -0.3866  0.5636 -0.2310
 3786TIP3    H132993   4.699   0.531   1.365  0.0325  2.2882 -0.6075
 3786TIP3    H232994   4.815   0.586   1.445  1.4688 -2.6190  0.8382
 3787TIP3   OH232995   1.544   6.217   1.655 -0.0739  0.7822 -0.3980
 3787TIP3    H132996   1.608   6.176   1.598  0.4852  0.2546  0.5927
 3787TIP3    H232997   1.569   6.189   1.743 -1.5431  0.7418  0.0188
 3788TIP3   OH232998   7.177   0.293   2.007  0.9131  0.6639  0.0856
 3788TIP3    H132999   7.140   0.244   1.934  2.7308  1.1757 -1.2406
 3788TIP3    H233000   7.245   0.347   1.967  0.4737  2.5902  1.8384
 3789TIP3   OH233001   1.011   1.284   1.568 -0.1220  0.0377  0.4994
 3789TIP3    H133002   0.979   1.203   1.527  0.5193 -0.5412  1.1505
 3789TIP3    H233003   0.959   1.292   1.648  0.4854 -0.2468  0.9268
 3790TIP3   OH233004   1.089   2.779   2.819 -0.1136 -0.0998  0.1143
 3790TIP3    H133005   1.096   2.829   2.737 -1.7315 -0.8302 -0.4932
 3790TIP3    H233006   1.041   2.700   2.795 -0.8735 -0.1875  1.8303
 3791TIP3   OH233007   3.444   5.576   7.932  0.0126 -0.1470 -0.3055
 3791TIP3    H133008   3.456   5.503   7.872 -0.6670 -1.1061  0.7093
 3791TIP3    H233009   3.486   5.650   7.888  1.3027 -1.2878 -1.0489
 3792TIP3   OH233010   4.254   7.253   8.022  0.3490 -0.0940  0.1282
 3792TIP3    H133011   4.333   7.280   7.976  0.8562 -2.1014 -0.2041
 3792TIP3    H233012   4.285   7.196   8.092 -0.8939 -1.7733 -0.6649
 3793TIP3   OH233013   1.974   2.807   1.826 -0.4327  0.4741  0.0590
 3793TIP3    H133014   1.953   2.895   1.858 -0.9965 -0.2862  1.7769
 3793TIP3    H233015   1.998   2.758   1.904 -1.9706 -1.4386 -0.6596
 3794TIP3   OH233016   6.125   7.189   1.164  0.5509  0.5082  0.2057
 3794TIP3    H133017   6.205   7.186   1.216  1.8820  1.4416 -1.7341
 3794TIP3    H233018   6.155   7.200   1.074 -1.7555  0.7073 -0.5740
 3795TIP3   OH233019   7.316   6.566   1.164 -0.3336  0.4607  0.0535
 3795TIP3    H133020   7.334   6.533   1.076  2.8067 -0.0159  0.8056
 3795TIP3    H233021   7.266   6.496   1.206 -1.4950  0.5215 -1.2014
 3796TIP3   OH233022   4.420   7.337   0.630 -0.0956 -1.1166 -0.4396
 3796TIP3    H133023   4.472   7.299   0.559  1.0673 -0.0377 -0.1861
 3796TIP3    H233024   4.365   7.403   0.586  0.6670 -0.4070 -0.3452
 3797TIP3   OH233025   0.177   1.185   1.570  0.0996 -0.2953  0.0142
 3797TIP3    H133026   0.085   1.211   1.578  0.1559 -0.1069  0.0446
 3797TIP3    H233027   0.206   1.170   1.660  0.3428  0.4837  0.0648
 3798TIP3   OH233028   0.802   3.954   1.821  0.4243 -0.4314 -0.2913
 3798TIP3    H133029   0.863   4.003   1.876  1.0162  0.3513 -1.6000
 3798TIP3    H233030   0.787   3.872   1.867  4.1613 -1.5520 -0.9378
 3799TIP3   OH233031   0.560   3.066   1.871  0.0644 -0.3438 -0.5111
 3799TIP3    H133032   0.556   3.156   1.838 -0.5642  0.0396  0.5986
 3799TIP3    H233033   0.474   3.029   1.849  0.3189 -0.6736 -0.9591
 3800TIP3   OH233034   2.932   1.773   1.007  0.0037 -0.1803  0.3368
 3800TIP3    H133035   2.997   1.824   0.959  0.1023 -0.6156  0.0069
 3800TIP3    H233036   2.936   1.806   1.097  0.5722 -0.1066  0.2809
 3801TIP3   OH233037   1.779   0.330   1.324 -0.1262 -0.1349  0.6314
 3801TIP3    H133038   1.831   0.309   1.402  0.4312 -0.0145  0.2956
 3801TIP3    H233039   1.692   0.348   1.358 -0.7599 -3.3745  0.9065
 3802TIP3   OH233040   1.662   1.371   2.216  0.1414 -0.1413  0.3999
 3802TIP3    H133041   1.728   1.360   2.285  0.5639 -0.2904 -0.0263
 3802TIP3    H233042   1.711   1.365   2.135 -0.1228  1.6044  0.1048
 3803TIP3   OH233043   0.572   1.927   1.934 -0.4792  0.4407 -0.0396
 3803TIP3    H133044   0.554   1.849   1.987  1.4882  0.3779  0.5657
 3803TIP3    H233045   0.486   1.953   1.900 -1.1467 -2.1025 -0.4120
 3804TIP3   OH233046   0.548   7.273   1.436 -0.1386  0.0090 -0.3030
 3804TIP3    H133047   0.483   7.334   1.472 -0.1937 -0.1679 -0.1039
 3804TIP3    H233048   0.555   7.204   1.502  0.4543  0.1703 -0.1923
 3805TIP3   OH233049   1.323   6.166   1.825 -0.0235 -0.1903  0.3138
 3805TIP3    H133050   1.279   6.118   1.755 -0.8620 -1.4812  1.6947
 3805TIP3    H233051   1.366   6.098   1.877  0.3077  0.7209  1.2381
 3806TIP3   OH233052   0.637   7.339   8.251  0.0065  0.0729 -0.6319
 3806TIP3    H133053   0.570   7.400   8.222 -0.6512 -0.0580  0.6027
 3806TIP3    H233054   0.719   7.387   8.242 -0.2978  0.4066 -1.6581
 3807TIP3   OH233055   2.164   1.094   6.924 -0.3187  0.2349 -0.7471
 3807TIP3    H133056   2.163   1.175   6.873  4.1875  1.2137  0.4118
 3807TIP3    H233057   2.165   1.124   7.015  0.3673 -1.1103 -0.2982
 3808TIP3   OH233058   0.912   0.185   8.362 -0.4747  0.1169  0.5605
 3808TIP3    H133059   0.965   0.265   8.358  2.1186 -1.4819  1.0551
 3808TIP3    H233060   0.857   0.196   8.440 -0.3096  1.5123  0.4881
 3809TIP3   OH233061   2.919   2.113   1.915 -0.1043 -0.4344 -0.0435
 3809TIP3    H133062   2.843   2.078   1.868 -1.4598  1.0839  0.9596
 3809TIP3    H233063   2.882   2.177   1.976  1.9902  0.2748  0.5229
 3810TIP3   OH233064   1.786   6.121   7.534  0.0951  0.5005 -0.2355
 3810TIP3    H133065   1.716   6.087   7.590  0.0542  2.6793  1.0965
 3810TIP3    H233066   1.760   6.097   7.445 -0.6028 -1.7118  0.5338
 3811TIP3   OH233067   1.770   0.856   1.375  0.2314 -0.5681  0.3477
 3811TIP3    H133068   1.739   0.946   1.364 -1.7093 -1.1291  0.8814
 3811TIP3    H233069   1.712   0.819   1.442  1.7732 -1.8567  1.0181
 3812TIP3   OH233070   3.595   0.938   0.157  0.1225 -0.7252 -0.1576
 3812TIP3    H133071   3.671   0.880   0.150  0.5084 -0.1334 -0.9633
 3812TIP3    H233072   3.632   1.026   0.166 -0.4634 -0.5558  0.6829
 3813TIP3   OH233073   1.598   6.590   7.037 -0.5608 -0.2587  0.3024
 3813TIP3    H133074   1.587   6.500   7.068 -1.0260 -0.4930 -0.5193
 3813TIP3    H233075   1.525   6.638   7.077  0.7461  0.1692  2.2431
 3814TIP3   OH233076   1.521   6.231   0.814 -0.6743 -0.4429  0.0109
 3814TIP3    H133077   1.552   6.149   0.776  1.7561  0.8224 -0.8063
 3814TIP3    H233078   1.595   6.264   0.863 -1.2748  1.8402 -0.5908
 3815TIP3   OH233079   6.479   6.933   1.114  0.7904 -0.5059  0.3344
 3815TIP3    H133080   6.471   7.010   1.170  2.0067 -1.2554  1.5814
 3815TIP3    H233081   6.555   6.951   1.058  0.0358 -0.0769 -0.5506
 3816TIP3   OH233082   7.086   6.972   0.411 -0.2191  0.0383 -0.5144
 3816TIP3    H133083   7.065   7.053   0.456 -0.8323 -0.6336  0.4301
 3816TIP3    H233084   7.182   6.969   0.410 -0.2056  0.1070  0.6646
 3817TIP3   OH233085   2.646   5.985   1.363 -0.2729  0.5062  0.3044
 3817TIP3    H133086   2.678   6.032   1.440 -0.2216  0.1552  0.4975
 3817TIP3    H233087   2.679   6.036   1.289  0.9154  0.0246  0.4957
 3818TIP3   OH233088   1.951   2.234   1.684 -0.0371  0.9443  0.0141
 3818TIP3    H133089   1.994   2.265   1.604  1.9963 -1.4776  0.1219
 3818TIP3    H233090   2.003   2.159   1.712 -3.3503 -1.0520  1.1087
 3819TIP3   OH233091   0.139   6.267   8.272 -0.0812 -0.1437 -0.5890
 3819TIP3    H133092   0.073   6.208   8.307  0.8882 -1.8662 -1.6038
 3819TIP3    H233093   0.111   6.283   8.182 -0.7430  1.5865 -0.1105
 3820TIP3   OH233094   0.844   6.101   0.647  0.1131  0.6872  0.3975
 3820TIP3    H133095   0.908   6.049   0.696 -0.0806  1.3697  1.3857
 3820TIP3    H233096   0.796   6.036   0.595 -0.4589 -0.1957  1.9937
 3821TIP3   OH233097   2.279   0.426   0.324 -0.4668 -0.4605 -0.0273
 3821TIP3    H133098   2.238   0.475   0.254 -1.8833  1.7635  2.2939
 3821TIP3    H233099   2.277   0.335   0.294 -2.6348  0.2257 -2.0925
 3822TIP3   OH233100   0.518   7.236   1.773 -0.3286 -0.3869 -0.0797
 3822TIP3    H133101   0.565   7.174   1.829 -1.2788 -1.8148 -0.8221
 3822TIP3    H233102   0.505   7.313   1.828 -0.4496 -1.4331  1.3842
 3823TIP3   OH233103   2.144   6.406   8.423 -0.1324  0.4875  0.2538
 3823TIP3    H133104   2.152   6.366   8.336  0.3781 -0.7886  0.8669
 3823TIP3    H233105   2.065   6.458   8.418  1.1453  2.3312 -1.7204
 3824TIP3   OH233106   1.989   2.804   2.312 -0.0301 -0.5319  0.0966
 3824TIP3    H133107   1.894   2.799   2.305  0.0798 -0.7490 -1.5063
 3824TIP3    H233108   2.016   2.721   2.351 -0.4578 -0.7400 -0.0507
 3825TIP3   OH233109   0.289   0.429   1.665  0.4950  0.0257 -0.5423
 3825TIP3    H133110   0.285   0.476   1.748  2.0136 -0.1317 -0.3644
 3825TIP3    H233111   0.379   0.395   1.661  0.2248 -0.5576 -1.9200
 3826TIP3   OH233112   1.432   0.951   7.846 -0.1161  0.0432 -0.3123
 3826TIP3    H133113   1.466   0.868   7.811  0.4093  0.7685 -1.5566
 3826TIP3    H233114   1.440   0.941   7.941  2.0889 -0.4595 -0.5163
 3827TIP3   OH233115   0.125   0.223   0.546 -0.7833 -0.4868 -0.3371
 3827TIP3    H133116   0.085   0.245   0.630  0.6068 -0.7331  0.3982
 3827TIP3    H233117   0.147   0.307   0.507  1.1526 -0.4204  0.8274
 3828TIP3   OH233118   1.111   0.157   0.229  0.3865  0.2973  0.2446
 3828TIP3    H133119   1.022   0.186   0.209  0.2418  0.5226  1.1870
 3828TIP3    H233120   1.099   0.078   0.283  0.7680 -0.6186 -1.0024
 3829TIP3   OH233121   1.906   1.548   1.035 -0.2951 -0.2186  0.1014
 3829TIP3    H133122   1.847   1.547   1.111  0.3227 -0.5052  0.5796
 3829TIP3    H233123   1.850   1.520   0.962 -0.4111 -1.9256  0.8171
 3830TIP3   OH233124   1.521   7.027   0.293 -0.7566  0.2034  0.3008
 3830TIP3    H133125   1.611   7.008   0.321 -1.1531 -1.8100  0.2899
 3830TIP3    H233126   1.524   7.117   0.263  1.2137  0.2437  0.5417
 3831TIP3   OH233127   2.729   7.196   1.480  0.0848 -0.2012  0.4841
 3831TIP3    H133128   2.741   7.191   1.575 -1.2257 -0.4506  0.6367
 3831TIP3    H233129   2.714   7.289   1.463  1.9116  0.0879  0.3151
 3832TIP3   OH233130   1.970   1.377   1.841 -0.7910  0.0136  0.4190
 3832TIP3    H133131   1.979   1.300   1.785 -2.0518 -0.7038  1.2080
 3832TIP3    H233132   1.989   1.451   1.782 -0.2565 -0.8382 -0.4955
 3833TIP3   OH233133   2.000   1.109   7.460 -0.2845 -0.1653 -0.6205
 3833TIP3    H133134   1.932   1.146   7.516  1.6249  1.6637  0.5818
 3833TIP3    H233135   1.982   1.015   7.460 -0.8032 -0.1404  2.4644
 3834TIP3   OH233136   0.540   0.298   7.840  0.0221 -0.2807 -0.6586
 3834TIP3    H133137   0.603   0.334   7.778 -0.7426  1.3174 -0.5357
 3834TIP3    H233138   0.574   0.324   7.926 -0.3726 -0.1257 -0.5510
 3835TIP3   OH233139   0.650   0.127   7.356 -0.1173  0.0320  0.0837
 3835TIP3    H133140   0.698   0.062   7.408  0.7013 -0.4673 -1.2842
 3835TIP3    H233141   0.588   0.075   7.304  0.7852  0.3009 -1.2842
 3836TIP3   OH233142   0.853   0.275   0.653 -0.4314 -0.3510  0.0234
 3836TIP3    H133143   0.873   0.214   0.725 -0.5634 -1.0312 -0.5046
 3836TIP3    H233144   0.804   0.346   0.694 -0.9113 -0.9715  0.5294
 3837TIP3   OH233145   0.848   1.546   1.974  0.0818  0.8311  0.0026
 3837TIP3    H133146   0.932   1.539   2.019  0.3902 -2.0696 -0.9242
 3837TIP3    H233147   0.830   1.640   1.971  2.6864  1.4097  1.2914
 3838TIP3   OH233148   1.208   2.051   2.245 -0.2176 -0.0772  0.0873
 3838TIP3    H133149   1.299   2.056   2.272  0.3700  0.8675 -1.9351
 3838TIP3    H233150   1.176   2.141   2.252 -0.1049  0.1652 -2.0189
 3839TIP3   OH233151   2.454   6.610   8.295  0.1138  0.2294  0.5436
 3839TIP3    H133152   2.503   6.650   8.223 -0.8447 -1.4281 -1.1080
 3839TIP3    H233153   2.475   6.517   8.289 -2.1745 -0.3412  0.6109
 3840TIP3   OH233154   1.124   1.065   2.309 -0.0553  0.3586 -0.3008
 3840TIP3    H133155   1.172   1.014   2.244 -0.6155 -0.9619  0.2973
 3840TIP3    H233156   1.191   1.111   2.358  0.4051  0.8991 -1.4244
 3841TIP3   OH233157   2.382   2.521   7.157 -0.3297 -0.4717 -0.1137
 3841TIP3    H133158   2.444   2.471   7.103  0.3397  0.3306 -0.0980
 3841TIP3    H233159   2.419   2.518   7.245  0.6353  1.4752 -0.4149
 3842TIP3   OH233160   3.102   6.784   0.852 -0.7799 -0.1186  0.2114
 3842TIP3    H133161   3.133   6.860   0.803 -0.9019 -0.4800 -0.4327
 3842TIP3    H233162   3.115   6.807   0.944 -0.1344  0.3897 -0.0059
 3843TIP3   OH233163   0.653   1.363   1.218 -0.6423 -0.1424 -0.3519
 3843TIP3    H133164   0.739   1.402   1.210  0.6770 -2.4820  1.7316
 3843TIP3    H233165   0.651   1.295   1.150 -2.0923  1.9799 -2.5029
 3844TIP3   OH233166   2.384   3.565   8.126  0.6445  0.2511 -0.0771
 3844TIP3    H133167   2.362   3.624   8.054 -0.1795 -0.7383 -0.6503
 3844TIP3    H233168   2.406   3.623   8.199 -2.5570  1.3259  0.1264
 3845TIP3   OH233169   1.362   2.138   1.915  0.1043 -0.0296 -0.0578
 3845TIP3    H133170   1.369   2.053   1.958  0.8065  0.3751  0.6243
 3845TIP3    H233171   1.392   2.122   1.825 -1.3933 -0.8779 -0.4353
 3846TIP3   OH233172   0.087   3.108   1.611 -0.1066  0.5983 -0.3085
 3846TIP3    H133173   0.021   3.078   1.673  0.8875  0.3433  0.6352
 3846TIP3    H233174   0.038   3.125   1.530 -1.2802  0.1768  0.3047
 3847TIP3   OH233175   0.251   1.148   1.824  0.1105  0.5473 -0.0753
 3847TIP3    H133176   0.285   1.237   1.817 -0.7517  1.0813  2.0784
 3847TIP3    H233177   0.327   1.092   1.807  0.9394  1.6936 -0.2226
 3848TIP3   OH233178   2.217   0.152   1.453  0.4763 -0.0639 -0.6408
 3848TIP3    H133179   2.168   0.114   1.526  0.4845  0.9208 -0.1130
 3848TIP3    H233180   2.191   0.101   1.377 -1.0008  0.1450 -0.2823
 3849TIP3   OH233181   0.906   3.423   1.110 -0.3941 -0.2713 -0.1225
 3849TIP3    H133182   0.845   3.429   1.036  0.6938 -1.7218 -1.1691
 3849TIP3    H233183   0.979   3.480   1.086 -1.5518  1.8744  1.3664
 3850TIP3   OH233184   1.995   4.297   1.376  0.1633 -0.8018 -0.0210
 3850TIP3    H133185   2.012   4.274   1.284 -0.0287 -0.2768 -0.1886
 3850TIP3    H233186   2.082   4.306   1.415  0.2448 -1.2177 -0.1009
 3851TIP3   OH233187   4.700   0.760   7.823  0.2605  0.3950  0.4994
 3851TIP3    H133188   4.666   0.792   7.739  1.3255  0.2567  0.0160
 3851TIP3    H233189   4.751   0.833   7.857 -1.5330  1.0635  1.8286
 3852TIP3   OH233190   2.673   6.665   1.062 -0.1351  0.6902  0.0225
 3852TIP3    H133191   2.680   6.591   1.122 -0.8931  0.8005  0.2513
 3852TIP3    H233192   2.613   6.636   0.994  0.6094  0.6176 -0.6113
 3853TIP3   OH233193   2.413   0.773   0.653  0.0760  0.2760  0.1240
 3853TIP3    H133194   2.445   0.685   0.673  1.3628  0.3552 -1.5099
 3853TIP3    H233195   2.433   0.825   0.731  1.6752 -0.2751  0.0850
 3854TIP3   OH233196   0.448   2.196   1.681 -0.2235 -0.2816 -0.0903
 3854TIP3    H133197   0.370   2.156   1.720 -0.2693 -0.3666 -0.2712
 3854TIP3    H233198   0.520   2.169   1.739 -0.6112  1.5244  1.2897
 3855TIP3   OH233199   0.407   0.807   1.578 -0.6775 -0.2735  0.4997
 3855TIP3    H133200   0.407   0.877   1.513  0.5471 -0.0567  0.7172
 3855TIP3    H233201   0.421   0.852   1.661  2.1430 -0.9109  0.4321
 3856TIP3   OH233202   5.151   7.293   0.983  0.3855  0.2660 -0.1772
 3856TIP3    H133203   5.130   7.380   0.949 -2.2980 -0.0760  0.4771
 3856TIP3    H233204   5.091   7.234   0.936  2.7383 -1.3668 -1.2206
 3857TIP3   OH233205   1.729   0.723   7.948  0.5800  0.0113 -0.1138
 3857TIP3    H133206   1.686   0.795   7.993  0.6979 -0.3188  0.5485
 3857TIP3    H233207   1.667   0.694   7.881 -1.8326 -2.7957  3.1217
 3858TIP3   OH233208   6.891   5.248   8.118 -0.3977  0.1882  0.0589
 3858TIP3    H133209   6.863   5.225   8.030  1.6415  0.7971 -0.7942
 3858TIP3    H233210   6.970   5.196   8.132 -0.4353  0.4592  1.3403
 3859TIP3   OH233211   6.496   7.220   7.426  0.2690  0.3659 -0.1975
 3859TIP3    H133212   6.452   7.137   7.409 -0.5224  0.5165  1.0558
 3859TIP3    H233213   6.578   7.194   7.470 -0.1135  0.2501  0.4615
 3860TIP3   OH233214   1.677   0.266   0.965  0.5952 -0.0672  0.2030
 3860TIP3    H133215   1.678   0.362   0.967 -1.4432 -0.0129 -0.8841
 3860TIP3    H233216   1.609   0.241   1.026  0.3672 -0.7924 -0.3423
 3861TIP3   OH233217   1.496   7.285   1.807  0.1996  0.1236  0.2534
 3861TIP3    H133218   1.424   7.261   1.865  1.0751  0.3324  1.4512
 3861TIP3    H233219   1.455   7.337   1.738 -1.1892 -2.0087 -0.5510
 3862TIP3   OH233220   7.194   1.543   1.692  0.0326  0.6493 -0.0422
 3862TIP3    H133221   7.209   1.449   1.681 -0.2803  0.1689  3.2051
 3862TIP3    H233222   7.104   1.556   1.664  0.0133 -0.0438 -0.3195
 3863TIP3   OH233223   7.069   3.007   2.092  0.5397 -0.1323  0.2501
 3863TIP3    H133224   7.165   3.003   2.088  0.6865  2.9400 -0.2410
 3863TIP3    H233225   7.048   2.993   2.184  1.3822 -1.9781  0.1686
 3864TIP3   OH233226   6.698   6.387   6.972 -0.4122 -0.1346 -0.2143
 3864TIP3    H133227   6.767   6.322   6.984  0.2483  0.1086 -2.3965
 3864TIP3    H233228   6.723   6.434   6.892 -0.5492  3.2140  1.6299
 3865TIP3   OH233229   0.516   5.809   1.813 -0.0775 -0.0086 -0.4836
 3865TIP3    H133230   0.556   5.781   1.895 -0.1636  0.3575 -0.3145
 3865TIP3    H233231   0.583   5.793   1.746  1.3691  3.0284  0.1463
 3866TIP3   OH233232   2.964   3.429   0.158 -0.6033 -0.2967 -0.5948
 3866TIP3    H133233   2.869   3.419   0.166 -0.5753 -0.3279 -0.3073
 3866TIP3    H233234   3.000   3.362   0.217 -0.4019 -0.6048 -1.0581
 3867TIP3   OH233235   1.506   7.102   1.119  0.0937 -0.6704  0.0875
 3867TIP3    H133236   1.490   7.112   1.025  0.2382  0.3633  0.1679
 3867TIP3    H233237   1.509   7.008   1.133  0.3224 -0.8266 -0.9886
 3868TIP3   OH233238   3.080   1.848   2.375 -0.5267 -0.3385 -0.3468
 3868TIP3    H133239   3.058   1.761   2.407 -2.0977  0.5857  1.2042
 3868TIP3    H233240   3.028   1.858   2.295 -0.4981 -0.7525 -0.4178
 3869TIP3   OH233241   2.186   2.630   1.963  0.0163 -0.7438  0.0264
 3869TIP3    H133242   2.176   2.720   1.991  1.0554 -0.8430  0.7607
 3869TIP3    H233243   2.236   2.588   2.034  1.1680 -1.4216 -1.1538
 3870TIP3   OH233244   6.403   6.970   1.491  0.2297  0.0242  0.4276
 3870TIP3    H133245   6.337   6.944   1.555  1.3385 -0.7936  1.2716
 3870TIP3    H233246   6.474   6.907   1.504 -0.7219 -2.0712 -3.6199
 3871TIP3   OH233247   2.325   3.419   0.649  0.5841  0.4801  0.1398
 3871TIP3    H133248   2.247   3.466   0.619 -0.6832 -1.4914  0.2259
 3871TIP3    H233249   2.332   3.439   0.742  1.3075  2.1735 -0.2563
 3872TIP3   OH233250   6.258   1.291   2.393 -0.1215  0.5609 -0.0792
 3872TIP3    H133251   6.266   1.374   2.440 -0.5996  0.1325  0.7811
 3872TIP3    H233252   6.169   1.290   2.360  0.2183  0.8620 -1.0063
 3873TIP3   OH233253   0.798   6.940   0.311 -0.5051 -0.2048 -0.8980
 3873TIP3    H133254   0.719   6.952   0.363 -0.8020 -0.6803 -1.2344
 3873TIP3    H233255   0.811   7.024   0.266  0.6463  0.7463  1.1470
 3874TIP3   OH233256   7.256   0.872   1.743 -0.6274  0.1570  0.3053
 3874TIP3    H133257   7.225   0.823   1.667 -0.4071  0.4660  0.0163
 3874TIP3    H233258   7.185   0.933   1.762 -2.0929 -2.0966  2.3360
 3875TIP3   OH233259   0.889   3.741   1.250  0.1889  0.3902  0.2973
 3875TIP3    H133260   0.834   3.678   1.297 -0.3125  0.5351 -0.1009
 3875TIP3    H233261   0.941   3.688   1.190 -0.9512  0.4594 -0.7503
 3876TIP3   OH233262   7.064   0.868   2.542 -0.1413  0.0133  0.2452
 3876TIP3    H133263   7.060   0.881   2.637  0.8770 -0.0337  0.3023
 3876TIP3    H233264   7.153   0.835   2.526  0.1827  1.3899 -0.8911
 3877TIP3   OH233265   6.901   0.007   0.160 -0.2673 -0.2622 -0.0393
 3877TIP3    H133266   6.916   0.036   0.250  2.2068 -0.7180 -0.2766
 3877TIP3    H233267   6.825   0.057   0.131 -0.4320  0.6783  1.9544
 3878TIP3   OH233268   0.412   0.097   1.588  0.4329 -0.4598  0.1945
 3878TIP3    H133269   0.442   0.188   1.593  0.4461 -0.3709 -1.2111
 3878TIP3    H233270   0.454   0.054   1.663  0.5935  0.6401  0.7482
 3879TIP3   OH233271   1.502   6.834   0.927 -0.6072 -0.1177  0.5599
 3879TIP3    H133272   1.499   6.873   0.840 -1.4647 -1.6232 -0.1066
 3879TIP3    H233273   1.592   6.803   0.937 -0.3918  0.4508  0.3868
 3880TIP3   OH233274   2.721   5.770   7.098  0.5286 -0.5057  0.4319
 3880TIP3    H133275   2.781   5.786   7.171  0.2107 -0.9030  0.7811
 3880TIP3    H233276   2.712   5.674   7.095  1.1231 -0.5400 -0.5884
 3881TIP3   OH233277   2.763   7.162   7.454  0.6975 -0.5557  0.1470
 3881TIP3    H133278   2.753   7.132   7.364  0.6551 -2.1915  0.6701
 3881TIP3    H233279   2.815   7.242   7.448 -2.1240  1.2100 -1.5873
 3882TIP3   OH233280   6.119   4.923   0.603 -0.4578  0.3466  0.3738
 3882TIP3    H133281   6.204   4.910   0.563 -1.3385  0.6397 -1.6513
 3882TIP3    H233282   6.085   4.835   0.616 -0.8155  0.2727 -0.9893
 3883TIP3   OH233283   0.849   0.888   2.047  0.5834  0.4177  0.0015
 3883TIP3    H133284   0.794   0.868   1.972  1.3658  0.9681 -0.7347
 3883TIP3    H233285   0.930   0.841   2.031  0.3062 -0.4683  1.1278
 3884TIP3   OH233286   2.735   1.422   0.516 -0.1070 -0.0470 -0.3289
 3884TIP3    H133287   2.648   1.384   0.531  0.9088 -2.7046 -0.7506
 3884TIP3    H233288   2.779   1.416   0.600  0.1294  0.0304 -0.4464
 3885TIP3   OH233289   2.861   0.621   1.176  0.2030 -0.2190 -0.0654
 3885TIP3    H133290   2.800   0.557   1.214  2.3577 -1.7287  0.9161
 3885TIP3    H233291   2.883   0.679   1.249  1.7028 -1.0704  0.1778
 3886TIP3   OH233292   5.513   7.143   0.416 -0.0691 -0.5414 -0.2730
 3886TIP3    H133293   5.537   7.144   0.324 -0.5952 -3.5087 -0.4788
 3886TIP3    H233294   5.490   7.234   0.435  0.5018  0.2114 -2.9205
 3887TIP3   OH233295   7.121   0.408   1.603 -0.6725  0.2627  0.1188
 3887TIP3    H133296   7.172   0.437   1.527 -0.7503 -0.6176 -0.2854
 3887TIP3    H233297   7.138   0.314   1.608 -1.5634  0.1138  0.5089
 3888TIP3   OH233298   2.268   1.310   0.289 -0.0869 -0.2760  0.3102
 3888TIP3    H133299   2.358   1.299   0.260  0.5080  1.1176  1.5650
 3888TIP3    H233300   2.259   1.252   0.364  0.2274  0.6652  1.0928
 3889TIP3   OH233301   7.278   0.972   2.223  0.0410  0.8443  0.0743
 3889TIP3    H133302   7.290   0.966   2.129 -1.6441 -0.6089 -0.0772
 3889TIP3    H233303   7.248   1.062   2.237 -0.9386  0.6876 -0.9387
 3890TIP3   OH233304   7.231   0.389   8.224 -0.5433 -0.4948  0.3444
 3890TIP3    H133305   7.318   0.364   8.193 -0.3497  0.7306 -0.1139
 3890TIP3    H233306   7.171   0.352   8.159 -0.4531 -2.2991  1.2491
 3891TIP3   OH233307   6.270   0.405   0.370  0.0949 -0.6380 -0.9543
 3891TIP3    H133308   6.199   0.435   0.313  0.6625 -0.8015 -1.7426
 3891TIP3    H233309   6.227   0.348   0.434 -0.6008 -0.1320 -0.9601
 3892TIP3   OH233310   7.134   0.116   0.848 -0.4444 -0.1871 -0.4727
 3892TIP3    H133311   7.062   0.093   0.790 -2.0848  1.0888  0.9956
 3892TIP3    H233312   7.092   0.160   0.923  1.8021  0.1986  0.6163
 3893TIP3   OH233313   1.466   6.765   0.341  0.6727 -0.2257 -0.6893
 3893TIP3    H133314   1.373   6.749   0.350  0.8740 -0.4182  1.2523
 3893TIP3    H233315   1.473   6.860   0.330  0.3211 -0.0624  0.4362
 3894TIP3   OH233316   0.437   0.807   1.074 -0.3749 -0.0539 -0.2877
 3894TIP3    H133317   0.526   0.840   1.077  0.1559 -1.2735 -1.9185
 3894TIP3    H233318   0.420   0.791   0.981 -1.6516 -1.4982  0.1642
 3895TIP3   OH233319   1.939   7.315   1.960 -0.5209 -0.1537  0.2253
 3895TIP3    H133320   1.972   7.359   2.038 -1.2647  0.4628  0.2011
 3895TIP3    H233321   1.962   7.223   1.972  0.3932  0.1194  0.6255
 3896TIP3   OH233322   3.261   4.268   1.504 -0.3231  0.2642  0.1711
 3896TIP3    H133323   3.327   4.298   1.442 -0.7401 -1.3904 -1.1267
 3896TIP3    H233324   3.177   4.287   1.462 -0.6631  1.3266  1.3063
 3897TIP3   OH233325   7.248   7.340   1.860 -0.1854 -0.0579 -0.1371
 3897TIP3    H133326   7.234   7.289   1.780 -0.6303  0.5983 -0.4815
 3897TIP3    H233327   7.312   7.407   1.835 -0.0214 -0.0986  0.1674
 3898TIP3   OH233328   5.762   0.254   8.152 -0.0262 -0.2461 -0.0448
 3898TIP3    H133329   5.760   0.258   8.248  2.1918  1.4796 -0.0315
 3898TIP3    H233330   5.839   0.200   8.133  0.9609  1.4490 -0.8744
 3899TIP3   OH233331   6.793   7.268   1.904  0.0277 -0.5452 -0.4168
 3899TIP3    H133332   6.867   7.217   1.872  0.7346 -0.0909  0.4858
 3899TIP3    H233333   6.717   7.227   1.863  0.6663 -1.7341 -0.4378
 3900TIP3   OH233334   2.173   1.684   2.057  0.3443  0.2253  0.3383
 3900TIP3    H133335   2.224   1.616   2.100  2.8487  1.1782 -1.0149
 3900TIP3    H233336   2.207   1.686   1.967 -2.5995  0.3865 -0.8292
 3901TIP3   OH233337   2.316   3.975   1.994 -0.2050  0.3783  0.0670
 3901TIP3    H133338   2.384   4.037   1.969 -0.8578  0.7864 -0.6889
 3901TIP3    H233339   2.349   3.935   2.075  0.1857  1.7373  0.5817
 3902TIP3   OH233340   2.036   3.092   2.039 -0.2523 -0.5579 -0.1798
 3902TIP3    H133341   1.943   3.080   2.058 -0.6997  1.2540 -1.1162
 3902TIP3    H233342   2.049   3.186   2.040  1.4095 -0.7579 -0.8828
 3903TIP3   OH233343   1.687   0.737   2.075  0.1833  0.0903  0.2423
 3903TIP3    H133344   1.643   0.659   2.109 -0.0454  0.5060  0.9135
 3903TIP3    H233345   1.775   0.733   2.113  0.6903 -0.6679 -0.9890
 3904TIP3   OH233346   2.412   0.194   1.695  0.2055 -0.4546  0.3492
 3904TIP3    H133347   2.375   0.197   1.783 -0.1767  1.5836  0.1360
 3904TIP3    H233348   2.344   0.154   1.641 -0.6387  0.7625  0.4849
 3905TIP3   OH233349   1.579   1.248   1.189 -0.2855 -0.4197  0.1864
 3905TIP3    H133350   1.531   1.190   1.248  2.0403 -1.8906  0.6783
 3905TIP3    H233351   1.670   1.220   1.196  0.8736  3.1837  0.2644
 3906TIP3   OH233352   7.037   1.035   1.824  0.0005  0.2862 -1.1313
 3906TIP3    H133353   6.991   1.117   1.808  0.4593  0.6343 -0.6634
 3906TIP3    H233354   6.976   0.967   1.793 -1.6429  0.6121  1.2124
 3907TIP3   OH233355   3.686   6.691   8.472  0.3850 -0.1113  0.4220
 3907TIP3    H133356   3.697   6.733   8.558 -0.7026 -0.6287  0.8244
 3907TIP3    H233357   3.598   6.654   8.475 -0.0939  0.8415 -1.3446
 3908TIP3   OH233358   0.549   5.877   1.007 -0.3663 -0.5618 -0.0219
 3908TIP3    H133359   0.620   5.856   0.946  1.0846 -0.5071  1.5967
 3908TIP3    H233360   0.577   5.840   1.090 -0.6365  2.3962  1.4600
 3909TIP3   OH233361   6.107   0.566   2.024 -0.0003  0.0016  0.5570
 3909TIP3    H133362   6.202   0.566   2.011 -0.1445 -1.4521 -0.6976
 3909TIP3    H233363   6.094   0.524   2.109  0.5021  0.8179  1.0459
 3910TIP3   OH233364   6.758   6.451   1.874 -0.5037  0.1143  0.2750
 3910TIP3    H133365   6.692   6.521   1.873 -1.0110 -0.3662  0.0556
 3910TIP3    H233366   6.726   6.389   1.939 -0.1647 -0.0204  0.3086
 3911TIP3   OH233367   1.474   2.744   1.650  0.5092 -0.4322 -0.6633
 3911TIP3    H133368   1.394   2.692   1.650  0.8688 -0.9850 -0.4301
 3911TIP3    H233369   1.469   2.794   1.732  0.6162 -0.8000 -0.4296
 3912TIP3   OH233370   1.745   1.095   2.051 -0.8775 -0.1069  0.4702
 3912TIP3    H133371   1.730   1.003   2.031  0.1588 -0.0094 -0.8584
 3912TIP3    H233372   1.802   1.095   2.128 -2.3609 -0.5441  1.5805
 3913TIP3   OH233373   1.740   0.120   8.015 -0.1403 -0.2633 -0.2732
 3913TIP3    H133374   1.711   0.043   7.967  0.3250  0.3668 -1.6045
 3913TIP3    H233375   1.725   0.193   7.954  1.4352  0.4306  0.1445
 3914TIP3   OH233376   1.043   0.400   8.022 -0.1585  0.5862 -0.0637
 3914TIP3    H133377   1.089   0.468   7.973  0.5899  0.4777  0.4870
 3914TIP3    H233378   1.084   0.400   8.108  0.4472 -1.1803 -0.3426
 3915TIP3   OH233379   2.620   0.138   1.474 -0.1995  0.3411  0.5467
 3915TIP3    H133380   2.581   0.198   1.411  1.1038  2.4585  1.6900
 3915TIP3    H233381   2.565   0.147   1.553  0.2968  0.4065  0.8859
 3916TIP3   OH233382   2.600   1.802   0.947  0.3493  0.3059  0.5861
 3916TIP3    H133383   2.684   1.842   0.924  1.2005 -1.4570  0.5221
 3916TIP3    H233384   2.539   1.832   0.879  1.1171  0.9700  0.1901
 3917TIP3   OH233385   0.011   0.106   2.452  0.1310  0.4553  0.0883
 3917TIP3    H133386  -0.011   0.064   2.534  0.3526  1.8175  0.8632
 3917TIP3    H233387   0.107   0.105   2.449  0.2063  2.5193  0.9976
 3918TIP3   OH233388   1.279   0.060   0.715  0.2023 -0.2137 -0.0610
 3918TIP3    H133389   1.268  -0.015   0.655 -2.1374 -0.5395  0.7112
 3918TIP3    H233390   1.260   0.137   0.660  0.6783 -0.3166 -0.3758
 3919TIP3   OH233391   2.053   6.074   1.977  1.0970  0.2537  0.4654
 3919TIP3    H133392   2.131   6.023   1.998  0.4962 -0.7827  0.1823
 3919TIP3    H233393   2.040   6.131   2.054  0.1569 -1.9845  2.0147
 3920TIP3   OH233394   7.152   0.410   0.453 -0.5693  0.1003 -0.4619
 3920TIP3    H133395   7.197   0.428   0.370 -0.6023  0.6608 -0.3621
 3920TIP3    H233396   7.173   0.485   0.508 -1.7329  0.4314 -0.4612
 3921TIP3   OH233397   0.149   3.138   1.265 -0.5353 -0.5224  0.0356
 3921TIP3    H133398   0.187   3.054   1.292 -1.5159 -1.3446 -1.0952
 3921TIP3    H233399   0.070   3.146   1.319 -1.3352 -1.1346 -1.0252
 3922TIP3   OH233400   2.352   6.663   1.963 -0.0079 -0.5848 -0.1608
 3922TIP3    H133401   2.372   6.754   1.940 -1.9871  0.2371  1.1870
 3922TIP3    H233402   2.426   6.635   2.016  0.0376  0.6764  0.4632
 3923TIP3   OH233403   3.149   0.698   7.140  0.3443  0.1534 -0.0158
 3923TIP3    H133404   3.217   0.634   7.162  1.1489  0.6412 -1.0442
 3923TIP3    H233405   3.108   0.663   7.061 -0.9542 -0.3956  0.8880
 3924TIP3   OH233406   6.632   5.887   7.982  0.0576  0.5239 -0.2662
 3924TIP3    H133407   6.692   5.830   8.029  1.3755  1.2669 -1.0391
 3924TIP3    H233408   6.686   5.931   7.917 -1.0915  2.0668 -0.1992
 3925TIP3   OH233409   0.397   2.763   2.527 -0.0474 -0.3154 -0.2945
 3925TIP3    H133410   0.400   2.734   2.618 -0.6687 -0.7522 -0.4112
 3925TIP3    H233411   0.318   2.818   2.523 -0.3029 -0.7114 -0.6876
 3926TIP3   OH233412   0.326   5.589   1.293 -0.0257  0.0186  0.5258
 3926TIP3    H133413   0.264   5.657   1.320  1.1452  1.0712  0.6020
 3926TIP3    H233414   0.348   5.611   1.203 -0.6476 -1.0314  0.1095
 3927TIP3   OH233415   0.082   4.463   1.835 -0.5558  0.0054  0.2744
 3927TIP3    H133416   0.110   4.378   1.800  0.5024  0.9187 -1.1347
 3927TIP3    H233417  -0.012   4.452   1.852 -0.5109 -1.3339 -0.2683
 3928TIP3   OH233418   1.932   2.830   0.793 -0.0135  0.3506 -0.7561
 3928TIP3    H133419   2.022   2.862   0.791  0.3826 -0.6076  0.6467
 3928TIP3    H233420   1.886   2.890   0.851  0.0556  0.0279 -0.3670
 3929TIP3   OH233421   1.603   7.329   1.507 -0.0123 -0.7683 -0.0966
 3929TIP3    H133422   1.531   7.266   1.509 -0.7405  0.0809  0.7830
 3929TIP3    H233423   1.567   7.409   1.545  0.8968  0.1910 -1.1940
 3930TIP3   OH233424   0.935   2.789   1.922 -0.0898  0.2892 -0.4039
 3930TIP3    H133425   0.963   2.871   1.881  0.8653  0.8982  1.4159
 3930TIP3    H233426   0.966   2.796   2.012 -2.4802 -0.8737  0.5304
 3931TIP3   OH233427   1.140   6.729   1.274 -0.4787  0.4775  0.0942
 3931TIP3    H133428   1.226   6.688   1.276 -0.0852  1.1726 -1.9617
 3931TIP3    H233429   1.137   6.781   1.355 -0.1773 -1.8804  1.6739
 3932TIP3   OH233430   0.616   0.355   1.934  0.1320  0.0148 -0.4718
 3932TIP3    H133431   0.595   0.436   1.981  0.6634 -0.0226 -0.1571
 3932TIP3    H233432   0.688   0.316   1.984  1.5297  0.5757 -1.9516
 3933TIP3   OH233433   6.550   2.761   2.443  0.5148 -0.7818  0.0356
 3933TIP3    H133434   6.645   2.771   2.436  0.5300  0.7228  1.8993
 3933TIP3    H233435   6.516   2.795   2.360  1.5690 -0.5808 -0.3173
 3934TIP3   OH233436   2.266   2.826   1.341 -0.3979  0.0551 -0.0307
 3934TIP3    H133437   2.287   2.773   1.264 -0.6923 -0.8036  0.4687
 3934TIP3    H233438   2.224   2.904   1.306  1.7593  0.8555 -0.8985
 3935TIP3   OH233439   0.168   2.932   2.516  0.4565 -0.2896  0.1904
 3935TIP3    H133440   0.108   2.922   2.590 -1.0148  0.6465 -0.8405
 3935TIP3    H233441   0.119   2.900   2.441  0.3975  2.5126 -1.0413
 3936TIP3   OH233442   2.648   1.183   1.113  0.2019 -0.1328  0.0136
 3936TIP3    H133443   2.594   1.239   1.169 -0.3846 -0.3330 -0.3481
 3936TIP3    H233444   2.641   1.096   1.152  1.1945  0.0551  0.6348
 3937TIP3   OH233445   6.777   1.065   1.408 -0.1147  0.0639  0.5535
 3937TIP3    H133446   6.750   1.115   1.332 -2.1572 -2.6111 -0.5592
 3937TIP3    H233447   6.833   0.995   1.372 -0.4799 -0.7719  1.5935
 3938TIP3   OH233448   0.188   2.110   1.723 -0.5056 -0.6642  0.5433
 3938TIP3    H133449   0.148   2.195   1.744  1.1140  0.3872 -0.4961
 3938TIP3    H233450   0.165   2.053   1.796 -0.7650  0.9612  1.7416
 3939TIP3   OH233451   4.110   2.858   0.659  0.2496  0.3362 -1.1517
 3939TIP3    H133452   4.035   2.834   0.604 -1.4522  0.5563  0.9997
 3939TIP3    H233453   4.115   2.788   0.724  1.8789  0.3751 -1.2111
 3940TIP3   OH233454   2.075   6.527   0.719  0.4132  0.2090  0.4493
 3940TIP3    H133455   2.010   6.496   0.656  0.8798 -0.5222  0.3186
 3940TIP3    H233456   2.049   6.617   0.738  1.3551  1.0895 -2.2233
 3941TIP3   OH233457   2.067   6.070   0.908 -0.9855 -0.1578  0.1086
 3941TIP3    H133458   2.102   6.159   0.898  0.5451 -0.8341 -0.7662
 3941TIP3    H233459   2.006   6.060   0.835 -0.5136 -0.1199 -0.2940
 3942TIP3   OH233460   1.859   5.401   8.399 -0.0699 -0.1812  0.5212
 3942TIP3    H133461   1.880   5.477   8.452 -1.4540 -0.6570  1.7836
 3942TIP3    H233462   1.789   5.430   8.342  0.7290  0.0374 -0.3632
 3943TIP3   OH233463   6.558   7.111   1.848 -0.3051  0.0842  0.6742
 3943TIP3    H133464   6.499   7.175   1.806 -0.8477 -0.6169  0.3512
 3943TIP3    H233465   6.580   7.050   1.778  0.6638  0.2335  0.8451
 3944TIP3   OH233466   7.116   6.769   1.111 -0.0383 -0.1203  0.4808
 3944TIP3    H133467   7.175   6.695   1.125 -2.2346 -1.6087  2.2453
 3944TIP3    H233468   7.091   6.796   1.200 -1.8622  0.5722 -0.2364
 3945TIP3   OH233469   6.043   4.224   1.721 -0.4115 -0.3410  0.0035
 3945TIP3    H133470   6.010   4.216   1.811 -2.3931 -0.1524 -0.6839
 3945TIP3    H233471   6.008   4.308   1.690 -1.8968 -1.5981 -1.8124
 3946TIP3   OH233472   0.870   1.174   2.202 -0.4271  0.3879 -0.5029
 3946TIP3    H133473   0.877   1.252   2.257 -1.1382 -0.2928  0.5969
 3946TIP3    H233474   0.951   1.126   2.220  0.0282  0.8869 -1.2095
 3947TIP3   OH233475   2.549   0.979   2.187 -0.0100  0.0510  0.2324
 3947TIP3    H133476   2.575   1.001   2.276  0.4702 -0.3192  0.1909
 3947TIP3    H233477   2.623   0.928   2.153  0.0023  0.5615 -0.5245
 3948TIP3   OH233478   0.769   0.378   0.396  0.5999  0.2073  0.5489
 3948TIP3    H133479   0.780   0.338   0.482  0.9030  1.3192  1.0436
 3948TIP3    H233480   0.782   0.472   0.412  1.1935  0.3646 -0.8046
 3949TIP3   OH233481   7.074   6.485   7.959 -0.6322 -0.3981 -0.1166
 3949TIP3    H133482   7.137   6.485   8.032  2.3036 -1.1558 -2.5367
 3949TIP3    H233483   7.027   6.402   7.968  0.8288 -1.2329  0.0166
 3950TIP3   OH233484   1.754   0.084   8.487  0.4661  0.0620 -0.2719
 3950TIP3    H133485   1.776   0.177   8.480 -2.2713  0.6874 -1.3071
 3950TIP3    H233486   1.766   0.050   8.398  1.7527 -0.6534  0.1693
 3951TIP3   OH233487   3.136   4.322   0.585  0.0592  0.0158  0.0449
 3951TIP3    H133488   3.145   4.227   0.583  0.8540  0.0888  0.0384
 3951TIP3    H233489   3.169   4.350   0.500 -0.2575  0.2937  0.0135
 3952TIP3   OH233490   1.518   2.507   2.251  0.2740 -0.2075  0.4519
 3952TIP3    H133491   1.603   2.517   2.293 -0.0704 -2.1299  1.6454
 3952TIP3    H233492   1.534   2.443   2.181  0.0388  0.2652 -0.0416
 3953TIP3   OH233493   1.024   6.318   8.174 -0.1396  0.2247  0.2262
 3953TIP3    H133494   0.974   6.285   8.249 -0.3323 -1.5414 -0.6502
 3953TIP3    H233495   1.115   6.316   8.202 -0.1935 -0.6483  0.3552
 3954TIP3   OH233496   1.230   0.317   1.518 -0.0218 -0.0382 -0.0295
 3954TIP3    H133497   1.148   0.327   1.470  0.5597  0.8789 -0.8276
 3954TIP3    H233498   1.211   0.353   1.605 -0.5152  0.0015 -0.1500
 3955TIP3   OH233499   7.067   6.856   7.233  0.2212 -0.4652 -0.4866
 3955TIP3    H133500   7.045   6.788   7.170 -1.4247 -0.0231 -0.4186
 3955TIP3    H233501   7.158   6.879   7.214 -0.2335 -0.3903 -2.6507
 3956TIP3   OH233502   3.018   6.344   0.444 -0.5983  0.0161  0.3277
 3956TIP3    H133503   2.924   6.361   0.454 -0.7866 -0.6261 -0.3707
 3956TIP3    H233504   3.055   6.429   0.420 -1.4813 -0.3975 -2.6651
 3957TIP3   OH233505   1.917   1.188   0.503  0.0211  0.0804  0.1619
 3957TIP3    H133506   2.000   1.150   0.475 -0.9616 -0.9196 -1.4558
 3957TIP3    H233507   1.884   1.128   0.570  0.5815  0.4775  0.8043
 3958TIP3   OH233508   2.751   1.049   0.376  0.2939  0.2445  0.0287
 3958TIP3    H133509   2.827   0.991   0.379 -0.1173 -0.3565 -0.8839
 3958TIP3    H233510   2.728   1.062   0.468  1.0740 -0.1362  0.2852
 3959TIP3   OH233511   3.328   0.310   8.469 -0.0573 -0.1238  0.6781
 3959TIP3    H133512   3.280   0.386   8.435  0.5884  1.4813  3.1816
 3959TIP3    H233513   3.307   0.239   8.409 -2.1422  1.6079 -0.7102
 3960TIP3   OH233514   1.769   1.511   1.964  0.4075  0.2262  0.0051
 3960TIP3    H133515   1.822   1.446   1.918  0.9263  0.5546  0.1242
 3960TIP3    H233516   1.832   1.581   1.986 -0.2843  1.1130 -0.7949
 3961TIP3   OH233517   2.375   2.842   1.617  0.0079 -0.4619  0.1185
 3961TIP3    H133518   2.370   2.761   1.668 -2.5208 -0.9562 -0.8617
 3961TIP3    H233519   2.411   2.815   1.532  1.4214 -0.1318  0.5965
 3962TIP3   OH233520   2.518   1.473   1.576 -0.2340  0.1313  0.6058
 3962TIP3    H133521   2.591   1.482   1.638 -0.0373 -0.2573  0.4326
 3962TIP3    H233522   2.558   1.437   1.497 -0.9134 -1.8341  1.1256
 3963TIP3   OH233523   0.699   6.133   1.601  0.1469  0.1436 -0.2828
 3963TIP3    H133524   0.626   6.142   1.663 -1.2399 -1.2885 -1.6899
 3963TIP3    H233525   0.777   6.149   1.654 -1.1595  1.6539  1.2585
 3964TIP3   OH233526   2.605   6.715   8.103 -0.2088  0.1704  0.3594
 3964TIP3    H133527   2.574   6.769   8.030 -0.0608  0.9136  0.8441
 3964TIP3    H233528   2.630   6.632   8.062 -4.0386 -0.9586  0.0954
 3965TIP3   OH233529   3.540   1.679   1.342  0.1808 -0.9712  0.2588
 3965TIP3    H133530   3.517   1.606   1.399 -0.1503 -0.0776  1.2903
 3965TIP3    H233531   3.635   1.677   1.337  0.2623 -0.5943  1.4778
 3966TIP3   OH233532   2.021   1.118   1.288  0.0099 -0.1662 -0.6374
 3966TIP3    H133533   2.046   1.044   1.343 -2.0090 -2.1118 -2.2268
 3966TIP3    H233534   1.980   1.180   1.348  0.4775 -0.9525  0.5024
 3967TIP3   OH233535   4.578   2.133   0.234 -0.2853 -0.0754 -0.4547
 3967TIP3    H133536   4.656   2.182   0.208  0.8323 -0.7393  1.5307
 3967TIP3    H233537   4.593   2.045   0.201 -0.7627  0.1075 -1.1520
 3968TIP3   OH233538   3.235   0.924   7.255 -0.4350  0.8611 -0.0928
 3968TIP3    H133539   3.194   0.861   7.196 -2.3244  1.3826  0.6080
 3968TIP3    H233540   3.186   1.005   7.241  0.7042  1.6560  0.4103
 3969TIP3   OH233541   2.817   1.101   8.406 -0.9372  0.8548  0.1679
 3969TIP3    H133542   2.902   1.058   8.419 -0.1290  1.8456 -1.5923
 3969TIP3    H233543   2.840   1.187   8.371 -2.7274  0.7021 -1.4278
 3970TIP3   OH233544   3.319   0.657   2.024  0.0622  0.1534 -0.6990
 3970TIP3    H133545   3.364   0.741   2.030  0.6774 -0.1202 -1.4794
 3970TIP3    H233546   3.339   0.613   2.107  1.5598 -0.1264 -1.1983
 3971TIP3   OH233547   2.294   5.756   1.218 -0.0608 -0.0464  0.6462
 3971TIP3    H133548   2.266   5.725   1.305 -3.0243 -2.5914 -1.1098
 3971TIP3    H233549   2.249   5.839   1.207 -1.2068 -0.6284  0.8211
 3972TIP3   OH233550   3.489   3.048   8.044  0.3606 -0.2824  0.4258
 3972TIP3    H133551   3.437   2.995   7.982  0.5742  0.2254 -0.1932
 3972TIP3    H233552   3.577   3.012   8.038  0.6801  0.6541 -0.5887
 3973TIP3   OH233553   3.057   1.357   1.328 -0.3198  0.1294 -0.0176
 3973TIP3    H133554   3.016   1.322   1.249 -0.2109  1.4661 -0.6899
 3973TIP3    H233555   3.111   1.286   1.361 -0.1826 -0.3618 -1.2850
 3974TIP3   OH233556   2.472   6.900   1.832 -0.3289 -0.1032  0.3619
 3974TIP3    H133557   2.387   6.943   1.846 -0.2325  0.0226  0.5623
 3974TIP3    H233558   2.486   6.906   1.738 -0.9726 -0.9322  0.2074
 3975TIP3   OH233559   1.973   1.788   1.153 -0.2948 -1.2028  0.4156
 3975TIP3    H133560   1.951   1.697   1.131 -2.3092 -0.7568  0.5403
 3975TIP3    H233561   1.897   1.839   1.127 -0.7632 -0.0091  3.8306
 3976TIP3   OH233562   0.506   2.874   1.505 -0.7900  0.8417  0.7751
 3976TIP3    H133563   0.485   2.938   1.572  0.1445 -1.3385  3.2215
 3976TIP3    H233564   0.438   2.807   1.512  0.5537 -0.5275  1.0885
 3977TIP3   OH233565   2.053   0.852   1.361 -0.2330  0.0627  0.5534
 3977TIP3    H133566   1.962   0.841   1.387  0.5746 -1.3885  2.9579
 3977TIP3    H233567   2.077   0.770   1.318 -0.6562  1.2730 -2.0593
 3978TIP3   OH233568   2.922   4.959   1.092 -0.4662 -0.0488 -0.1783
 3978TIP3    H133569   2.891   5.049   1.099  0.0295  0.2093 -1.3593
 3978TIP3    H233570   3.015   4.964   1.110 -0.5497 -0.4165  0.3707
 3979TIP3   OH233571   1.267   1.001   1.321 -0.0721 -0.3870 -0.0964
 3979TIP3    H133572   1.360   0.981   1.325  0.4748  1.2631 -3.1679
 3979TIP3    H233573   1.231   0.938   1.259 -0.7703 -0.2402  0.1540
 3980TIP3   OH233574   2.245   1.844   1.125  0.1178  0.2427  0.2444
 3980TIP3    H133575   2.151   1.826   1.129  0.1669 -0.4931 -1.4779
 3980TIP3    H233576   2.273   1.806   1.042  2.5394 -2.2711  2.1142
 3981TIP3   OH233577   2.431   2.709   1.086 -0.6793  0.2148 -0.4679
 3981TIP3    H133578   2.412   2.654   1.010 -1.2534  0.0418 -0.1963
 3981TIP3    H233579   2.446   2.647   1.157 -3.0011  0.4455  0.2385
 3982TIP3   OH233580   1.267   1.618   1.960 -0.0375  0.4678 -0.0495
 3982TIP3    H133581   1.231   1.656   1.881  0.0760  1.2798  0.2815
 3982TIP3    H233582   1.360   1.606   1.941  0.0019  0.7235 -0.0141
 3983TIP3   OH233583   2.461   6.033   1.863  0.1974 -0.1887  0.5730
 3983TIP3    H133584   2.535   5.979   1.889 -0.6423 -0.8626  1.6097
 3983TIP3    H233585   2.384   5.978   1.878 -0.6972  1.3389  1.8404
 3984TIP3   OH233586   2.593   2.336   1.976  0.3302  0.4600  0.1187
 3984TIP3    H133587   2.657   2.313   2.044  1.1309 -0.9242 -1.0637
 3984TIP3    H233588   2.605   2.430   1.963  2.1095  0.2285 -0.0395
 3985TIP3   OH233589   1.703   3.522   1.078  0.0097  0.2871 -0.6083
 3985TIP3    H133590   1.683   3.440   1.032 -1.1736  0.3469 -0.2323
 3985TIP3    H233591   1.716   3.586   1.008  3.0721 -0.6594 -0.9605
 3986TIP3   OH233592   2.676   3.101   1.766  0.0449  0.3846 -0.2265
 3986TIP3    H133593   2.764   3.123   1.798  0.6880  2.6235 -3.2415
 3986TIP3    H233594   2.624   3.179   1.784 -0.7366 -0.0641 -0.5171
 3987TIP3   OH233595   2.989   1.583   2.473 -0.0399 -0.6237 -0.4436
 3987TIP3    H133596   3.021   1.541   2.393  3.2649 -0.1790  0.5638
 3987TIP3    H233597   3.011   1.521   2.543 -0.6571  0.0705  0.3770
 3988TIP3   OH233598   3.160   7.056   7.903 -0.2481 -0.0471 -0.3070
 3988TIP3    H133599   3.116   6.984   7.948  1.3492 -1.0048 -0.2087
 3988TIP3    H233600   3.175   7.024   7.814  2.4124 -0.7619  0.3289
 3989TIP3   OH233601   3.367   0.251   2.045  0.0550  0.8872 -0.2122
 3989TIP3    H133602   3.291   0.237   2.102 -0.7683  2.3057 -0.9389
 3989TIP3    H233603   3.421   0.314   2.093  0.9305 -0.3151  0.4235
 3990TIP3   OH233604   2.261   0.718   0.393 -0.7160 -0.0864  0.1569
 3990TIP3    H133605   2.268   0.625   0.414  1.1152  0.0309  0.1381
 3990TIP3    H233606   2.348   0.753   0.411 -1.8812  2.0121  2.0487
 3991TIP3   OH233607   3.359   7.143   8.448 -0.5787  0.1272 -0.0574
 3991TIP3    H133608   3.383   7.188   8.529  0.4281 -1.5865  0.6192
 3991TIP3    H233609   3.403   7.194   8.379  0.6613  0.1271  0.7092
 3992TIP3   OH233610   2.236   2.225   0.638 -0.3788 -0.6731 -0.3999
 3992TIP3    H133611   2.251   2.240   0.731  1.1585 -3.0565 -0.2232
 3992TIP3    H233612   2.269   2.305   0.595  0.6731 -0.3633  0.9655
 3993TIP3   OH233613   3.228   0.558   0.698 -0.2365 -0.7250  0.2818
 3993TIP3    H133614   3.168   0.631   0.685  2.7856  1.6472 -1.1017
 3993TIP3    H233615   3.205   0.494   0.631 -1.5106 -0.0859  0.1146
 3994TIP3   OH233616   4.633   1.305   7.571 -0.4650 -0.0190 -0.0051
 3994TIP3    H133617   4.560   1.355   7.535 -0.2827 -0.2624 -0.7044
 3994TIP3    H233618   4.601   1.215   7.573 -0.7410  0.0943  1.1191
 3995TIP3   OH233619   2.632   0.483   2.319 -0.4331  0.1182 -0.0939
 3995TIP3    H133620   2.707   0.539   2.301 -0.3339 -1.4067 -5.1261
 3995TIP3    H233621   2.665   0.394   2.305 -2.5282 -0.7090  0.0707
 3996TIP3   OH233622   4.992   6.173   1.135 -0.0913  0.2178 -0.0805
 3996TIP3    H133623   4.995   6.083   1.167 -1.1805  0.0018 -0.5406
 3996TIP3    H233624   5.015   6.226   1.211 -2.1189 -0.3134  0.9547
 3997TIP3   OH233625   2.191   0.659   1.970 -0.4437  0.0698  0.8572
 3997TIP3    H133626   2.271   0.692   2.010  0.6236 -0.5342 -0.7489
 3997TIP3    H233627   2.172   0.578   2.018  0.2332 -0.0904  0.8537
 3998TIP3   OH233628   2.302   6.330   1.617  0.4162 -0.2293 -0.1391
 3998TIP3    H133629   2.279   6.259   1.677  0.6789 -1.5226 -1.5297
 3998TIP3    H233630   2.377   6.373   1.657 -0.4552 -0.0093  1.2835
 3999TIP3   OH233631   2.980   2.440   1.009  0.0086  0.2246 -0.1574
 3999TIP3    H133632   2.987   2.467   0.917  2.7038  1.6434  0.4009
 3999TIP3    H233633   2.932   2.512   1.050  1.5191  1.1317  0.0877
 4000TIP3   OH233634   4.832   6.971   1.458  0.4871  0.1209  0.5509
 4000TIP3    H133635   4.754   6.967   1.514 -1.2879  0.1455 -1.8435
 4000TIP3    H233636   4.827   6.892   1.405  0.9550  1.1460 -1.0594
 4001TIP3   OH233637   2.898   0.593   0.916  0.0145  0.0602  0.8295
 4001TIP3    H133638   2.916   0.599   1.010  1.7350 -0.4683  0.5582
 4001TIP3    H233639   2.941   0.512   0.888 -0.3620  0.2789 -0.4485
 4002TIP3   OH233640   4.562   1.903   0.521 -0.5769  0.3167 -0.3327
 4002TIP3    H133641   4.494   1.926   0.458 -1.1562  0.2451  0.2671
 4002TIP3    H233642   4.565   1.807   0.520 -1.1689  0.2917  0.3704
 4003TIP3   OH233643   1.748   4.080   1.424 -0.0042 -0.5844 -0.0403
 4003TIP3    H133644   1.667   4.132   1.420  0.4464  0.1568  0.3768
 4003TIP3    H233645   1.739   4.028   1.504  0.0511 -0.2915  0.1591
 4004TIP3   OH233646   2.383   2.157   0.158  0.1628 -0.4347 -0.0929
 4004TIP3    H133647   2.333   2.130   0.234  1.3412 -0.0272  0.8378
 4004TIP3    H233648   2.442   2.226   0.190  0.5094 -0.0989 -1.4069
 4005TIP3   OH233649   2.636   0.554   0.706 -0.2771 -0.5704  0.1168
 4005TIP3    H133650   2.616   0.495   0.779 -0.7983  0.7089  1.0231
 4005TIP3    H233651   2.625   0.500   0.628 -2.6533 -1.1678  0.8302
 4006TIP3   OH233652   2.942   1.492   0.953  0.6121  0.4789 -0.9270
 4006TIP3    H133653   3.031   1.478   0.920 -0.1992 -1.7643 -2.3177
 4006TIP3    H233654   2.942   1.581   0.987  3.9966 -0.2154  1.0789
 4007TIP3   OH233655   3.470   2.760   8.244 -0.4768  0.8173 -0.7370
 4007TIP3    H133656   3.385   2.730   8.277  0.7406 -1.0570  0.7344
 4007TIP3    H233657   3.482   2.846   8.285 -0.6471  0.1108  0.8186
 4008TIP3   OH233658   2.451   1.492   0.786 -0.1112 -0.6368 -0.1145
 4008TIP3    H133659   2.429   1.574   0.743 -2.1885 -0.8500  0.4914
 4008TIP3    H233660   2.547   1.486   0.779 -0.1805  0.4551 -2.6163
 4009TIP3   OH233661   3.944   2.029   0.341  0.3905  0.3084  0.0460
 4009TIP3    H133662   3.853   2.050   0.322  0.7193  0.5140 -1.3183
 4009TIP3    H233663   3.991   2.111   0.328  0.8105  0.1442  0.5034
 4010TIP3   OH233664   2.819   2.601   1.137  0.0724  0.4555 -0.0561
 4010TIP3    H133665   2.788   2.547   1.209  0.2427  1.5235  0.8244
 4010TIP3    H233666   2.793   2.690   1.160  3.1634  1.2978  0.3954
 4011TIP3   OH233667   4.046   7.171   2.016  0.1377 -0.7164  0.1420
 4011TIP3    H133668   4.130   7.130   1.995  0.8615  1.0684 -0.5866
 4011TIP3    H233669   4.053   7.196   2.108  0.7973  0.2802 -0.1668
 4012TIP3   OH233670   1.414   2.129   1.649  0.0974  0.0254 -0.3958
 4012TIP3    H133671   1.506   2.125   1.623  0.0449  1.1750 -0.7827
 4012TIP3    H233672   1.365   2.107   1.570 -0.0011  1.2609 -0.6887
 4013TIP3   OH233673   3.133   1.863   8.142 -0.2557  0.5009 -0.0015
 4013TIP3    H133674   3.202   1.819   8.092 -1.1273  0.0095 -0.7836
 4013TIP3    H233675   3.180   1.907   8.213  0.7757 -0.5867  0.0228
 4014TIP3   OH233676   1.063   0.390   1.291 -0.5731 -0.2808 -0.0937
 4014TIP3    H133677   1.047   0.315   1.233 -0.7401 -1.6676  1.6957
 4014TIP3    H233678   0.989   0.388   1.352  1.2434 -0.8099  2.1659
 4015TIP3   OH233679   2.168   0.460   7.344  0.4615  0.0238 -0.3214
 4015TIP3    H133680   2.089   0.475   7.291  0.8414  0.1232 -0.8589
 4015TIP3    H233681   2.136   0.417   7.423  0.0493 -1.2397 -1.1650
 4016TIP3   OH233682   3.941   0.766   7.546  0.4103  0.0047 -0.2661
 4016TIP3    H133683   3.874   0.766   7.478 -1.6327  0.9082  1.6720
 4016TIP3    H233684   4.017   0.725   7.505 -0.9346  0.0396 -2.8958
 4017TIP3   OH233685   2.106   6.515   1.609  0.4655  0.5183  0.1524
 4017TIP3    H133686   2.093   6.566   1.529 -1.6856 -0.2042  0.0168
 4017TIP3    H233687   2.172   6.450   1.586 -1.6379 -1.0189 -1.6803
 4018TIP3   OH233688   3.045   7.237   0.799 -0.6026  0.7874  0.4438
 4018TIP3    H133689   3.070   7.201   0.884  0.8080  1.2101  0.2339
 4018TIP3    H233690   3.000   7.319   0.819 -0.7460  0.6164  0.8098
 4019TIP3   OH233691   2.512   6.961   7.280 -0.2993 -0.1578 -0.3686
 4019TIP3    H133692   2.456   7.036   7.299  0.8057  0.8028 -0.8531
 4019TIP3    H233693   2.597   6.999   7.257  0.0521 -1.5129 -1.4123
 4020TIP3   OH233694   4.373   7.051   1.340  0.5190 -0.0440 -0.2494
 4020TIP3    H133695   4.427   7.059   1.261  1.2860  0.5670  0.3304
 4020TIP3    H233696   4.367   6.957   1.355 -0.3007 -0.2013 -1.4938
 4021TIP3   OH233697   1.801   6.613   1.563  0.1470 -0.5246 -0.1273
 4021TIP3    H133698   1.851   6.591   1.642  1.9962 -0.9249 -1.3607
 4021TIP3    H233699   1.863   6.661   1.508 -1.9177  2.0963 -0.2434
 4022TIP3   OH233700   3.202   0.128   1.593  0.7256  0.1972  0.7397
 4022TIP3    H133701   3.167   0.065   1.656 -1.5341 -0.9991 -1.6173
 4022TIP3    H233702   3.183   0.214   1.632  0.4161 -0.5276  2.2075
 4023TIP3   OH233703   2.151   6.931   8.327 -0.8945  0.5261  0.6658
 4023TIP3    H133704   2.198   6.896   8.251 -0.9583  1.4912  0.1808
 4023TIP3    H233705   2.105   6.855   8.364  0.8596 -0.3886  1.0185
 4024TIP3   OH233706   2.916   0.302   7.712 -0.3508 -0.5927  0.1400
 4024TIP3    H133707   2.868   0.369   7.662  1.4700  0.7909  0.1846
 4024TIP3    H233708   2.963   0.352   7.779  0.5942 -2.0017  0.5407
 4025TIP3   OH233709   3.914   2.874   7.775  0.3733 -0.1936 -0.1887
 4025TIP3    H133710   4.006   2.896   7.760  0.6128 -0.8188  0.3274
 4025TIP3    H233711   3.907   2.782   7.750  0.7958 -1.2976  3.4551
 4026TIP3   OH233712   4.597   2.208   7.215  0.2093  0.0338 -0.1271
 4026TIP3    H133713   4.543   2.225   7.293 -1.6908  1.2307 -1.6348
 4026TIP3    H233714   4.536   2.221   7.142  2.4988  1.1074 -1.8870
 4027TIP3   OH233715   3.718   2.333   8.054  1.3863 -0.4992  0.1243
 4027TIP3    H133716   3.797   2.310   8.102  0.6203  1.2418  2.2652
 4027TIP3    H233717   3.747   2.395   7.987  1.9178 -0.2905  0.5450
 4028TIP3   OH233718   3.333   1.871   0.691 -0.6130 -0.1835  0.3986
 4028TIP3    H133719   3.412   1.867   0.744  0.7926 -0.9001 -1.6822
 4028TIP3    H233720   3.340   1.953   0.642 -0.6770 -0.6993 -0.4987
 4029TIP3   OH233721   2.831   6.729   7.463  0.4841  0.0162  0.6659
 4029TIP3    H133722   2.780   6.670   7.407  2.2722  0.1425 -1.1675
 4029TIP3    H233723   2.771   6.753   7.534 -1.3459 -1.3605 -0.3636
 4030TIP3   OH233724   2.000   0.518   0.703 -0.7048 -0.3680 -0.0362
 4030TIP3    H133725   2.074   0.577   0.716 -1.5160  0.5698  0.3933
 4030TIP3    H233726   2.029   0.434   0.739 -0.1202  0.1956  0.8068
 4031TIP3   OH233727   3.725   2.140   2.046 -0.4599  0.4866  0.4799
 4031TIP3    H133728   3.650   2.125   2.104  1.2549 -0.2653  2.6092
 4031TIP3    H233729   3.799   2.104   2.095  1.2593  1.0981 -1.6347
 4032TIP3   OH233730   0.444   6.460   2.351  0.3764 -0.5063  0.4400
 4032TIP3    H133731   0.399   6.513   2.285  0.0557 -0.4847  0.6746
 4032TIP3    H233732   0.406   6.488   2.434  1.9565  0.6422  0.7939
 4033TIP3   OH233733   3.491   0.267   1.776  0.4733  0.2103 -0.3321
 4033TIP3    H133734   3.410   0.315   1.755 -0.1007 -0.0580  1.1491
 4033TIP3    H233735   3.473   0.228   1.862  1.5325 -1.3290 -0.7887
 4034TIP3   OH233736   1.729   0.597   1.762 -0.4861 -0.5857  0.1663
 4034TIP3    H133737   1.649   0.546   1.753 -0.5803 -0.1883 -1.4438
 4034TIP3    H233738   1.699   0.688   1.763  0.0504 -0.3146 -2.6629
 4035TIP3   OH233739   3.584   2.695   7.982 -0.1353 -0.4950 -0.1327
 4035TIP3    H133740   3.501   2.737   7.960 -0.8723 -1.4830  0.7051
 4035TIP3    H233741   3.584   2.688   8.077  0.7762 -0.7688 -0.1418
 4036TIP3   OH233742   3.065   1.810   1.578  0.6945 -0.1993 -0.3059
 4036TIP3    H133743   3.145   1.831   1.530  0.6727 -1.4411 -0.9244
 4036TIP3    H233744   3.013   1.760   1.516  0.6296 -1.7662  0.9797
 4037TIP3   OH233745   3.029   6.038   0.240  0.0666 -0.2700 -0.1248
 4037TIP3    H133746   3.114   6.041   0.196 -0.7609 -0.2464 -1.7238
 4037TIP3    H233747   3.046   6.077   0.326  1.6927 -0.3490 -0.3885
 4038TIP3   OH233748   2.059   1.196   1.659  0.5805  0.2000  0.2552
 4038TIP3    H133749   2.016   1.209   1.575 -0.1530  0.6305  0.6962
 4038TIP3    H233750   2.054   1.102   1.675  0.0680  0.2089  0.1562
 4039TIP3   OH233751   2.407   0.577   7.332  0.9615 -0.6233 -0.1831
 4039TIP3    H133752   2.317   0.545   7.332  0.5297  0.5625 -0.3135
 4039TIP3    H233753   2.421   0.610   7.421  1.2105 -0.6489 -0.2112
 4040TIP3   OH233754   4.054   2.657   7.691  0.2677 -0.1466 -0.1195
 4040TIP3    H133755   4.136   2.613   7.715 -0.1272 -0.2752  1.0030
 4040TIP3    H233756   4.027   2.613   7.610  0.1041 -1.6912  0.7409
 4041TIP3   OH233757   1.397   6.283   0.024 -0.4067 -0.3110  0.1604
 4041TIP3    H133758   1.404   6.211  -0.038 -1.5419  0.7126 -1.2012
 4041TIP3    H233759   1.487   6.298   0.055  0.0337 -1.3936 -0.5835
 4042TIP3   OH233760   2.536   1.360   1.321 -0.0431  0.5948  0.5114
 4042TIP3    H133761   2.538   1.441   1.270 -1.1633  0.7642  0.7254
 4042TIP3    H233762   2.443   1.337   1.326  0.4373 -2.2648 -1.9808
 4043TIP3   OH233763   2.621   7.067   2.397  0.0188  0.4011  0.3043
 4043TIP3    H133764   2.565   6.997   2.364 -1.3982  0.4946  2.3574
 4043TIP3    H233765   2.653   7.035   2.481  2.4535  0.6825 -0.4845
 4044TIP3   OH233766   3.058   1.077   0.319 -0.4364 -0.4507  0.2052
 4044TIP3    H133767   3.067   1.007   0.383  1.0457 -1.4919 -1.1015
 4044TIP3    H233768   3.134   1.133   0.334 -1.4327  0.7131  1.0141
 4045TIP3   OH233769   3.980   0.088   1.037 -0.3915 -0.1325 -0.0443
 4045TIP3    H133770   4.019   0.086   0.949  2.6014 -0.6293  1.2144
 4045TIP3    H233771   3.941   0.174   1.045 -0.7760 -0.1265 -1.9106
 4046TIP3   OH233772   2.835   0.087   0.923 -0.1197  0.1525  0.6313
 4046TIP3    H133773   2.770   0.125   0.863 -0.9238 -0.4293  1.1078
 4046TIP3    H233774   2.788   0.078   1.006  0.3693 -0.8741  0.8136
 4047TIP3   OH233775   3.115   6.962   6.658  0.1353  0.0576  0.2163
 4047TIP3    H133776   3.064   6.939   6.580  0.3834 -1.4166  0.4734
 4047TIP3    H233777   3.109   7.057   6.663 -2.7774 -0.1077  0.3627
 4048TIP3   OH233778   2.899   5.347   7.950 -0.7361  0.0966  0.2362
 4048TIP3    H133779   2.837   5.341   8.023  0.6368 -0.3037  1.3864
 4048TIP3    H233780   2.899   5.440   7.927 -3.0434 -0.1557 -0.9253
 4049TIP3   OH233781   2.827   7.274   0.445 -0.0435  0.0266  0.4441
 4049TIP3    H133782   2.811   7.221   0.524  0.5307  0.5843  0.9433
 4049TIP3    H233783   2.922   7.284   0.443 -0.0734  0.1473 -0.2398
 4050TIP3   OH233784   3.089   2.634   7.743 -0.6261  0.6997  0.3614
 4050TIP3    H133785   3.021   2.700   7.733 -0.4228  0.8301 -0.1920
 4050TIP3    H233786   3.042   2.553   7.764 -0.9653  0.7491 -0.2012
 4051TIP3   OH233787   2.227   1.705   8.383  0.0452 -0.3430 -0.4017
 4051TIP3    H133788   2.287   1.774   8.411  0.3950 -0.5321 -0.6849
 4051TIP3    H233789   2.185   1.676   8.464 -2.0699  2.0074 -0.5833
 4052TIP3   OH233790   3.165   0.766   0.135  0.6959 -0.5493  0.1319
 4052TIP3    H133791   3.202   0.746   0.221  0.5802  2.3797  0.8954
 4052TIP3    H233792   3.231   0.820   0.092  0.0271 -0.5827 -0.9767
 4053TIP3   OH233793   4.998   0.608   1.195 -0.1311 -0.6551  0.2955
 4053TIP3    H133794   4.907   0.580   1.192 -0.1280 -0.6704  0.3788
 4053TIP3    H233795   5.048   0.529   1.214 -0.1858 -0.4594  1.2371
 4054TIP3   OH233796   3.500   1.486   2.070 -0.0546  0.3230  0.0500
 4054TIP3    H133797   3.553   1.408   2.083  0.0585  0.2719 -0.6785
 4054TIP3    H233798   3.423   1.473   2.125  0.6000  0.3150  0.9685
 4055TIP3   OH233799   2.560   7.141   0.084 -0.1911  0.8507  0.1588
 4055TIP3    H133800   2.612   7.157   0.004  1.3549  2.4100  1.4303
 4055TIP3    H233801   2.507   7.064   0.063  2.5951 -0.7868 -1.2166
 4056TIP3   OH233802   4.516   0.827   1.439  0.0029  0.5308  0.0266
 4056TIP3    H133803   4.454   0.810   1.368  1.6859  0.0454 -1.3915
 4056TIP3    H233804   4.527   0.743   1.482 -0.2961  0.6132  0.2674
 4057TIP3   OH233805   4.504   1.084   7.546  0.1504 -0.2634 -0.1172
 4057TIP3    H133806   4.555   1.003   7.536  1.0112 -0.2624  3.5724
 4057TIP3    H233807   4.422   1.065   7.501  0.6431 -2.9260 -0.0151
 4058TIP3   OH233808   2.912   5.281   6.616  0.3445 -0.3170  0.0063
 4058TIP3    H133809   2.993   5.314   6.578  0.2028 -0.5704 -0.5218
 4058TIP3    H233810   2.907   5.190   6.587 -1.6480  0.5454 -2.5292
 4059TIP3   OH233811   3.227   0.851   1.327  0.4708 -0.4814 -0.1083
 4059TIP3    H133812   3.136   0.820   1.333 -0.1650  1.5048  1.1189
 4059TIP3    H233813   3.280   0.774   1.344 -1.0329 -1.2779  1.1669
 4060TIP3   OH233814   3.764   1.902   8.133  0.3845  0.2529 -0.0689
 4060TIP3    H133815   3.740   1.831   8.074  0.7552 -0.2182  0.3379
 4060TIP3    H233816   3.827   1.955   8.084 -0.1999  0.5417 -0.5215
 4061TIP3   OH233817   2.986   4.234   8.128 -0.2514 -0.1246  0.3217
 4061TIP3    H133818   2.936   4.315   8.134 -1.3237 -0.8122  1.1741
 4061TIP3    H233819   2.918   4.165   8.125  0.6364 -1.0395  0.8637
 4062TIP3   OH233820   2.582   0.177   7.158 -0.1084 -0.6199 -0.0013
 4062TIP3    H133821   2.494   0.192   7.195 -0.1823 -0.7615 -0.1183
 4062TIP3    H233822   2.577   0.214   7.070 -0.6604 -2.3677 -0.7259
 4063TIP3   OH233823   2.393   6.851   0.570 -0.3420 -0.0346 -0.0852
 4063TIP3    H133824   2.362   6.767   0.605  0.2261 -0.7691 -1.2937
 4063TIP3    H233825   2.470   6.828   0.517  0.9513  1.4934  1.0898
 4064TIP3   OH233826   4.598   1.351   0.365 -0.6820 -0.2002  0.3456
 4064TIP3    H133827   4.548   1.408   0.306 -1.5160 -3.1724 -1.9030
 4064TIP3    H233828   4.549   1.269   0.368  1.1317 -1.2830  2.5710
 4065TIP3   OH233829   4.037   0.897   6.967  0.1478  0.4753  0.0142
 4065TIP3    H133830   4.122   0.862   6.942 -0.0754  0.7916 -1.2165
 4065TIP3    H233831   4.020   0.967   6.905 -0.4855  1.2069  0.9833
 4066TIP3   OH233832   1.545   2.403   1.977 -1.0424  0.1265  0.1041
 4066TIP3    H133833   1.604   2.341   1.933 -1.0436  0.8602 -0.9598
 4066TIP3    H233834   1.469   2.409   1.918 -0.9073  1.3681  0.0562
 4067TIP3   OH233835   2.538   1.327   0.230  0.0587  0.4094  0.1223
 4067TIP3    H133836   2.524   1.390   0.160  0.7964  0.5917  0.1339
 4067TIP3    H233837   2.632   1.330   0.246 -0.0520  0.0717  0.8426
 4068TIP3   OH233838   1.684   6.567   0.026 -0.1506  0.2267  0.1682
 4068TIP3    H133839   1.677   6.480  -0.012  1.1679  0.1828  0.0087
 4068TIP3    H233840   1.645   6.559   0.113 -0.6531 -0.3454 -0.1058
 4069TIP3   OH233841   5.651   0.100   0.745  0.1052  0.1271  0.1529
 4069TIP3    H133842   5.732   0.121   0.699 -0.3438  1.3855 -0.0927
 4069TIP3    H233843   5.639   0.172   0.807 -1.3159  0.4535 -0.4753
 4070TIP3   OH233844   0.935   7.167   0.609  0.2221 -0.5887  0.7003
 4070TIP3    H133845   0.865   7.129   0.661  0.3398 -1.3439  0.3053
 4070TIP3    H233846   1.007   7.104   0.614 -0.1711 -1.2480 -1.3379
 4071TIP3   OH233847   1.302   3.779   0.709  0.6268 -0.0128 -0.0889
 4071TIP3    H133848   1.207   3.766   0.707  0.3526  1.8337 -0.1616
 4071TIP3    H233849   1.319   3.815   0.796  0.9585  1.7014 -0.8473
 4072TIP3   OH233850   2.077   1.598   1.698  0.0081 -0.1796 -0.5935
 4072TIP3    H133851   2.060   1.690   1.718  0.3248 -0.3197  0.3287
 4072TIP3    H233852   2.164   1.581   1.732 -0.1048 -0.8638 -0.6384
 4073TIP3   OH233853   3.353   1.803   1.155 -0.3065  0.5527 -0.8300
 4073TIP3    H133854   3.378   1.740   1.222  0.9691  0.6713 -1.1881
 4073TIP3    H233855   3.259   1.817   1.169 -0.0356  0.6479  0.9960
 4074TIP3   OH233856   1.684   6.117   0.564 -0.1472  0.0387 -0.2909
 4074TIP3    H133857   1.674   6.067   0.483 -0.6220 -0.5741  0.1364
 4074TIP3    H233858   1.739   6.061   0.620  1.5139  1.1620 -0.7690
 4075TIP3   OH233859   2.206   1.119   0.466 -0.1143 -0.5024 -0.3447
 4075TIP3    H133860   2.210   1.031   0.428  2.0083 -0.2574 -0.7354
 4075TIP3    H233861   2.209   1.105   0.560 -0.2072 -0.8667 -0.3960
 4076TIP3   OH233862   1.091   2.298   2.282 -0.0113 -0.0812 -0.1154
 4076TIP3    H133863   1.058   2.337   2.364 -0.2821  0.3514 -0.4291
 4076TIP3    H233864   1.029   2.327   2.215 -1.4640 -2.8255 -0.0364
 4077TIP3   OH233865   2.104   1.526   2.612  0.5516 -0.7234  0.4262
 4077TIP3    H133866   2.092   1.521   2.707  0.2039 -0.9624  0.3732
 4077TIP3    H233867   2.117   1.619   2.594  0.0221 -0.6042  0.6439
 4078TIP3   OH233868   5.284   1.185   6.816  0.9867 -0.0035 -0.2259
 4078TIP3    H133869   5.360   1.158   6.869  1.5855  0.2995 -0.9292
 4078TIP3    H233870   5.240   1.251   6.870  1.3598  0.0034  0.0765
 4079TIP3   OH233871   2.863   1.666   0.422 -0.9424  0.4553 -0.3298
 4079TIP3    H133872   2.882   1.671   0.516 -0.1057  1.0456 -0.5276
 4079TIP3    H233873   2.774   1.629   0.418 -0.2962 -1.2532  0.6373
 4080TIP3   OH233874   1.876   0.963   8.187  0.0466 -0.4401  0.1592
 4080TIP3    H133875   1.915   0.887   8.144  1.1152  0.0486  0.2455
 4080TIP3    H233876   1.817   0.926   8.253  0.9962 -1.1917  0.5880
 4081TIP3   OH233877   4.108   1.432   8.333 -0.1020 -0.4465  0.1463
 4081TIP3    H133878   4.109   1.526   8.312 -2.2852 -0.1926  0.9756
 4081TIP3    H233879   4.193   1.400   8.304  0.0451  1.4659 -1.6874
 4082TIP3   OH233880   2.837   0.220   1.957 -0.3472  0.3362  0.0348
 4082TIP3    H133881   2.746   0.206   1.981 -0.2456  0.3492  0.4325
 4082TIP3    H233882   2.888   0.177   2.026 -0.0515  0.8351  0.1345
 4083TIP3   OH233883   3.803   1.631   1.133 -0.2483 -0.1138 -0.0208
 4083TIP3    H133884   3.865   1.610   1.064  0.2109  2.2333 -0.3731
 4083TIP3    H233885   3.717   1.630   1.090  0.2202  3.3241 -1.1542
 4084TIP3   OH233886   2.390   1.859   1.852  0.3989 -0.1554  0.2854
 4084TIP3    H133887   2.408   1.918   1.780  1.6232  0.8060  1.3635
 4084TIP3    H233888   2.303   1.886   1.884 -0.0050 -0.3809 -0.6041
 4085TIP3   OH233889   3.553   0.591   1.246  0.0418 -0.1563  0.4891
 4085TIP3    H133890   3.528   0.517   1.190 -0.5718  0.0565  0.4794
 4085TIP3    H233891   3.618   0.639   1.195  1.0353 -1.1221  0.8131
 4086TIP3   OH233892   3.327   7.042   0.463  0.4277  0.7396  0.1677
 4086TIP3    H133893   3.269   6.987   0.410  0.8129 -0.5454  1.0521
 4086TIP3    H233894   3.370   6.980   0.523  0.2414  2.1156  1.7543
 4087TIP3   OH233895   1.509   7.041   6.713  0.0025  0.5691  0.3830
 4087TIP3    H133896   1.488   7.106   6.645  0.5248  2.3912  1.9160
 4087TIP3    H233897   1.445   7.058   6.782 -1.7313 -2.5182 -0.3960
 4088TIP3   OH233898   3.965   1.224   1.253 -0.8541 -0.4592 -0.0050
 4088TIP3    H133899   3.935   1.295   1.196 -2.1985 -0.4133  0.7414
 4088TIP3    H233900   4.043   1.259   1.295 -0.5893 -0.0159 -0.8457
 4089TIP3   OH233901   3.077   0.994   8.426 -0.6538 -0.0496 -0.0681
 4089TIP3    H133902   3.104   1.069   8.479 -1.9027  0.0787  0.4135
 4089TIP3    H233903   3.158   0.962   8.387  0.3624 -0.3595  2.2094
 4090TIP3   OH233904   3.644   1.381   8.439  0.2595 -0.9930 -0.0446
 4090TIP3    H133905   3.670   1.375   8.347  0.2162 -1.2974 -0.0373
 4090TIP3    H233906   3.574   1.446   8.440  2.9964  2.0653  0.3678
 4091TIP3   OH233907   3.277   6.991   1.519  0.4132  0.2653  0.7613
 4091TIP3    H133908   3.303   6.998   1.611  0.8741 -0.4522  0.6882
 4091TIP3    H233909   3.181   6.997   1.521  0.3958 -0.0857  1.3228
 4092TIP3   OH233910   2.290   6.904   2.176  0.3400 -0.2390 -0.2468
 4092TIP3    H133911   2.340   6.941   2.104  0.2060  0.5323  0.0481
 4092TIP3    H233912   2.356   6.864   2.233  0.6244  0.6934  0.0922
 4093TIP3   OH233913   2.836   7.119   0.683  0.6187 -0.4769 -0.2908
 4093TIP3    H133914   2.809   7.039   0.728 -2.3392  2.0494  2.7377
 4093TIP3    H233915   2.905   7.155   0.739 -2.0401  1.9206  1.5772
 4094TIP3   OH233916   2.110   0.444   1.526 -0.2034 -0.6499  0.3742
 4094TIP3    H133917   2.035   0.387   1.539  1.1149 -1.9302  2.6960
 4094TIP3    H233918   2.174   0.389   1.479  0.8856 -0.9682  2.1865
 4095TIP3   OH233919   3.225   4.909   1.556 -0.0483 -0.3330 -0.2031
 4095TIP3    H133920   3.193   4.978   1.615  0.7158 -0.4526  0.3585
 4095TIP3    H233921   3.239   4.954   1.473  0.1431  0.1206  0.0701
 4096TIP3   OH233922   6.821   0.117   0.409  0.3788 -0.2543  0.3901
 4096TIP3    H133923   6.858   0.189   0.460 -0.5828  0.0213  0.6972
 4096TIP3    H233924   6.759   0.158   0.350  0.6140 -0.7139 -0.1847
 4097TIP3   OH233925   3.194   6.736   1.926  0.2305  0.1334 -0.0412
 4097TIP3    H133926   3.231   6.693   1.849 -0.7896 -1.4839  0.3624
 4097TIP3    H233927   3.263   6.732   1.992  0.2923 -0.4627 -0.1481
 4098TIP3   OH233928   0.917   1.079   1.406  0.2522 -0.4682 -0.3024
 4098TIP3    H133929   0.961   1.002   1.442 -1.0834 -1.2462 -0.2836
 4098TIP3    H233930   0.829   1.076   1.444  0.3376  1.3612  0.1099
 4099TIP3   OH233931   2.676   1.215   8.097  0.6019 -0.3196 -0.4729
 4099TIP3    H133932   2.765   1.221   8.132  0.0317 -1.2383  1.2038
 4099TIP3    H233933   2.640   1.136   8.138 -1.4382  0.7686 -0.1069
 4100TIP3   OH233934   6.908   1.207   1.650  0.7504  0.0459 -0.6302
 4100TIP3    H133935   6.871   1.145   1.588  1.6770 -2.4849  1.2179
 4100TIP3    H233936   6.844   1.277   1.656 -2.5797 -2.9354  0.5523
 4101TIP3   OH233937   2.327   2.584   1.696  0.2722  0.0111 -0.1063
 4101TIP3    H133938   2.266   2.551   1.630  0.0031 -3.3505  1.7236
 4101TIP3    H233939   2.272   2.607   1.771  1.0892 -2.0704  1.1756
 4102TIP3   OH233940   3.118   1.262   2.013 -0.2810  0.2356 -0.0924
 4102TIP3    H133941   3.091   1.174   2.040 -0.3413 -0.1738 -1.4632
 4102TIP3    H233942   3.212   1.255   2.001 -0.0647  0.7442  1.1961
 4103TIP3   OH233943   2.099   0.806   0.636  0.1454 -0.5321 -0.1521
 4103TIP3    H133944   2.149   0.851   0.704  1.0405 -0.0754 -1.0971
 4103TIP3    H233945   2.165   0.772   0.576 -0.6690  0.1139 -1.4401
 4104TIP3   OH233946   3.399   1.189   2.000  0.2043  0.1329  0.4876
 4104TIP3    H133947   3.416   1.096   2.010 -1.1578 -0.2186 -0.3321
 4104TIP3    H233948   3.474   1.232   2.041  0.8127 -1.3155  0.9136
 4105TIP3   OH233949   3.137   5.888   8.011  0.3240 -0.0198 -0.3881
 4105TIP3    H133950   3.204   5.902   8.078  1.3517  0.4737 -1.5015
 4105TIP3    H233951   3.184   5.896   7.928 -1.0973  0.2577 -1.1827
 4106TIP3   OH233952   3.495   6.985   8.121 -0.0528 -0.1562 -0.0271
 4106TIP3    H133953   3.439   6.927   8.173  0.3407 -1.7491 -1.3270
 4106TIP3    H233954   3.439   7.016   8.051 -0.0879  0.5623  0.3131
 4107TIP3   OH233955   5.290   6.517   1.085  0.5738  0.1361  0.2064
 4107TIP3    H133956   5.380   6.549   1.096  0.4012  1.2586 -1.5839
 4107TIP3    H233957   5.235   6.595   1.094 -0.1446 -0.3420  0.0162
 4108TIP3   OH233958   3.303   1.793   2.095 -0.4005 -0.2452 -0.2761
 4108TIP3    H133959   3.220   1.775   2.139 -0.7154 -0.7422 -1.0633
 4108TIP3    H233960   3.353   1.712   2.105  0.2300  0.2514  0.7045
 4109TIP3   OH233961   3.203   2.066   7.219  0.0116 -0.5865 -0.0209
 4109TIP3    H133962   3.112   2.039   7.233  0.0315 -0.4438  0.3927
 4109TIP3    H233963   3.203   2.105   7.132 -0.7554  1.2736  0.7875
 4110TIP3   OH233964   2.633   0.411   1.733 -0.3307  0.5451  0.1653
 4110TIP3    H133965   2.649   0.440   1.823 -0.6909 -0.6708  0.6322
 4110TIP3    H233966   2.578   0.333   1.742  0.0796  0.0927 -1.0830
 4111TIP3   OH233967   4.127   6.738   0.300 -0.3573 -0.2520 -0.0582
 4111TIP3    H133968   4.086   6.705   0.220 -3.5399  2.2061  0.4766
 4111TIP3    H233969   4.099   6.830   0.305  0.0597 -0.2771  3.7187
 4112TIP3   OH233970   2.350   5.358   8.106  0.6510  0.3134 -0.3273
 4112TIP3    H133971   2.325   5.362   8.014 -0.5376  0.7998  0.0073
 4112TIP3    H233972   2.269   5.376   8.154  1.2336 -0.0476  0.8163
 4113TIP3   OH233973   3.728   0.264   2.061 -0.2197 -0.4714  0.1429
 4113TIP3    H133974   3.795   0.329   2.037  0.4664 -0.8366  1.0341
 4113TIP3    H233975   3.658   0.316   2.100 -0.4027 -0.1000 -0.6566
 4114TIP3   OH233976   3.654   1.140   1.717  0.8103  0.0343  0.4900
 4114TIP3    H133977   3.710   1.111   1.645 -0.5185 -1.1107 -0.0975
 4114TIP3    H233978   3.654   1.067   1.779  0.6324  0.3563  0.8707
 4115TIP3   OH233979   2.279   0.201   1.947 -0.1004 -0.2784  0.1392
 4115TIP3    H133980   2.216   0.268   1.972  0.0297 -0.6580  1.5308
 4115TIP3    H233981   2.246   0.120   1.987  0.9052 -0.6080  0.3155
 4116TIP3   OH233982   4.247   5.467   0.381 -0.0420 -0.1569 -0.4628
 4116TIP3    H133983   4.164   5.446   0.338  0.9316 -1.8399 -1.5786
 4116TIP3    H233984   4.222   5.490   0.471 -1.6941 -0.8660 -0.7150
 4117TIP3   OH233985   4.365   1.973   8.145 -0.2963  0.0922 -0.2382
 4117TIP3    H133986   4.447   1.958   8.192 -1.1488 -0.3509  1.1341
 4117TIP3    H233987   4.387   1.959   8.053  0.9185 -1.1283  0.2199
 4118TIP3   OH233988   3.156   2.837   0.925  0.1052  0.2364 -0.2205
 4118TIP3    H133989   3.093   2.827   0.854 -1.4258 -0.1682  1.1775
 4118TIP3    H233990   3.103   2.857   1.002  1.5960 -1.1639  1.2066
 4119TIP3   OH233991   2.127   1.047   0.790  0.6346 -0.2531 -0.4881
 4119TIP3    H133992   2.211   1.092   0.785 -0.9454  3.2068  1.6486
 4119TIP3    H233993   2.118   1.022   0.882 -1.0298  0.2454 -0.4859
 4120TIP3   OH233994   4.110   0.363   1.506 -0.6019 -0.0933  0.3914
 4120TIP3    H133995   4.168   0.302   1.460 -2.1781 -1.7675  0.5672
 4120TIP3    H233996   4.099   0.325   1.593 -0.4993  1.1734  0.9628
 4121TIP3   OH233997   2.902   7.114   0.220  0.3754 -0.6345  0.4503
 4121TIP3    H133998   2.854   7.181   0.269  1.4233 -1.1650  2.2520
 4121TIP3    H233999   2.861   7.113   0.134  0.7031  2.7615  0.1712
 4122TIP3   OH234000   3.709   1.956   0.517 -0.2614 -0.3948  0.1255
 4122TIP3    H134001   3.669   1.997   0.594 -0.2479  0.0127 -0.0827
 4122TIP3    H234002   3.786   2.009   0.499  1.7453 -2.5349  1.9293
 4123TIP3   OH234003   5.279   7.170   7.367  0.0820 -0.2429 -0.2128
 4123TIP3    H134004   5.373   7.160   7.350  0.0208  1.2982 -1.5838
 4123TIP3    H234005   5.238   7.100   7.316  0.4444 -0.5620 -0.0689
 4124TIP3   OH234006   0.444   6.735   7.761  0.0145 -0.0105 -0.6240
 4124TIP3    H134007   0.387   6.740   7.838  0.2823  1.5715 -0.5133
 4124TIP3    H234008   0.415   6.808   7.706  0.7775 -0.2709 -1.3678
 4125TIP3   OH234009   1.877   1.278   1.451 -0.0073 -0.9528  0.3480
 4125TIP3    H134010   1.929   1.358   1.453 -0.1413 -0.8856  1.5677
 4125TIP3    H234011   1.795   1.301   1.494 -0.2000 -1.6324  0.3598
 4126TIP3   OH234012   1.574   1.092   1.413  0.3953 -0.0276 -0.8214
 4126TIP3    H134013   1.577   1.008   1.460 -0.4170 -0.0863 -0.8642
 4126TIP3    H234014   1.613   1.154   1.474 -0.9956 -0.0302  0.1246
 4127TIP3   OH234015   4.733   2.973   1.520 -0.1715  0.4102  0.1511
 4127TIP3    H134016   4.676   2.915   1.569  1.3917 -1.2890  0.0052
 4127TIP3    H234017   4.780   3.023   1.587 -0.6625  0.6691  0.3001
 4128TIP3   OH234018   1.829   7.090   1.460 -0.8557 -0.0135  0.6753
 4128TIP3    H134019   1.788   7.029   1.400 -1.4521 -1.0093  2.0784
 4128TIP3    H234020   1.756   7.130   1.508 -0.4332  1.3216  0.2344
 4129TIP3   OH234021   4.942   1.637   0.969  0.5993  0.6260  0.2316
 4129TIP3    H134022   4.848   1.621   0.968  0.7255 -0.0985 -0.3149
 4129TIP3    H234023   4.981   1.551   0.979  1.1821  1.0699  2.1582
 4130TIP3   OH234024   4.535   0.053   2.469  0.1988  0.0355  0.1877
 4130TIP3    H134025   4.592   0.034   2.543 -1.0227 -1.2440  0.8323
 4130TIP3    H234026   4.534   0.148   2.462  1.0449  0.1216  1.2499
 4131TIP3   OH234027   3.251   2.597   1.064  0.5689 -0.5830  0.1467
 4131TIP3    H134028   3.197   2.617   0.988  0.9285 -1.4326 -0.3340
 4131TIP3    H234029   3.321   2.541   1.031  0.0323 -1.9952  1.3077
 4132TIP3   OH234030   3.158   2.202   7.586  0.8010 -0.2356  0.4773
 4132TIP3    H134031   3.138   2.231   7.675  0.9853 -0.6915  0.6682
 4132TIP3    H234032   3.162   2.283   7.535  0.2962 -0.0002  0.8008
 4133TIP3   OH234033   2.964   2.394   7.770  0.9918  1.2816  0.9289
 4133TIP3    H134034   2.877   2.372   7.804 -0.6179  1.6907 -2.6737
 4133TIP3    H234035   3.022   2.330   7.810 -1.6891 -1.7517  0.1792
 4134TIP3   OH234036   3.349   2.404   0.537 -0.8822 -0.4477 -0.3057
 4134TIP3    H134037   3.434   2.363   0.554 -0.4698  0.8409  0.9014
 4134TIP3    H234038   3.295   2.380   0.613 -0.8392  0.6762  0.0922
 4135TIP3   OH234039   1.797   2.796   1.292  0.0959  0.2520 -0.1927
 4135TIP3    H134040   1.718   2.847   1.309 -0.2397 -0.3056 -0.0914
 4135TIP3    H234041   1.868   2.854   1.318 -0.2409  1.0548 -1.0348
 4136TIP3   OH234042   2.224   6.747   1.025  0.1836 -0.4770  0.4145
 4136TIP3    H134043   2.248   6.815   1.088  1.6342 -0.6921  0.1036
 4136TIP3    H234044   2.155   6.787   0.972 -1.5371 -0.5364  2.5473
 4137TIP3   OH234045   1.570   0.844   1.851  0.3709 -0.4269 -0.0163
 4137TIP3    H134046   1.478   0.821   1.866  0.2720 -0.9134 -1.2768
 4137TIP3    H234047   1.613   0.827   1.935 -0.8656  0.7909  0.8884
 4138TIP3   OH234048   3.627   0.408   0.705  0.3573  0.5380  0.1696
 4138TIP3    H134049   3.577   0.358   0.641 -2.2444 -0.8764  3.1581
 4138TIP3    H234050   3.582   0.492   0.711  0.1970  0.4236  0.6015
 4139TIP3   OH234051   2.622   7.160   7.707  0.3184  0.0703  0.2783
 4139TIP3    H134052   2.690   7.181   7.642  0.5852 -1.9543 -0.1211
 4139TIP3    H234053   2.567   7.239   7.710  0.4203  0.2794 -2.2469
 4140TIP3   OH234054   3.444   0.370   1.091 -0.6220 -0.0898 -0.0645
 4140TIP3    H134055   3.513   0.304   1.086  0.1530  0.8237 -2.2387
 4140TIP3    H234056   3.375   0.329   1.143  0.3696 -2.1095 -0.2844
 4141TIP3   OH234057   4.083   2.026   1.816 -0.2534  0.2011 -0.3851
 4141TIP3    H134058   3.994   2.060   1.811 -0.7428 -1.2290 -2.0352
 4141TIP3    H234059   4.118   2.039   1.728  1.1677  0.7285  0.2419
 4142TIP3   OH234060   2.408   7.178   7.393  0.1831 -0.2709  0.1082
 4142TIP3    H134061   2.354   7.247   7.355 -0.7689 -0.0263  1.8673
 4142TIP3    H234062   2.447   7.219   7.470  2.3627 -0.6531 -0.7607
 4143TIP3   OH234063   2.884   6.083   1.900 -0.1794 -0.3508  0.1908
 4143TIP3    H134064   2.882   6.042   1.814  1.9378  0.8459 -0.4689
 4143TIP3    H234065   2.828   6.028   1.954 -1.2684 -1.3075 -1.8650
 4144TIP3   OH234066   2.420   0.056   1.235  0.1030 -0.4825 -0.1315
 4144TIP3    H134067   2.441   0.134   1.286  0.4777 -1.7231  1.6435
 4144TIP3    H234068   2.383   0.091   1.154  0.6043  1.5477  0.4618
 4145TIP3   OH234069   2.216   7.047   0.935  0.0506  0.0974 -0.7244
 4145TIP3    H134070   2.204   7.030   1.028 -1.1983 -0.5160 -0.9930
 4145TIP3    H234071   2.303   7.088   0.929  0.1445  0.1164  0.6944
 4146TIP3   OH234072   4.001   5.944   8.202 -0.2072 -0.2374  0.1124
 4146TIP3    H134073   4.074   5.962   8.143  0.9701  0.5591  1.7556
 4146TIP3    H234074   3.952   5.874   8.160  1.8360 -1.1832 -0.7651
 4147TIP3   OH234075   2.799   0.327   1.185  0.2613  0.1340 -0.1002
 4147TIP3    H134076   2.884   0.287   1.167 -1.4919 -3.3770 -0.9823
 4147TIP3    H234077   2.771   0.288   1.268 -1.9110 -1.2238 -1.4403
 4148TIP3   OH234078   2.412   6.703   7.377  0.9063  0.3170 -0.0983
 4148TIP3    H134079   2.420   6.695   7.472  0.8556  2.0791  0.0656
 4148TIP3    H234080   2.452   6.787   7.356  0.7347  0.0378 -1.6198
 4149TIP3   OH234081   1.452   7.120   0.840 -0.1098 -0.5878  0.1624
 4149TIP3    H134082   1.375   7.103   0.787 -1.0225 -0.9260  1.5548
 4149TIP3    H234083   1.518   7.150   0.778 -2.2364  2.6135 -0.7354
 4150TIP3   OH234084   2.108   3.497   1.418  0.1853 -0.1523  0.0736
 4150TIP3    H134085   2.036   3.486   1.356  0.1141  1.0978 -0.0847
 4150TIP3    H234086   2.184   3.513   1.363  0.6807 -1.9142  0.2270
 4151TIP3   OH234087   4.344   1.719   1.057  0.4217  0.0212 -0.1695
 4151TIP3    H134088   4.308   1.765   1.132  0.4667 -1.9702  1.1281
 4151TIP3    H234089   4.438   1.715   1.074  0.3594 -0.9624 -0.0140
 4152TIP3   OH234090   2.730   7.318   1.742  0.1407  0.0648  0.0624
 4152TIP3    H134091   2.803   7.284   1.794 -1.7993  0.9908  3.5337
 4152TIP3    H234092   2.720   7.409   1.770 -1.8582  0.1746 -0.9009
 4153TIP3   OH234093   2.503   0.574   2.523  0.1413 -0.8115 -0.0135
 4153TIP3    H134094   2.414   0.543   2.535  0.2755 -1.4484 -0.6618
 4153TIP3    H234095   2.534   0.529   2.445  1.0665 -0.6697  0.2669
 4154TIP3   OH234096   2.359   2.009   7.602  0.0027 -0.3347  0.3083
 4154TIP3    H134097   2.328   2.099   7.586  0.0293  0.0091  2.1400
 4154TIP3    H234098   2.427   2.019   7.668  2.3393 -1.3684 -1.8760
 4155TIP3   OH234099   3.093   7.151   1.064 -0.0319  0.1529 -0.0919
 4155TIP3    H134100   3.053   7.118   1.145 -0.3889  0.7645 -0.0165
 4155TIP3    H234101   3.170   7.096   1.051 -0.4456 -0.5067  0.2050
 4156TIP3   OH234102   4.461   1.996   1.752  0.1470 -0.5411 -0.3167
 4156TIP3    H134103   4.393   1.998   1.685  0.0577 -0.8073 -0.2374
 4156TIP3    H234104   4.421   1.948   1.825 -0.4194  1.4062  0.6668
 4157TIP3   OH234105   5.652   1.366   8.192  0.3926  0.3653 -0.1984
 4157TIP3    H134106   5.684   1.409   8.272 -0.2116 -0.6746  0.6076
 4157TIP3    H234107   5.693   1.279   8.193 -1.7178 -0.6514  0.3767
 4158TIP3   OH234108   5.645   6.887   1.505  0.8474 -0.1496 -0.0984
 4158TIP3    H134109   5.612   6.798   1.497 -0.0828  0.0398  1.2379
 4158TIP3    H234110   5.566   6.941   1.507  1.4617  1.1531 -5.1161
 4159TIP3   OH234111   2.412   0.632   8.234  0.1869 -0.1945 -0.2153
 4159TIP3    H134112   2.411   0.551   8.285  0.7463  0.3335  0.6398
 4159TIP3    H234113   2.413   0.602   8.143 -0.9903 -1.1426  0.0612
 4160TIP3   OH234114   3.053   2.208   2.222  0.2769  0.5183  0.0927
 4160TIP3    H134115   3.112   2.280   2.198  1.4818 -0.6550 -0.5105
 4160TIP3    H234116   3.102   2.157   2.286 -0.6420  0.3068  0.6362
 4161TIP3   OH234117   4.949   0.135   7.539  0.1194 -0.3570 -0.2787
 4161TIP3    H134118   5.012   0.101   7.475 -0.1372  1.1285 -1.3409
 4161TIP3    H234119   4.938   0.227   7.515 -0.5597  0.0313  1.4468
 4162TIP3   OH234120   3.732   6.679   8.142  0.1297  0.0242 -0.0551
 4162TIP3    H134121   3.722   6.677   8.237 -1.2663  1.1416 -0.1540
 4162TIP3    H234122   3.808   6.735   8.127  0.9560 -0.9425  0.4127
 4163TIP3   OH234123   2.619   0.959   6.862 -0.6344 -0.5030 -0.2173
 4163TIP3    H134124   2.576   0.900   6.800 -2.0389 -0.4906  0.7074
 4163TIP3    H234125   2.662   0.901   6.925 -1.2793 -0.5470  0.1909
 4164TIP3   OH234126   3.083   4.677   1.452 -0.1346  0.0441 -0.2640
 4164TIP3    H134127   3.040   4.757   1.422 -0.0604  0.4679  0.7282
 4164TIP3    H234128   3.151   4.708   1.512 -1.4149 -0.8507  1.6931
 4165TIP3   OH234129   5.330   0.463   8.021 -0.7393  0.5939 -0.8480
 4165TIP3    H134130   5.400   0.399   8.033  0.0333  1.5154 -0.3804
 4165TIP3    H234131   5.256   0.426   8.068 -0.3458 -0.0245 -0.7032
 4166TIP3   OH234132   5.825   0.630   7.874  0.1033  0.1990 -0.8022
 4166TIP3    H134133   5.814   0.635   7.969 -0.7358  0.5614 -0.9120
 4166TIP3    H234134   5.795   0.542   7.852  0.5692  0.0123 -0.6992
 4167TIP3   OH234135   4.882   6.489   1.080 -0.1754 -0.1048 -0.8462
 4167TIP3    H134136   4.833   6.545   1.021 -1.5894 -1.5192 -1.0446
 4167TIP3    H234137   4.913   6.547   1.149 -0.1353  1.2097 -1.9587
 4168TIP3   OH234138   3.916   1.318   1.714  0.1792  0.2443  0.2215
 4168TIP3    H134139   3.995   1.327   1.660  0.6256 -0.6382  0.7186
 4168TIP3    H234140   3.858   1.261   1.663  0.8429 -1.0787  0.9334
 4169TIP3   OH234141   0.338   0.549   0.902 -0.0170 -0.5363  0.2322
 4169TIP3    H134142   0.375   0.509   0.981 -0.0082 -0.7359  0.1288
 4169TIP3    H234143   0.247   0.518   0.900 -0.5497  0.9208  1.1355
 4170TIP3   OH234144   3.841   2.200   0.578  0.2503  0.1763  0.4673
 4170TIP3    H134145   3.928   2.236   0.560 -0.6010  2.5720  1.0317
 4170TIP3    H234146   3.847   2.167   0.667  0.5661  0.3753  0.5212
 4171TIP3   OH234147   3.550   0.657   0.674 -0.1530 -0.1445  0.3910
 4171TIP3    H134148   3.473   0.704   0.644 -0.1194 -0.2983  0.0590
 4171TIP3    H234149   3.597   0.719   0.729 -1.5554 -0.7142  2.2530
 4172TIP3   OH234150   3.232   0.050   1.873  1.1003  0.3123 -0.2739
 4172TIP3    H134151   3.295  -0.019   1.852 -0.5424 -1.3790  0.2287
 4172TIP3    H234152   3.269   0.093   1.950  2.2821  0.2304 -0.7683
 4173TIP3   OH234153   3.404   6.959   1.766  0.1070  0.1548  0.7130
 4173TIP3    H134154   3.423   7.016   1.840 -1.2183 -1.1668  2.1089
 4173TIP3    H234155   3.419   6.871   1.799  2.6326 -0.3462 -1.5698
 4174TIP3   OH234156   2.276   1.307   8.261  0.1955 -0.5938 -0.4633
 4174TIP3    H134157   2.212   1.266   8.202  0.8087 -1.9966 -0.1677
 4174TIP3    H234158   2.291   1.394   8.223 -1.0094 -0.6852 -1.1802
 4175TIP3   OH234159   4.035   0.614   7.311 -0.0955 -0.1820 -0.3250
 4175TIP3    H134160   4.126   0.587   7.323 -0.1536 -0.2945 -0.1403
 4175TIP3    H234161   3.989   0.533   7.290 -0.2485 -0.2045  0.1147
 4176TIP3   OH234162   3.000   1.720   1.838 -0.5451  0.2674  0.2962
 4176TIP3    H134163   2.933   1.787   1.839 -0.0397  0.7726  0.7772
 4176TIP3    H234164   3.035   1.722   1.749 -0.0629  1.1137  0.5032
 4177TIP3   OH234165   5.691   1.636   0.561  0.2725 -0.2457  0.1676
 4177TIP3    H134166   5.731   1.636   0.648 -0.5007  3.0516  0.6202
 4177TIP3    H234167   5.598   1.621   0.577 -0.0971  1.7655  0.1140
 4178TIP3   OH234168   3.857   7.316   0.483 -0.3994 -0.3652 -0.3492
 4178TIP3    H134169   3.842   7.280   0.571 -1.1025 -0.3740 -0.4702
 4178TIP3    H234170   3.818   7.252   0.424  0.4803 -0.5814 -0.6943
 4179TIP3   OH234171   4.295   0.470   7.251  0.1100 -0.3576 -0.3630
 4179TIP3    H134172   4.293   0.429   7.165  1.2098  3.4955 -2.3278
 4179TIP3    H234173   4.387   0.467   7.278  0.2535  0.9992 -0.6566
 4180TIP3   OH234174   5.751   0.885   0.913 -0.4874  0.1341  0.2868
 4180TIP3    H134175   5.738   0.952   0.845  0.5946  1.0410  0.9588
 4180TIP3    H234176   5.826   0.834   0.882 -2.4635 -2.0120 -1.1672
 4181TIP3   OH234177   6.862   7.245   0.930  0.2723  0.0037  0.3554
 4181TIP3    H134178   6.952   7.213   0.929  0.0516 -0.7618  2.4844
 4181TIP3    H234179   6.816   7.191   0.866  1.2781  0.3170 -0.6478
 4182TIP3   OH234180   6.913   0.135   1.076 -0.1351  0.0976  0.2274
 4182TIP3    H134181   6.871   0.053   1.051 -0.0347  0.0330  0.2717
 4182TIP3    H234182   6.846   0.202   1.061 -0.4097 -0.0588  0.7308
 4183TIP3   OH234183   5.293   1.202   1.318  0.6157 -0.2601  0.3011
 4183TIP3    H134184   5.387   1.197   1.301  0.9237  1.3339  1.4868
 4183TIP3    H234185   5.286   1.211   1.413 -0.8016 -1.8797  0.3798
 4184TIP3   OH234186   5.439   2.112   1.337 -0.2362  0.5832 -0.2942
 4184TIP3    H134187   5.422   2.020   1.318  1.4849  0.4299 -1.2173
 4184TIP3    H234188   5.531   2.124   1.313 -0.5997  2.6697 -0.6860
 4185TIP3   OH234189   5.486   0.172   1.524 -0.2204 -0.4080  0.0702
 4185TIP3    H134190   5.488   0.208   1.435  2.3683 -0.6975 -0.0279
 4185TIP3    H234191   5.418   0.105   1.521 -0.7515  0.1680 -1.4754
 4186TIP3   OH234192   6.322   0.384   0.710 -0.2367  0.1542 -0.4069
 4186TIP3    H134193   6.332   0.341   0.795  0.6856 -1.4513 -1.3058
 4186TIP3    H234194   6.400   0.438   0.701  0.2677 -0.6217 -0.7545
 4187TIP3   OH234195   4.600   1.012   0.059  0.3331  0.0157 -0.0351
 4187TIP3    H134196   4.684   1.042   0.092  0.2202  2.1061 -1.5372
 4187TIP3    H234197   4.618   0.981  -0.030 -0.3276 -0.3601 -0.0441
 4188TIP3   OH234198   4.889   2.260   1.967 -0.4164  0.1558  0.0270
 4188TIP3    H134199   4.946   2.194   1.927 -0.9392 -0.0697 -0.3576
 4188TIP3    H234200   4.914   2.260   2.060 -2.9036 -3.3184  0.8298
 4189TIP3   OH234201   6.934   7.230   1.531 -0.5573 -0.1674  0.0003
 4189TIP3    H134202   6.893   7.309   1.565 -3.3636 -1.1419 -0.9436
 4189TIP3    H234203   6.985   7.195   1.604 -1.3774  1.1259  1.2009
 4190TIP3   OH234204   5.124   1.261   2.061  0.3240  0.5301 -0.2219
 4190TIP3    H134205   5.068   1.190   2.090  2.8855 -1.6493 -0.4320
 4190TIP3    H234206   5.177   1.283   2.138  1.6883  0.0810 -1.0195
 4191TIP3   OH234207   4.447   2.397   7.770 -0.9881  0.2201  0.2869
 4191TIP3    H134208   4.539   2.422   7.763 -0.9711 -0.3669 -1.9811
 4191TIP3    H234209   4.399   2.477   7.753 -0.8856  0.0995 -0.6291
 4192TIP3   OH234210   2.887   2.147   1.073 -0.0338  0.5814  0.2391
 4192TIP3    H134211   2.941   2.075   1.104  1.7885  1.5299 -0.6244
 4192TIP3    H234212   2.894   2.213   1.142 -0.3577  0.5794  0.2745
 4193TIP3   OH234213   2.986   3.222   0.333 -0.0783 -0.4438 -0.3947
 4193TIP3    H134214   3.070   3.178   0.351  1.1629  1.4745 -1.3767
 4193TIP3    H234215   2.987   3.300   0.388 -0.9104 -0.0503 -0.9222
 4194TIP3   OH234216   6.721   2.017   2.526  0.4428 -0.6820 -0.3340
 4194TIP3    H134217   6.665   2.052   2.596 -1.6795 -0.5388 -2.0687
 4194TIP3    H234218   6.763   1.940   2.566 -0.3932 -0.3500  1.2356
 4195TIP3   OH234219   3.199   2.432   1.278  0.4704  0.2599 -0.0688
 4195TIP3    H134220   3.170   2.484   1.353  0.3024  1.4598 -0.9566
 4195TIP3    H234221   3.211   2.496   1.208 -0.7330 -1.0295 -1.4787
 4196TIP3   OH234222   6.956   0.698   1.360  0.0046  1.1426  0.1507
 4196TIP3    H134223   6.988   0.618   1.318 -2.5583  0.3208 -0.3269
 4196TIP3    H234224   6.922   0.751   1.288 -1.0449  1.3226  0.7554
 4197TIP3   OH234225   3.217   1.272   0.570  0.1353 -0.1219  0.0755
 4197TIP3    H134226   3.150   1.286   0.638 -0.1565 -1.8807  0.1664
 4197TIP3    H234227   3.232   1.178   0.570  0.4072 -0.0939 -2.0707
 4198TIP3   OH234228   3.567   1.792   0.824  0.0712  0.1713  0.1942
 4198TIP3    H134229   3.581   1.836   0.907 -0.9521  0.0522  0.4414
 4198TIP3    H234230   3.539   1.704   0.847 -0.4956  0.2239 -0.2647
 4199TIP3   OH234231   3.605   2.342   1.875 -0.4957  0.7499 -0.0148
 4199TIP3    H134232   3.642   2.281   1.939  0.4969  1.9959  0.6035
 4199TIP3    H234233   3.512   2.320   1.872 -0.2460 -0.4345  0.6046
 4200TIP3   OH234234   5.692   1.139   7.774 -0.4272  0.2682 -0.4157
 4200TIP3    H134235   5.734   1.063   7.814 -0.2777  0.8578  0.5614
 4200TIP3    H234236   5.612   1.105   7.735 -0.1047 -0.4802 -0.4327
 4201TIP3   OH234237   5.390   0.705   1.254 -0.0732  0.3263 -0.2796
 4201TIP3    H134238   5.317   0.698   1.192  0.9630 -0.5377 -1.4320
 4201TIP3    H234239   5.464   0.734   1.201  0.6780  0.1587  0.6663
 4202TIP3   OH234240   5.051   2.414   1.625 -0.4595  0.0368 -0.3992
 4202TIP3    H134241   5.037   2.504   1.655 -0.8380 -0.2090  0.1930
 4202TIP3    H234242   5.082   2.368   1.703  1.3224  0.0194 -1.1185
 4203TIP3   OH234243   4.031   4.155   1.579  0.8823 -0.2680 -0.3004
 4203TIP3    H134244   4.038   4.060   1.580  1.7078 -0.2091  0.4296
 4203TIP3    H234245   3.977   4.176   1.655 -0.6174 -0.2371 -1.3528
 4204TIP3   OH234246   5.450   1.031   7.747 -0.1610 -0.0826 -0.4099
 4204TIP3    H134247   5.366   1.064   7.778  0.2801 -0.9842  1.8348
 4204TIP3    H234248   5.426   0.961   7.685 -1.0588 -0.3388  0.2185
 4205TIP3   OH234249   3.879   0.935   1.167  0.5597 -0.3135 -0.2840
 4205TIP3    H134250   3.838   1.007   1.119 -0.2495 -0.6063 -0.0463
 4205TIP3    H234251   3.954   0.975   1.211 -0.6012  0.6529  0.8507
 4206TIP3   OH234252   5.331   0.350   2.165 -0.0452 -0.1340  0.3177
 4206TIP3    H134253   5.237   0.367   2.175 -0.3934 -2.1137  0.7252
 4206TIP3    H234254   5.372   0.436   2.169 -1.8270  0.7309  0.3871
 4207TIP3   OH234255   4.393   1.462   7.620  0.1488  0.0076  0.2892
 4207TIP3    H134256   4.342   1.435   7.696 -0.2671  2.9821  1.1343
 4207TIP3    H234257   4.455   1.527   7.655  1.7089 -0.4794 -1.4662
 4208TIP3   OH234258   4.442   1.016   1.837 -0.2139  0.3877  0.3008
 4208TIP3    H134259   4.457   1.066   1.917 -0.5622  2.2135 -0.7460
 4208TIP3    H234260   4.522   0.967   1.823  0.1430  0.6725  1.3467
 4209TIP3   OH234261   2.201   1.245   7.143  0.0619  0.6724 -0.3473
 4209TIP3    H134262   2.163   1.326   7.176  0.3215 -0.2648  2.4231
 4209TIP3    H234263   2.296   1.256   7.156  0.1321  0.1323 -0.3689
 4210TIP3   OH234264   5.382   1.313   8.144 -0.7172  0.4263  0.3516
 4210TIP3    H134265   5.383   1.247   8.214 -1.4677  1.6457  1.5419
 4210TIP3    H234266   5.458   1.368   8.162 -0.0884 -0.1085 -0.6444
 4211TIP3   OH234267   6.349   0.168   1.671 -0.1430 -0.5086  0.5265
 4211TIP3    H134268   6.433   0.209   1.649 -1.0516  0.6122 -0.9699
 4211TIP3    H234269   6.304   0.232   1.726 -0.8096 -0.2565 -0.2950
 4212TIP3   OH234270   3.713   0.964   1.946 -0.0386  1.2337  0.1457
 4212TIP3    H134271   3.623   0.945   1.971  0.7259  0.8534  2.7612
 4212TIP3    H234272   3.749   1.013   2.020  2.2096  0.4518 -0.3783
 4213TIP3   OH234273   4.546   7.021   1.124  1.1613 -0.6674  0.4048
 4213TIP3    H134274   4.613   7.081   1.091  0.8517 -0.0638  0.8749
 4213TIP3    H234275   4.566   6.938   1.082  1.2189 -0.0859 -0.7387
 4214TIP3   OH234276   3.477   6.264   2.099  0.0724  0.0165  0.1776
 4214TIP3    H134277   3.471   6.243   2.006  1.1584  0.2197  0.0525
 4214TIP3    H234278   3.441   6.188   2.144 -0.6816  0.0217 -0.4240
 4215TIP3   OH234279   0.667   0.066   0.388  0.5633  0.3303  0.0877
 4215TIP3    H134280   0.743   0.106   0.430  0.6449 -2.2908  2.5695
 4215TIP3    H234281   0.592   0.095   0.440  0.5582 -2.0988  1.5012
 4216TIP3   OH234282   5.431   1.321   0.196 -0.0920  0.0941  0.1393
 4216TIP3    H134283   5.474   1.306   0.112  0.9991  0.1256  0.6856
 4216TIP3    H234284   5.337   1.310   0.178  0.2708 -1.6378 -0.6928
 4217TIP3   OH234285   5.569   6.674   7.638 -0.1571  0.1686  0.1785
 4217TIP3    H134286   5.643   6.647   7.584 -0.7830 -1.1290 -0.0508
 4217TIP3    H234287   5.564   6.769   7.627  0.3607  0.0417 -1.2221
 4218TIP3   OH234288   2.940   0.561   0.528  0.3119 -0.4083 -0.0499
 4218TIP3    H134289   2.959   0.611   0.607  0.4751  0.5648 -0.6984
 4218TIP3    H234290   2.904   0.478   0.560  0.4409 -0.0484  1.0399
 4219TIP3   OH234291   1.852   0.935   6.972 -0.5279 -0.6536  0.1661
 4219TIP3    H134292   1.873   1.001   6.906 -0.3936  0.6658  1.4993
 4219TIP3    H234293   1.819   0.985   7.047 -1.0772 -2.1490  0.9435
 4220TIP3   OH234294   4.734   1.944   1.892 -0.2525  0.1260  0.1993
 4220TIP3    H134295   4.669   1.981   1.833  0.5455 -0.7823 -1.2538
 4220TIP3    H234296   4.816   1.987   1.868 -0.1030  0.4830  1.3165
 4221TIP3   OH234297   4.733   0.939   1.795  0.6015  0.0317  0.0403
 4221TIP3    H134298   4.762   0.848   1.794  0.7709  0.0761  0.7932
 4221TIP3    H234299   4.813   0.990   1.783  0.3020  0.0444 -2.0458
 4222TIP3   OH234300   3.790   0.259   7.676  0.2151  0.2752  0.1555
 4222TIP3    H134301   3.784   0.241   7.770 -1.3060 -0.6549 -0.0838
 4222TIP3    H234302   3.741   0.187   7.636 -0.0609  1.2544 -1.2829
 4223TIP3   OH234303   5.973   0.725   0.822 -0.0534  0.0678 -0.5313
 4223TIP3    H134304   5.970   0.652   0.884  2.3217 -0.5090 -1.0575
 4223TIP3    H234305   6.002   0.686   0.739 -0.5569  1.2919 -1.3003
 4224TIP3   OH234306   4.793   6.778   1.297  0.0758  0.1603  0.4749
 4224TIP3    H134307   4.727   6.753   1.233  0.9367  0.4770 -0.5415
 4224TIP3    H234308   4.873   6.733   1.268  0.5913  0.7034  1.0295
 4225TIP3   OH234309   4.039   0.253   7.519  0.3724  0.6100 -0.4339
 4225TIP3    H134310   4.073   0.301   7.594 -0.3487  3.2075 -1.7099
 4225TIP3    H234311   3.944   0.256   7.530  0.2754  0.7969 -1.3379
 4226TIP3   OH234312   2.892   0.228   1.577  0.0938 -0.2981  0.2985
 4226TIP3    H134313   2.807   0.185   1.563 -0.9644  0.5333  3.6232
 4226TIP3    H234314   2.956   0.159   1.559 -1.3504 -1.4560 -0.5639
 4227TIP3   OH234315   4.337   5.967   0.376  0.5043 -0.3830  0.0396
 4227TIP3    H134316   4.342   6.014   0.459  0.1840 -0.3846  0.0579
 4227TIP3    H234317   4.392   5.890   0.389 -0.0304 -0.6982  0.4515
 4228TIP3   OH234318   2.819   7.068   8.450 -0.2200 -0.1945 -0.1217
 4228TIP3    H134319   2.795   6.976   8.433 -1.1410  0.2641 -1.3758
 4228TIP3    H234320   2.862   7.096   8.369 -1.0650  0.8453 -0.2181
 4229TIP3   OH234321   3.723   1.390   7.352  0.0318 -1.1129  0.0053
 4229TIP3    H134322   3.760   1.302   7.343 -2.5084 -2.1010 -1.3953
 4229TIP3    H234323   3.631   1.380   7.328 -0.4043  1.8785  0.1969
 4230TIP3   OH234324   4.767   6.634   0.365 -0.7866 -0.0132  0.2109
 4230TIP3    H134325   4.673   6.633   0.348 -1.1642  0.1919  2.1401
 4230TIP3    H234326   4.780   6.710   0.421  0.4946 -0.2039  0.1832
 4231TIP3   OH234327   6.514   1.028   2.168  0.5438  0.1601  0.2969
 4231TIP3    H134328   6.500   0.945   2.214  2.8373 -0.8102 -0.6843
 4231TIP3    H234329   6.469   1.018   2.085 -0.3413  0.4358  0.7388
 4232TIP3   OH234330   4.735   1.467   0.988  0.4855 -0.0706 -0.0067
 4232TIP3    H134331   4.647   1.497   1.009  0.3437 -0.0766 -0.5891
 4232TIP3    H234332   4.741   1.380   1.029 -0.1375 -0.5103 -0.8284
 4233TIP3   OH234333   5.064   1.714   2.424 -0.2674 -0.4461  0.3504
 4233TIP3    H134334   5.118   1.664   2.362  1.5941  3.6053 -1.4874
 4233TIP3    H234335   4.985   1.736   2.374  0.5500  1.5181 -0.0957
 4234TIP3   OH234336   3.518   1.224   0.670 -0.3839 -0.0861  0.5613
 4234TIP3    H134337   3.550   1.202   0.582  2.6442  2.1441  1.0236
 4234TIP3    H234338   3.591   1.205   0.728 -2.3133 -1.4182  2.6674
 4235TIP3   OH234339   5.517   6.641   8.378  0.0227 -0.2896 -0.0228
 4235TIP3    H134340   5.442   6.692   8.346  0.6452  0.5169 -0.1985
 4235TIP3    H234341   5.529   6.573   8.311 -1.1807 -1.0383  0.5131
 4236TIP3   OH234342   2.899   2.170   0.808 -0.2098  0.6083 -0.4251
 4236TIP3    H134343   2.899   2.264   0.792 -2.5367  0.4990 -1.2641
 4236TIP3    H234344   2.880   2.161   0.902  0.5278  0.9704 -0.2369
 4237TIP3   OH234345   5.368   1.557   1.790 -0.2242  0.0424 -0.4804
 4237TIP3    H134346   5.310   1.483   1.804 -0.2115 -0.2598 -1.9491
 4237TIP3    H234347   5.395   1.584   1.878 -1.1732 -0.9315  0.1130
 4238TIP3   OH234348   3.589   0.970   1.339 -0.1052  0.7374  0.0958
 4238TIP3    H134349   3.573   0.947   1.430  1.1415  1.4092  0.5001
 4238TIP3    H234350   3.616   0.889   1.297  1.0693  0.7974  0.7405
 4239TIP3   OH234351   6.416   2.460   2.577  0.2620 -0.0285 -0.0983
 4239TIP3    H134352   6.490   2.405   2.602 -0.1433 -0.4579  0.1807
 4239TIP3    H234353   6.455   2.542   2.547  0.8709 -0.4713 -0.5161
 4240TIP3   OH234354   4.366   0.479   6.962 -0.0256 -0.2990  0.3112
 4240TIP3    H134355   4.433   0.476   6.895 -0.4070 -0.8115 -0.0500
 4240TIP3    H234356   4.344   0.388   6.980 -0.9487 -0.1347  0.0883
 4241TIP3   OH234357   4.604   1.449   1.918 -0.5930  0.6117  1.0146
 4241TIP3    H134358   4.622   1.541   1.936  0.0032  1.0464 -1.5833
 4241TIP3    H234359   4.523   1.431   1.965 -0.1071  2.1299  2.5014
 4242TIP3   OH234360   4.376   1.419   1.565 -0.1294 -0.1937 -0.2462
 4242TIP3    H134361   4.355   1.366   1.642 -0.5545  0.6656  0.2479
 4242TIP3    H234362   4.472   1.420   1.562 -0.1205 -0.9381 -0.2293
 4243TIP3   OH234363   2.958   0.941   1.647  0.4884 -0.3697 -0.0550
 4243TIP3    H134364   3.008   1.023   1.641  1.3985 -0.8182  1.2338
 4243TIP3    H234365   2.942   0.929   1.741 -0.2708 -1.3004 -0.2931
 4244TIP3   OH234366   1.868   7.161   8.029  0.5941  0.5046  0.3087
 4244TIP3    H134367   1.945   7.197   7.985  1.1901  0.6843  1.5058
 4244TIP3    H234368   1.848   7.082   7.979  2.1679 -0.1089  0.6215
 4245TIP3   OH234369   4.848   1.565   1.250 -0.4483  0.0406 -0.7762
 4245TIP3    H134370   4.819   1.587   1.161  2.4614  1.9342 -1.3535
 4245TIP3    H234371   4.858   1.649   1.293  2.1161 -0.5788 -0.0268
 4246TIP3   OH234372   3.900   0.487   1.367  0.4799 -0.4990  0.5657
 4246TIP3    H134373   3.986   0.451   1.387  0.5929  0.4719  1.8928
 4246TIP3    H234374   3.840   0.413   1.375  1.1245 -1.0722  0.1173
 4247TIP3   OH234375   7.254   2.705   1.873 -0.0057  0.3058 -0.3794
 4247TIP3    H134376   7.218   2.617   1.866 -0.9016  0.8123 -2.5733
 4247TIP3    H234377   7.319   2.699   1.943 -2.1297 -1.3799  1.5404
 4248TIP3   OH234378   4.621   7.088   8.353 -0.4623 -0.0457  0.0489
 4248TIP3    H134379   4.658   7.037   8.425 -1.2295 -0.0315  0.4609
 4248TIP3    H234380   4.620   7.028   8.279  4.7149  1.2978 -1.2992
 4249TIP3   OH234381   6.178   0.100   1.454 -0.1976  0.0892 -0.5015
 4249TIP3    H134382   6.211   0.117   1.543 -0.8551  1.7802 -0.5603
 4249TIP3    H234383   6.094   0.055   1.468 -0.2815  0.3195 -0.2591
 4250TIP3   OH234384   5.721   2.081   6.988  0.2754  0.8166  0.6702
 4250TIP3    H134385   5.633   2.060   7.020 -0.0794 -0.2034 -0.9023
 4250TIP3    H234386   5.711   2.084   6.892  2.4616 -1.8025  0.3122
 4251TIP3   OH234387   5.416   0.890   8.038  0.4651  0.7865  0.0880
 4251TIP3    H134388   5.337   0.936   8.067 -0.6443 -0.7802 -0.3560
 4251TIP3    H234389   5.445   0.939   7.961 -1.0971  0.3501 -0.8002
 4252TIP3   OH234390   3.654   0.522   1.630  0.7375  0.0773  0.1542
 4252TIP3    H134391   3.749   0.527   1.637  0.8672 -0.5347 -1.1660
 4252TIP3    H234392   3.637   0.441   1.583 -0.4407  0.1442  0.4548
 4253TIP3   OH234393   4.209   1.323   1.353 -0.2303  0.3026 -0.3979
 4253TIP3    H134394   4.249   1.371   1.425 -1.4676  0.1014  0.4471
 4253TIP3    H234395   4.239   1.233   1.364  1.2162  0.6413 -1.3498
 4254TIP3   OH234396   3.349   0.939   1.831 -0.5927 -0.6861  0.0407
 4254TIP3    H134397   3.263   0.963   1.866 -0.9509 -1.3104 -0.4142
 4254TIP3    H234398   3.408   0.946   1.907 -1.0392 -0.2736  0.3560
 4255TIP3   OH234399   4.051   6.812   1.508 -0.7035 -0.3181  0.4469
 4255TIP3    H134400   4.071   6.875   1.576 -2.2405 -1.4946  2.0247
 4255TIP3    H234401   4.003   6.862   1.442 -0.0300  0.6117  0.6514
 4256TIP3   OH234402   5.559   1.130   1.289  0.5788 -0.1999  0.3030
 4256TIP3    H134403   5.613   1.194   1.335 -0.2152  0.2035  0.6825
 4256TIP3    H234404   5.614   1.100   1.216  1.3335  0.1577  0.7136
 4257TIP3   OH234405   3.677   6.475   7.874 -0.4411  0.4121  0.0518
 4257TIP3    H134406   3.651   6.533   7.803  0.9475  1.6633  0.5460
 4257TIP3    H234407   3.768   6.496   7.891 -0.0146 -1.6624  0.4988
 4258TIP3   OH234408   5.962   5.880   0.075 -0.8135 -0.0250 -0.3300
 4258TIP3    H134409   5.898   5.896   0.006  1.0765  0.4282 -2.0478
 4258TIP3    H234410   5.927   5.806   0.125 -1.8629 -0.8479 -2.2566
 4259TIP3   OH234411   5.128   0.771   8.207  0.2734 -0.6786  0.2005
 4259TIP3    H134412   5.207   0.745   8.255  1.3597 -0.2859 -1.3429
 4259TIP3    H234413   5.064   0.792   8.276  1.4180 -1.2506  1.4661
 4260TIP3   OH234414   5.977   2.559   7.099 -0.5175  0.2499  0.2753
 4260TIP3    H134415   6.043   2.628   7.095  0.3586 -0.6481 -0.8845
 4260TIP3    H234416   5.921   2.575   7.023 -1.2328  0.5888  0.8645
 4261TIP3   OH234417   3.625   0.532   1.899 -0.3408 -0.1905  0.3351
 4261TIP3    H134418   3.682   0.515   1.824  0.4746  0.7201  0.7323
 4261TIP3    H234419   3.563   0.459   1.899  0.1487 -0.6227 -0.7469
 4262TIP3   OH234420   6.604   0.162   1.989 -0.5110  0.0559 -0.3372
 4262TIP3    H134421   6.633   0.071   1.995  0.9230  0.5857  0.9707
 4262TIP3    H234422   6.685   0.213   1.987 -1.2808  1.2576 -2.0707
 4263TIP3   OH234423   3.792   1.127   1.490  0.2033  0.1866  0.5992
 4263TIP3    H134424   3.737   1.060   1.451 -0.2578  1.4502 -0.9911
 4263TIP3    H234425   3.871   1.129   1.435 -0.3526  1.8161 -0.1985
 4264TIP3   OH234426   5.986   0.808   0.529  0.3945 -0.6666 -0.0128
 4264TIP3    H134427   6.012   0.718   0.551  2.4252 -0.7761 -2.6628
 4264TIP3    H234428   5.905   0.798   0.479  0.5973 -1.0352 -0.2727
 4265TIP3   OH234429   4.655   0.107   0.467  0.2025 -0.3928  0.2816
 4265TIP3    H134430   4.647   0.175   0.534 -0.0093 -0.0104 -0.1298
 4265TIP3    H234431   4.679   0.028   0.516 -0.1278 -0.1562  0.8282
 4266TIP3   OH234432   5.908   6.976   1.465 -0.4040 -0.2244  0.0533
 4266TIP3    H134433   5.824   6.950   1.504  1.4126 -2.3446  2.7139
 4266TIP3    H234434   5.929   6.906   1.404 -0.3840  0.1448 -0.3682
 4267TIP3   OH234435   2.661   0.456   0.955 -0.6249 -0.2286 -0.4932
 4267TIP3    H134436   2.740   0.511   0.954 -1.1781  0.5647 -1.6315
 4267TIP3    H234437   2.682   0.386   1.017  1.5935 -0.9058 -1.9128
 4268TIP3   OH234438   6.499   2.960   1.123  0.0887  0.2635  0.1025
 4268TIP3    H134439   6.440   2.918   1.060  0.3246  1.5378 -0.9986
 4268TIP3    H234440   6.484   2.913   1.205  0.6138 -2.1789 -1.1529
 4269TIP3   OH234441   5.921   0.874   8.091  0.0316 -0.4154 -0.0368
 4269TIP3    H134442   5.917   0.844   8.000 -0.8924  1.0729 -0.5180
 4269TIP3    H234443   6.012   0.901   8.103 -0.3891  1.7042 -1.3300
 4270TIP3   OH234444   5.701   6.597   1.623 -0.6282  0.0045  0.0278
 4270TIP3    H134445   5.767   6.651   1.667  1.3232 -1.6009 -0.8485
 4270TIP3    H234446   5.657   6.552   1.695 -0.5534  0.8327  0.6115
 4271TIP3   OH234447   3.401   1.502   0.567 -0.3332 -0.4369  0.0531
 4271TIP3    H134448   3.457   1.542   0.501 -0.9687 -1.4760 -1.1510
 4271TIP3    H234449   3.454   1.430   0.603  0.0854  0.2520  0.8199
 4272TIP3   OH234450   5.179   1.565   0.110  0.8200 -0.0439  0.1275
 4272TIP3    H134451   5.116   1.609   0.166 -0.0766  1.2912 -1.8628
 4272TIP3    H234452   5.259   1.618   0.116  0.3041  0.8758 -0.8566
 4273TIP3   OH234453   5.030   6.630   1.308  0.2480 -0.2281 -0.8366
 4273TIP3    H134454   5.094   6.697   1.283 -0.7509  3.0155  4.4208
 4273TIP3    H234455   5.083   6.562   1.351  0.7939 -0.6662 -2.1794
 4274TIP3   OH234456   6.221   6.351   0.982 -0.3136  0.0016 -0.3004
 4274TIP3    H134457   6.271   6.320   1.058  2.5719  0.5530 -1.8927
 4274TIP3    H234458   6.176   6.429   1.013  1.9242  1.0069  0.5015
 4275TIP3   OH234459   5.123   5.949   1.820  0.6893 -0.1487  0.5500
 4275TIP3    H134460   5.055   6.014   1.800  0.3892 -0.3333  0.9514
 4275TIP3    H234461   5.158   5.978   1.904 -0.0998 -1.0339  1.1985
 4276TIP3   OH234462   2.190   1.202   7.614  0.3465  0.3968  0.4422
 4276TIP3    H134463   2.191   1.123   7.668  1.4925  0.4176  0.4627
 4276TIP3    H234464   2.117   1.189   7.553 -0.3642 -0.0411  1.3795
 4277TIP3   OH234465   4.536   0.557   7.344 -0.6080  0.2964  0.1511
 4277TIP3    H134466   4.577   0.548   7.430 -0.7483 -0.1314  0.1731
 4277TIP3    H234467   4.597   0.611   7.294 -0.0609 -0.2652  0.2087
 4278TIP3   OH234468   4.525   1.276   8.431  0.4232  0.2514  0.5004
 4278TIP3    H134469   4.536   1.194   8.478  0.5003  0.0010  0.0364
 4278TIP3    H234470   4.456   1.259   8.367 -0.2110  0.8068  1.0170
 4279TIP3   OH234471   3.950   0.574   8.006 -0.0019 -0.4243  0.3242
 4279TIP3    H134472   3.912   0.497   8.048 -1.2428 -0.0378 -0.0591
 4279TIP3    H234473   3.915   0.572   7.917  1.3293 -0.3609 -0.2101
 4280TIP3   OH234474   4.689   1.293   8.062  0.2840  0.1104 -0.0326
 4280TIP3    H134475   4.783   1.305   8.077  0.8166 -2.1236 -1.3152
 4280TIP3    H234476   4.670   1.348   7.987  0.1607  1.9624  1.3244
 4281TIP3   OH234477   2.361   1.013   1.339 -0.1542 -0.3066 -0.0574
 4281TIP3    H134478   2.272   0.987   1.363  0.2459  0.1714  2.0314
 4281TIP3    H234479   2.364   1.107   1.353  0.5780 -0.2546 -0.5202
 4282TIP3   OH234480   5.395   1.718   1.033 -0.2456 -0.1038 -0.3424
 4282TIP3    H134481   5.453   1.644   1.048  0.5930  0.6963  0.4853
 4282TIP3    H234482   5.337   1.690   0.962  2.3990 -0.2465 -2.5283
 4283TIP3   OH234483   5.003   1.583   2.020  0.6289  0.3174  0.0630
 4283TIP3    H134484   5.067   1.613   2.083 -0.3442 -1.2676  1.8544
 4283TIP3    H234485   5.031   1.494   1.998  0.5507  0.5922 -1.1870
 4284TIP3   OH234486   4.779   2.857   0.627  0.5506  0.6357  0.5378
 4284TIP3    H134487   4.765   2.794   0.557  1.1498  0.4204  0.6041
 4284TIP3    H234488   4.704   2.846   0.685  1.4562 -1.1810  1.4050
 4285TIP3   OH234489   3.313   2.347   1.845 -0.2474  0.3495 -0.3412
 4285TIP3    H134490   3.241   2.303   1.890 -1.5844  3.4143  0.6492
 4285TIP3    H234491   3.283   2.357   1.755  1.3785 -3.4627 -1.4414
 4286TIP3   OH234492   5.608   2.177   6.379 -0.0841  1.0080 -0.1599
 4286TIP3    H134493   5.676   2.116   6.409 -1.3469  0.9213  2.6520
 4286TIP3    H234494   5.529   2.124   6.373 -0.3414  1.5273 -1.6072
 4287TIP3   OH234495   2.661   1.107   1.825 -0.0625 -0.1903  0.0371
 4287TIP3    H134496   2.745   1.073   1.859 -0.1306 -1.3336 -0.9293
 4287TIP3    H234497   2.684   1.148   1.742 -0.2299  0.8465  0.4911
 4288TIP3   OH234498   6.487   7.185   8.271  0.5938 -0.1585  0.1522
 4288TIP3    H134499   6.551   7.140   8.326  2.6356  1.9340 -0.4637
 4288TIP3    H234500   6.455   7.257   8.326 -0.0586 -0.2226 -0.1354
 4289TIP3   OH234501   3.462   2.424   0.967  0.2387 -0.0883  0.4499
 4289TIP3    H134502   3.475   2.402   0.874  2.5924  1.5281  0.3697
 4289TIP3    H234503   3.486   2.345   1.014  0.7098 -0.3608 -0.2360
 4290TIP3   OH234504   3.362   2.876   7.877 -0.2020  0.1035  0.6755
 4290TIP3    H134505   3.323   2.891   7.791 -2.1042  1.5684  1.7358
 4290TIP3    H234506   3.288   2.848   7.932  1.0690 -1.2564  1.7266
 4291TIP3   OH234507   3.134   0.769   1.857 -0.1553 -0.5412 -0.7801
 4291TIP3    H134508   3.158   0.737   1.944 -2.3118 -2.3024 -0.7877
 4291TIP3    H234509   3.197   0.727   1.798  0.7120 -0.0996 -0.1877
 4292TIP3   OH234510   5.826   1.346   7.675  0.1207 -0.2994  0.1442
 4292TIP3    H134511   5.817   1.260   7.717  1.0015 -0.5207 -0.1229
 4292TIP3    H234512   5.785   1.407   7.737 -0.1443 -0.8530  0.5188
 4293TIP3   OH234513   4.812   7.302   1.578 -0.2025 -0.3945  0.6834
 4293TIP3    H134514   4.899   7.300   1.618  0.0972  0.2998  0.0781
 4293TIP3    H234515   4.773   7.218   1.602  0.8008 -0.8928  0.5990
 4294TIP3   OH234516   5.129   2.435   8.127 -0.0006 -0.8579 -0.1844
 4294TIP3    H134517   5.111   2.519   8.085  0.7261 -0.0096  1.1863
 4294TIP3    H234518   5.216   2.410   8.095 -1.3422 -2.5252 -2.8414
 4295TIP3   OH234519   4.315   6.921   0.860  0.4282 -0.5212  0.3817
 4295TIP3    H134520   4.246   6.891   0.920 -0.5483 -0.2844 -0.6058
 4295TIP3    H234521   4.322   7.015   0.878  1.2168 -0.7203  1.1885
 4296TIP3   OH234522   5.088   7.265   1.255  0.3485  0.3970  0.2764
 4296TIP3    H134523   5.029   7.190   1.246  0.0549  0.7608 -0.8983
 4296TIP3    H234524   5.142   7.262   1.176 -0.0594  1.7662 -0.0641
 4297TIP3   OH234525   3.592   1.420   1.778  0.7911 -0.2512 -0.0913
 4297TIP3    H134526   3.615   1.333   1.745 -1.1759 -0.3627 -1.2848
 4297TIP3    H234527   3.573   1.406   1.870  0.9184 -1.0187 -0.1733
 4298TIP3   OH234528   3.588   0.301   1.419 -0.4002 -0.1749  0.2283
 4298TIP3    H134529   3.591   0.302   1.323 -0.7979  0.6666  0.2164
 4298TIP3    H234530   3.497   0.280   1.440 -0.2644 -0.5717  0.4245
 4299TIP3   OH234531   2.462   6.870   1.556 -0.1148 -0.1597 -0.7069
 4299TIP3    H134532   2.442   6.956   1.520 -1.3092  0.5073  1.4458
 4299TIP3    H234533   2.419   6.808   1.497  0.1768  0.7378 -1.8801
 4300TIP3   OH234534   3.687   0.012   1.933 -0.4532 -0.1326  0.4077
 4300TIP3    H134535   3.776  -0.013   1.908 -1.0526 -0.0839 -1.9421
 4300TIP3    H234536   3.693   0.104   1.958  0.5046 -0.6838  2.2735
 4301TIP3   OH234537   5.882   0.665   0.075 -0.1001  0.0966 -0.6029
 4301TIP3    H134538   5.889   0.753   0.038  2.3721  0.6210  0.9989
 4301TIP3    H234539   5.937   0.611   0.017  1.0629  0.2645  0.3365
 4302TIP3   OH234540   4.247   1.397   0.469  0.0665 -0.2875  0.0494
 4302TIP3    H134541   4.281   1.379   0.381 -1.1558 -1.0499 -0.2706
 4302TIP3    H234542   4.282   1.325   0.522  1.1249  0.3834  0.2840
 4303TIP3   OH234543   2.380   7.322   0.491  0.2607 -0.6228 -0.0281
 4303TIP3    H134544   2.470   7.344   0.466 -0.1687  0.7302 -0.4237
 4303TIP3    H234545   2.351   7.260   0.424  0.0511  0.8853 -1.3647
 4304TIP3   OH234546   4.943   0.993   1.208  0.0697  0.4850 -0.7248
 4304TIP3    H134547   4.876   0.942   1.162  0.3107  0.6505 -1.2699
 4304TIP3    H234548   5.021   0.986   1.152  0.6594 -0.1251  0.1588
 4305TIP3   OH234549   5.097   2.686   7.999  0.3015  0.2580 -0.0845
 4305TIP3    H134550   5.076   2.749   8.068  1.3421  0.6916 -0.1490
 4305TIP3    H234551   5.076   2.731   7.917 -2.3886 -0.8133 -0.0253
 4306TIP3   OH234552   2.570   0.862   1.496  0.2321 -0.1314  0.1260
 4306TIP3    H134553   2.543   0.795   1.559  1.2782 -1.1252 -0.4581
 4306TIP3    H234554   2.489   0.894   1.458 -0.2458 -1.6633 -0.1704
 4307TIP3   OH234555   5.039   0.984   1.721 -0.1432 -0.1667 -0.4440
 4307TIP3    H134556   5.051   0.978   1.626 -1.7252  0.9381 -0.7294
 4307TIP3    H234557   5.020   1.076   1.737  0.8475 -0.2101  1.0514
 4308TIP3   OH234558   4.395   0.273   8.243  0.2080 -0.1704  0.0597
 4308TIP3    H134559   4.395   0.369   8.237  0.4630 -0.1541  0.3157
 4308TIP3    H234560   4.458   0.245   8.177  1.0904 -0.1044  0.8694
 4309TIP3   OH234561   5.942   6.052   1.163 -0.2587 -0.3703  0.0755
 4309TIP3    H134562   5.981   6.078   1.080 -1.2989  2.0656  0.3130
 4309TIP3    H234563   5.872   5.992   1.138 -0.5204  0.2950 -0.8100
 4310TIP3   OH234564   3.000   2.082   1.556 -0.4608 -0.2337  0.1716
 4310TIP3    H134565   3.037   2.064   1.642 -2.9444  0.0676  1.3726
 4310TIP3    H234566   2.981   1.995   1.519  1.8419 -0.4065 -0.6874
 4311TIP3   OH234567   4.298   0.574   1.149  0.3630 -0.3302 -0.0477
 4311TIP3    H134568   4.236   0.534   1.089  0.7582 -1.1741  0.1090
 4311TIP3    H234569   4.343   0.501   1.190 -0.1510  0.2057  1.5492
 4312TIP3   OH234570   2.648   3.068   1.045  0.0004  0.1143 -0.3861
 4312TIP3    H134571   2.699   3.146   1.061 -0.1132  0.1225 -0.0662
 4312TIP3    H234572   2.560   3.100   1.022  0.0640  0.0928 -0.6601
 4313TIP3   OH234573   5.307   6.832   1.771 -0.1595 -0.1664 -0.2301
 4313TIP3    H134574   5.259   6.912   1.752 -1.3352 -0.8794 -0.3654
 4313TIP3    H234575   5.377   6.859   1.830  0.1570  1.1381 -1.1754
 4314TIP3   OH234576   3.859   0.420   8.446  0.0216 -0.4501 -0.0923
 4314TIP3    H134577   3.874   0.334   8.487 -0.4929  1.0693  3.4610
 4314TIP3    H234578   3.768   0.439   8.464  0.1249  0.8527 -0.9255
 4315TIP3   OH234579   5.197   1.516   0.478 -0.2105  0.1922 -0.7566
 4315TIP3    H134580   5.131   1.571   0.521 -0.7797  0.0018 -1.3785
 4315TIP3    H234581   5.148   1.467   0.413  0.4988 -0.1958 -1.0009
 4316TIP3   OH234582   4.454   0.378   1.572 -0.4996 -0.1151 -0.6777
 4316TIP3    H134583   4.431   0.308   1.511 -0.6214 -1.0137  0.3990
 4316TIP3    H234584   4.396   0.450   1.548 -1.1902 -0.7745 -1.0173
 4317TIP3   OH234585   5.289   6.717   1.495  0.0186  0.1211  0.1456
 4317TIP3    H134586   5.313   6.798   1.450 -1.4713  0.0710 -0.7400
 4317TIP3    H234587   5.264   6.745   1.583  1.3266  0.3932  0.4553
 4318TIP3   OH234588   6.523   1.263   2.301 -0.2824 -0.5504  0.4817
 4318TIP3    H134589   6.437   1.279   2.340 -0.4696  0.2644 -0.2592
 4318TIP3    H234590   6.514   1.178   2.258 -1.0729  0.0574 -0.5728
 4319TIP3   OH234591   3.276   6.154   0.756 -0.3881 -0.2555 -0.2320
 4319TIP3    H134592   3.287   6.064   0.787 -0.1823  0.1850  1.0263
 4319TIP3    H234593   3.195   6.184   0.797 -0.2181  0.2823 -0.2761
 4320TIP3   OH234594   6.437   6.778   1.851 -0.0465  0.0464 -0.1848
 4320TIP3    H134595   6.401   6.855   1.894 -0.4275  0.7642 -1.7477
 4320TIP3    H234596   6.531   6.793   1.849  0.0057 -0.1452  0.6749
 4321TIP3   OH234597   3.633   0.860   1.580 -0.0046 -0.2358  0.2361
 4321TIP3    H134598   3.641   0.769   1.553 -1.0128  0.0243 -0.9823
 4321TIP3    H234599   3.666   0.861   1.670  3.8816 -1.0143 -1.0988
 4322TIP3   OH234600   5.637   1.442   7.483  0.2037  0.2713  0.0007
 4322TIP3    H134601   5.717   1.406   7.521  0.7154  3.0150  1.6930
 4322TIP3    H234602   5.568   1.419   7.544  0.1752  0.3180 -0.0143
 4323TIP3   OH234603   4.470   0.862   6.723  0.6505 -0.7573  0.6587
 4323TIP3    H134604   4.475   0.794   6.655  0.5433  0.1991 -0.3277
 4323TIP3    H234605   4.562   0.886   6.738  0.5848  0.0347 -0.1869
 4324TIP3   OH234606   3.316   1.950   8.355  0.0070  0.0426  0.1972
 4324TIP3    H134607   3.363   2.007   8.415 -1.4375  0.6917  0.7087
 4324TIP3    H234608   3.363   1.866   8.361  0.7413  0.5111  1.1272
 4325TIP3   OH234609   4.908   0.844   8.369 -0.2035 -0.0803  0.3230
 4325TIP3    H134610   4.947   0.868   8.453  0.4540 -0.5366  0.1581
 4325TIP3    H234611   4.893   0.927   8.325 -0.2811  0.1476  0.7767
 4326TIP3   OH234612   5.407   1.889   1.884  0.2930  0.5170  0.2887
 4326TIP3    H134613   5.348   1.842   1.943 -0.0129  0.5770  0.0315
 4326TIP3    H234614   5.365   1.883   1.798 -0.2113  2.0144  0.4058
 4327TIP3   OH234615   5.052   6.732   2.200 -0.2812  0.2063 -0.3517
 4327TIP3    H134616   5.021   6.775   2.280  0.0766 -1.2234  0.5890
 4327TIP3    H234617   5.127   6.679   2.229  0.6754  0.6923 -1.8911
 4328TIP3   OH234618   5.962   6.406   8.230  0.6323  0.2456 -0.2184
 4328TIP3    H134619   6.048   6.444   8.244  1.4981 -1.2710 -1.2702
 4328TIP3    H234620   5.974   6.346   8.156 -0.9393 -1.1619  0.6371
 4329TIP3   OH234621   4.654   0.031   2.206  0.5948 -0.4688  0.0410
 4329TIP3    H134622   4.609   0.009   2.288 -1.2317 -0.5742 -0.9647
 4329TIP3    H234623   4.733   0.077   2.234 -0.6147  0.5934  1.8262
 4330TIP3   OH234624   1.678   5.086   1.145 -0.1682 -0.3286  0.2728
 4330TIP3    H134625   1.745   5.036   1.191  1.8915  0.8604 -1.3736
 4330TIP3    H234626   1.595   5.050   1.178  1.2236 -0.9710  3.2410
 4331TIP3   OH234627   5.993   5.518   0.865 -0.1686  0.4565  0.1151
 4331TIP3    H134628   6.055   5.453   0.898 -1.5708 -0.8129  0.2892
 4331TIP3    H234629   5.913   5.469   0.846 -0.6210  1.7952 -1.6309
 4332TIP3   OH234630   0.097   5.338   7.680  0.0287  0.1135 -0.4437
 4332TIP3    H134631   0.029   5.363   7.618 -0.8827  0.9150  0.8476
 4332TIP3    H234632   0.083   5.396   7.755  1.9843  0.1264 -0.0555
 4333TIP3   OH234633   3.217   7.264   0.587 -0.1968 -0.1221  0.3062
 4333TIP3    H134634   3.262   7.190   0.546  0.0522  0.7613 -1.0538
 4333TIP3    H234635   3.177   7.227   0.666 -0.3519 -1.7816 -0.5200
 4334TIP3   OH234636   4.441   1.170   8.038  0.2804  0.6588 -0.4185
 4334TIP3    H134637   4.525   1.212   8.021  1.2348 -1.0892 -0.0846
 4334TIP3    H234638   4.459   1.105   8.105 -0.8704 -1.1976 -1.8359
 4335TIP3   OH234639   3.933   5.335   1.320 -0.1565 -0.3746 -0.3708
 4335TIP3    H134640   3.945   5.260   1.378 -1.9100 -0.9176 -0.6835
 4335TIP3    H234641   3.848   5.320   1.278  0.3247  0.8347 -1.8426
 4336TIP3   OH234642   3.761   0.661   2.085  0.2255  0.7017  0.0327
 4336TIP3    H134643   3.835   0.601   2.095 -1.5386 -1.3398  1.0324
 4336TIP3    H234644   3.702   0.618   2.024 -1.7654  0.6995  1.9117
 4337TIP3   OH234645   4.735   0.142   0.915  0.9023  0.6639  0.3281
 4337TIP3    H134646   4.748   0.047   0.921  0.3512  0.5834  0.2851
 4337TIP3    H234647   4.822   0.177   0.897  0.6304 -0.1074 -2.8632
 4338TIP3   OH234648   2.891   1.233   2.369  0.2075  0.5524  0.0789
 4338TIP3    H134649   2.966   1.271   2.415 -0.4398  1.4471  0.4086
 4338TIP3    H234650   2.893   1.141   2.392  2.4145  0.1481 -1.5629
 4339TIP3   OH234651   4.021   0.381   0.568  0.0485  0.1776 -0.4045
 4339TIP3    H134652   3.983   0.304   0.525 -0.7619 -1.1428  2.6012
 4339TIP3    H234653   3.950   0.445   0.568 -0.3853 -0.3003  0.1695
 4340TIP3   OH234654   4.234   5.631   1.150  0.2058  0.2757  0.0285
 4340TIP3    H134655   4.176   5.560   1.124  0.3652 -0.7774  2.4196
 4340TIP3    H234656   4.185   5.680   1.216  1.2850  0.5309  0.6580
 4341TIP3   OH234657   3.729   2.153   1.520 -0.6430 -0.2302 -0.8720
 4341TIP3    H134658   3.662   2.092   1.489 -1.2622  1.2270 -2.4868
 4341TIP3    H234659   3.763   2.193   1.440  1.4094 -0.1687  0.0103
 4342TIP3   OH234660   2.359   2.240   1.322  0.4611 -0.7423 -0.1899
 4342TIP3    H134661   2.263   2.236   1.323  0.4066  0.7323  0.6442
 4342TIP3    H234662   2.386   2.151   1.345 -0.6837 -1.6150 -2.0442
 4343TIP3   OH234663   2.434   1.033   0.138  0.3880  0.2150 -0.0736
 4343TIP3    H134664   2.525   1.064   0.145  0.3619  0.4031 -0.5743
 4343TIP3    H234665   2.429   0.961   0.201  0.2116  1.7676  1.7360
 4344TIP3   OH234666   3.703   1.795   0.259  0.4557  0.3559  0.3321
 4344TIP3    H134667   3.676   1.848   0.334  1.5819  0.0240  0.9883
 4344TIP3    H234668   3.788   1.832   0.234  1.0273 -0.8405  0.4943
 4345TIP3   OH234669   4.057   0.598   0.257 -0.2152  0.4587  0.2105
 4345TIP3    H134670   3.966   0.589   0.228 -0.5764  1.4590  1.0157
 4345TIP3    H234671   4.109   0.591   0.177 -0.7795 -3.0086  0.0410
 4346TIP3   OH234672   2.399   7.209   1.718 -0.4783 -1.0481  0.5700
 4346TIP3    H134673   2.478   7.262   1.732 -1.9989  2.0713 -1.9009
 4346TIP3    H234674   2.358   7.205   1.805  1.4776 -1.2181  1.5256
 4347TIP3   OH234675   5.910   3.175   0.671 -0.1033 -0.1353  0.2457
 4347TIP3    H134676   5.825   3.131   0.668 -0.3568  0.4659 -1.9304
 4347TIP3    H234677   5.974   3.105   0.662 -0.3523 -0.5505  1.5327
 4348TIP3   OH234678   7.195   0.532   0.701  0.0479 -0.1872 -0.0112
 4348TIP3    H134679   7.114   0.502   0.741 -0.6098  0.4953 -0.7946
 4348TIP3    H234680   7.237   0.585   0.769  0.8369 -2.1797  1.0944
 4349TIP3   OH234681   3.866   0.752   0.908 -0.3322 -0.5282 -0.3888
 4349TIP3    H134682   3.776   0.727   0.928  0.1355 -1.9133  0.0403
 4349TIP3    H234683   3.887   0.820   0.972 -0.7852 -0.8197  0.0722
 4350TIP3   OH234684   6.436   0.589   7.675 -0.7908 -0.2514 -0.4621
 4350TIP3    H134685   6.369   0.552   7.617 -0.8206 -0.7210 -0.1304
 4350TIP3    H234686   6.519   0.554   7.641 -0.6673  0.6717 -1.1345
 4351TIP3   OH234687   6.252   6.891   0.729 -0.0314 -0.4630  0.3430
 4351TIP3    H134688   6.186   6.879   0.660 -0.2352 -0.8135  0.6008
 4351TIP3    H234689   6.332   6.853   0.692  0.3597  1.0843 -0.4788
 4352TIP3   OH234690   4.285   6.784   1.371 -0.4520 -0.1875 -0.2009
 4352TIP3    H134691   4.194   6.800   1.398  0.0058  1.3730  0.4696
 4352TIP3    H234692   4.289   6.690   1.355 -2.0505 -0.3564  0.3082
 4353TIP3   OH234693   5.136   1.370   6.972 -0.0721  0.1132 -0.0061
 4353TIP3    H134694   5.044   1.380   6.948 -0.0706 -0.0539 -0.0757
 4353TIP3    H234695   5.178   1.450   6.938 -0.0861 -0.0833 -0.4920
 4354TIP3   OH234696   4.383   7.105   8.222 -0.0453 -0.2544  0.0123
 4354TIP3    H134697   4.407   7.017   8.193  1.8819  0.6254 -1.1677
 4354TIP3    H234698   4.448   7.128   8.288  0.5527  0.9554 -0.9683
 4355TIP3   OH234699   3.144   0.945   0.555  0.2602 -0.1078 -0.0030
 4355TIP3    H134700   3.234   0.916   0.572 -0.3010 -1.0340  1.5343
 4355TIP3    H234701   3.091   0.868   0.577 -0.9402  0.6260 -0.3506
 4356TIP3   OH234702   3.024   6.475   1.153 -0.5793 -0.4320 -0.1186
 4356TIP3    H134703   3.006   6.541   1.221  1.2643  1.7448 -1.6707
 4356TIP3    H234704   2.980   6.396   1.184 -0.2131  0.6540  3.3435
 4357TIP3   OH234705   2.596   4.374   1.719 -0.0339 -0.0124 -0.1539
 4357TIP3    H134706   2.647   4.377   1.639 -0.9236  0.6603 -0.7083
 4357TIP3    H234707   2.623   4.452   1.768  0.8192 -0.6468  0.4105
 4358TIP3   OH234708   3.246   1.163   1.433  0.0753 -0.5767  0.1739
 4358TIP3    H134709   3.270   1.185   1.523 -0.2307 -0.5715  0.2548
 4358TIP3    H234710   3.242   1.068   1.432 -2.5183 -0.5212  0.8547
 4359TIP3   OH234711   6.234   3.111   1.156 -0.7423  0.5471  0.8032
 4359TIP3    H134712   6.231   3.187   1.098 -1.8492 -0.7031 -0.7880
 4359TIP3    H234713   6.317   3.122   1.204  0.3102  1.4630 -1.1709
 4360TIP3   OH234714   4.143   1.752   7.974  0.1768  0.2645 -0.3440
 4360TIP3    H134715   4.070   1.692   7.960  0.5061 -0.5324  1.2048
 4360TIP3    H234716   4.211   1.698   8.015  0.4141  1.7338  1.2740
 4361TIP3   OH234717   6.696   1.469   2.164 -0.1642  0.0507  0.1495
 4361TIP3    H134718   6.781   1.428   2.183 -0.7469 -0.9182  0.6804
 4361TIP3    H234719   6.631   1.409   2.200 -1.1209  0.4020 -0.9552
 4362TIP3   OH234720   2.731   6.124   2.553  0.5644 -0.6495  0.0107
 4362TIP3    H134721   2.667   6.058   2.524  0.4689 -0.9189  0.8267
 4362TIP3    H234722   2.724   6.194   2.488  0.6350 -1.4216 -0.8472
 4363TIP3   OH234723   3.863   7.283   0.753 -0.1014 -0.4383 -0.0988
 4363TIP3    H134724   3.925   7.212   0.737 -1.2805 -1.4962 -0.0509
 4363TIP3    H234725   3.889   7.319   0.837  1.2867  0.0223 -0.7100
 4364TIP3   OH234726   4.566   1.629   0.452 -0.2128 -0.2059 -0.1558
 4364TIP3    H134727   4.616   1.547   0.450  0.0396 -0.0298 -1.1037
 4364TIP3    H234728   4.530   1.638   0.364 -1.8512 -0.2760  0.4921
 4365TIP3   OH234729   2.009   7.085   0.789  0.1929  0.0557 -0.0834
 4365TIP3    H134730   2.060   7.109   0.712 -0.6250  2.6265  0.1393
 4365TIP3    H234731   2.070   7.094   0.862  0.4933 -0.7486 -0.2233
 4366TIP3   OH234732   4.000   2.242   1.093 -0.2423  0.0886  0.0137
 4366TIP3    H134733   3.936   2.179   1.062  0.3828 -0.7934  0.5020
 4366TIP3    H234734   4.049   2.267   1.014  0.1436 -0.7625 -0.0163
 4367TIP3   OH234735   6.217   1.505   1.487  0.0887  0.2618  0.2099
 4367TIP3    H134736   6.208   1.580   1.546  0.6891 -0.3896  1.1476
 4367TIP3    H234737   6.232   1.430   1.545 -2.0079 -0.8574 -0.6150
 4368TIP3   OH234738   4.277   1.867   1.930 -0.2720  0.9060  0.7932
 4368TIP3    H134739   4.271   1.887   2.023  0.3037  0.5792  0.8989
 4368TIP3    H234740   4.207   1.919   1.890 -0.9029  0.5779  1.4747
 4369TIP3   OH234741   5.284   2.519   0.757 -0.2774  0.3547 -0.3304
 4369TIP3    H134742   5.267   2.602   0.802  1.6380 -0.6360  2.3701
 4369TIP3    H234743   5.206   2.466   0.775  0.4844 -0.0540  2.0053
 4370TIP3   OH234744   1.182   6.408   0.752  0.7889 -0.0908 -0.1342
 4370TIP3    H134745   1.175   6.333   0.811 -0.4361 -0.5706 -0.8561
 4370TIP3    H234746   1.093   6.419   0.718  1.4921  0.1241 -1.9476
 4371TIP3   OH234747   5.560   0.371   0.407  0.0112 -0.2140  0.3133
 4371TIP3    H134748   5.585   0.391   0.497  0.6830 -0.0218  0.0865
 4371TIP3    H234749   5.638   0.390   0.356 -0.5443  0.1912 -0.3834
 4372TIP3   OH234750   4.893   1.938   7.689 -0.3520  0.1822  0.4733
 4372TIP3    H134751   4.864   2.008   7.747  1.0994  0.7809  0.4884
 4372TIP3    H234752   4.886   1.975   7.601 -0.5666 -0.0080  0.4108
 4373TIP3   OH234753   6.639   7.004   0.557  0.0739  0.6198 -0.3378
 4373TIP3    H134754   6.711   7.057   0.590  1.0371 -0.6153 -0.4279
 4373TIP3    H234755   6.621   7.040   0.470 -0.0299  1.5057  0.0431
 4374TIP3   OH234756   6.400   7.252   0.395 -0.6596  0.4011  0.5386
 4374TIP3    H134757   6.355   7.312   0.335  0.5002  0.1187 -0.6504
 4374TIP3    H234758   6.488   7.243   0.358 -0.2459 -0.5916  1.7284
 4375TIP3   OH234759   2.506   3.160   1.341 -0.7302 -0.6106 -0.8575
 4375TIP3    H134760   2.484   3.145   1.433  1.2461 -2.3897 -0.6413
 4375TIP3    H234761   2.439   3.113   1.292 -0.9703 -0.8312 -0.3244
 4376TIP3   OH234762   1.481   0.099   7.495  0.3011 -0.5668 -0.0563
 4376TIP3    H134763   1.439   0.027   7.541 -0.2387 -0.0862  0.2121
 4376TIP3    H234764   1.449   0.091   7.405 -0.7936  0.1082  0.2625
 4377TIP3   OH234765   0.479   0.125   1.920  0.2498  0.4880 -0.9458
 4377TIP3    H134766   0.513   0.084   1.999  1.9282 -1.2675 -2.5187
 4377TIP3    H234767   0.531   0.205   1.910  1.6449 -0.4523 -1.4730
 4378TIP3   OH234768   1.160   5.931   1.726 -0.7047 -0.0103 -0.3907
 4378TIP3    H134769   1.178   5.839   1.742 -0.9075 -0.0660 -0.4697
 4378TIP3    H234770   1.098   5.956   1.795  0.5805  0.4907  0.5884
 4379TIP3   OH234771   0.506   6.493   0.954 -0.5264  0.0279 -0.5986
 4379TIP3    H134772   0.501   6.582   0.988 -0.7569  0.2247 -1.1382
 4379TIP3    H234773   0.420   6.455   0.972 -1.0781  0.5370 -2.0403
 4380TIP3   OH234774   6.723   6.159   1.305 -0.2083  0.1463 -0.8614
 4380TIP3    H134775   6.666   6.107   1.361 -1.9094  0.6899 -2.0415
 4380TIP3    H234776   6.739   6.104   1.229 -1.1290  0.8717 -1.6125
 4381TIP3   OH234777   4.998   1.526   8.383  0.1803  0.0785  0.6624
 4381TIP3    H134778   5.076   1.537   8.437  0.7679  0.0416 -0.1606
 4381TIP3    H234779   4.945   1.462   8.430  0.6797  0.0516  1.1938
 4382TIP3   OH234780   0.171   2.262   2.196 -0.4868  0.5224  0.2154
 4382TIP3    H134781   0.196   2.345   2.156 -0.6114 -0.3237 -1.6950
 4382TIP3    H234782   0.076   2.258   2.186 -0.3565 -0.3852 -0.8398
 4383TIP3   OH234783   5.545   0.537   1.014  0.1053 -0.0256  0.2904
 4383TIP3    H134784   5.502   0.566   0.933 -0.7317 -2.6361 -0.2463
 4383TIP3    H234785   5.604   0.609   1.037  0.4069  0.7297 -2.6750
 4384TIP3   OH234786   1.717   1.560   1.606 -0.1523 -0.4761  1.1563
 4384TIP3    H134787   1.653   1.573   1.535 -0.3176 -0.1978  1.3553
 4384TIP3    H234788   1.746   1.648   1.628  1.5212 -0.7103 -0.0340
 4385TIP3   OH234789   4.930   6.391   0.291  0.2092 -0.2428 -0.3452
 4385TIP3    H134790   4.855   6.445   0.265  1.2456  1.0495 -0.6796
 4385TIP3    H234791   4.951   6.340   0.213  0.6319  0.5118 -0.7293
 4386TIP3   OH234792   3.371   1.168   1.675 -0.3701 -0.0924 -0.7105
 4386TIP3    H134793   3.365   1.091   1.731  0.3837 -0.2670 -0.8712
 4386TIP3    H234794   3.463   1.195   1.680 -0.6642  0.9055 -0.5105
 4387TIP3   OH234795   7.050   6.678   0.367 -0.4716 -0.2346  0.1726
 4387TIP3    H134796   7.069   6.594   0.325 -1.7953  0.3151 -1.6222
 4387TIP3    H234797   7.129   6.730   0.353  0.2349 -1.0695  1.0213
 4388TIP3   OH234798   0.959   2.173   1.531 -0.3469 -0.3904 -0.1310
 4388TIP3    H134799   0.944   2.088   1.490 -0.7762 -0.9191  1.0897
 4388TIP3    H234800   0.874   2.217   1.526 -0.2774 -0.2743 -0.2524
 4389TIP3   OH234801   0.748   6.830   7.963  0.2160  0.4492 -0.1083
 4389TIP3    H134802   0.718   6.757   7.909 -0.5199 -0.7701  1.8936
 4389TIP3    H234803   0.841   6.838   7.943 -0.2934  0.8301 -2.4587
 4390TIP3   OH234804   0.183   6.402   0.011 -0.4667  0.1462  0.1842
 4390TIP3    H134805   0.251   6.466   0.033 -0.9773  0.4695  0.8495
 4390TIP3    H234806   0.213   6.362  -0.071 -0.0039  1.0395 -0.0901
 4391TIP3   OH234807   2.512   6.564   1.727  0.2906 -0.4699  0.2324
 4391TIP3    H134808   2.487   6.634   1.667  1.7596 -0.0108  0.1262
 4391TIP3    H234809   2.439   6.558   1.789 -0.2535  0.5362 -0.2984
 4392TIP3   OH234810   5.986   0.351   1.406 -0.5460  0.0744  0.5538
 4392TIP3    H134811   6.056   0.288   1.421 -0.6554 -0.3214 -0.5145
 4392TIP3    H234812   5.908   0.297   1.391 -0.8326  0.4835  0.5791
 4393TIP3   OH234813   5.797   1.585   0.824  0.4131 -0.0551  0.3834
 4393TIP3    H134814   5.754   1.572   0.908 -0.4128 -1.2466 -0.2004
 4393TIP3    H234815   5.861   1.514   0.818 -0.0821 -0.4498 -0.3231
 4394TIP3   OH234816   0.187   0.125   1.917  0.3331 -0.8652  0.4379
 4394TIP3    H134817   0.151   0.173   1.842  1.9756 -1.0436 -0.4782
 4394TIP3    H234818   0.278   0.153   1.921  0.4716 -1.5256  1.8452
 4395TIP3   OH234819   7.048   7.034   0.934  0.3133  0.5154 -0.3754
 4395TIP3    H134820   7.079   7.018   1.023  0.5398  0.2457 -0.5040
 4395TIP3    H234821   7.033   6.947   0.897 -0.0661  0.6324 -0.5026
 4396TIP3   OH234822   6.870   3.192   0.849 -0.4986  0.1468 -0.1373
 4396TIP3    H134823   6.927   3.127   0.807 -0.4565  1.0560 -1.5155
 4396TIP3    H234824   6.902   3.199   0.938  0.9822  0.0027 -0.6527
 4397TIP3   OH234825   1.893   0.715   0.892 -0.1671 -0.0140  0.0114
 4397TIP3    H134826   1.938   0.790   0.855  0.3895 -0.2160  0.2819
 4397TIP3    H234827   1.854   0.670   0.817 -2.4446  1.8107  0.0466
 4398TIP3   OH234828   6.096   6.586   0.996  0.0633  0.2207  0.1694
 4398TIP3    H134829   6.124   6.671   0.961  1.2725  0.9994  2.9576
 4398TIP3    H234830   6.027   6.607   1.058 -1.0866 -1.0443 -0.6483
 4399TIP3   OH234831   4.715   0.148   7.662  0.3889  0.5152 -0.3478
 4399TIP3    H134832   4.671   0.070   7.631 -0.3336  0.9771 -0.4859
 4399TIP3    H234833   4.803   0.143   7.624 -1.2715  2.4461 -4.7856
 4400TIP3   OH234834   5.626   0.860   2.000  0.9040 -0.1667 -0.0842
 4400TIP3    H134835   5.659   0.770   2.000 -3.1369 -1.7589  0.2394
 4400TIP3    H234836   5.619   0.883   1.907  2.5503  0.1198 -0.1614
 4401TIP3   OH234837   6.524   0.844   1.156  0.3730  0.0568 -0.0669
 4401TIP3    H134838   6.520   0.776   1.089  0.5380 -0.4964  0.4832
 4401TIP3    H234839   6.439   0.888   1.151  1.4013  1.9156 -2.6043
 4402TIP3   OH234840   6.281   0.606   2.374  0.1245  0.1237  0.1642
 4402TIP3    H134841   6.252   0.522   2.410  2.2006 -0.8628 -0.4096
 4402TIP3    H234842   6.204   0.640   2.329 -0.0245 -2.7271 -1.8808
 4403TIP3   OH234843   2.788   0.865   1.020 -0.4166 -0.4748 -0.0381
 4403TIP3    H134844   2.727   0.890   1.090  1.3416  1.2947  0.9213
 4403TIP3    H234845   2.806   0.772   1.036  0.8374  0.1530  2.6413
 4404TIP3   OH234846   6.055   0.725   1.193  0.0616 -0.3119 -0.1855
 4404TIP3    H134847   5.998   0.723   1.269 -0.7693  2.7982 -0.6494
 4404TIP3    H234848   6.141   0.750   1.229  0.1743 -0.9401 -0.0117
 4405TIP3   OH234849   0.191   4.121   1.557 -0.7229 -0.1979  0.3833
 4405TIP3    H134850   0.148   4.103   1.474 -0.1031 -0.8752  0.2018
 4405TIP3    H234851   0.239   4.040   1.577 -0.6439  0.0597  1.2565
 4406TIP3   OH234852   1.672   5.182   8.104  0.1439  0.1086 -0.5455
 4406TIP3    H134853   1.711   5.208   8.020  1.5554  0.7231  0.2965
 4406TIP3    H234854   1.637   5.263   8.140 -0.6727 -0.1983 -0.6310
 4407TIP3   OH234855   6.228   5.537   1.480  0.2613  0.0836 -0.1416
 4407TIP3    H134856   6.231   5.503   1.569  1.6340 -0.4714 -0.3779
 4407TIP3    H234857   6.168   5.478   1.433 -0.5497  0.4463  0.4349
 4408TIP3   OH234858   4.259   1.435   1.103 -0.0415 -0.1405  0.6164
 4408TIP3    H134859   4.243   1.415   1.196 -1.7394 -0.4920  0.2581
 4408TIP3    H234860   4.306   1.518   1.105  1.7714 -1.1505  1.8778
 4409TIP3   OH234861   7.045   3.135   1.553  0.3176 -0.0837  0.4711
 4409TIP3    H134862   6.975   3.082   1.513 -0.8966 -1.1511  3.8366
 4409TIP3    H234863   7.024   3.135   1.646  2.7444  2.7850  1.0703
 4410TIP3   OH234864   5.114   7.220   7.584 -0.0652 -0.2512 -0.0481
 4410TIP3    H134865   5.182   7.193   7.524 -1.0395 -0.3468 -1.1244
 4410TIP3    H234866   5.058   7.143   7.595  0.8003 -0.6375  1.9903
 4411TIP3   OH234867   0.837   0.749   1.634 -0.3192  0.1512 -0.4638
 4411TIP3    H134868   0.912   0.808   1.637 -0.2198  0.0599 -1.2255
 4411TIP3    H234869   0.819   0.737   1.541 -2.2059  1.3626 -0.2797
 4412TIP3   OH234870   5.786   1.863   0.870 -0.3805  0.3719 -0.7209
 4412TIP3    H134871   5.842   1.854   0.947  0.0186 -0.2461 -1.0855
 4412TIP3    H234872   5.760   1.774   0.848  0.0172  0.4945 -1.6834
 4413TIP3   OH234873   3.494   2.441   2.209 -0.1786 -0.7845 -0.5399
 4413TIP3    H134874   3.490   2.349   2.184  1.8955 -0.9289 -0.4048
 4413TIP3    H234875   3.513   2.439   2.303 -2.2211 -0.2202 -0.0972
 4414TIP3   OH234876   6.756   0.578   1.567 -1.3756  0.4184  0.5863
 4414TIP3    H134877   6.821   0.627   1.515 -1.8135 -0.8561 -1.2306
 4414TIP3    H234878   6.760   0.489   1.531 -2.3272 -0.2796  2.1911
 4415TIP3   OH234879   6.154   4.572   0.467  0.1786  0.8057  0.0731
 4415TIP3    H134880   6.097   4.544   0.395  0.2127 -0.4737  0.5292
 4415TIP3    H234881   6.096   4.621   0.526  0.0379  1.4098 -0.5585
 4416TIP3   OH234882   7.158   0.136   1.570 -0.2057  0.1132  0.0812
 4416TIP3    H134883   7.186   0.112   1.481 -1.6787 -0.1764 -0.3207
 4416TIP3    H234884   7.075   0.091   1.581 -0.2106  0.4611  1.4854
 4417TIP3   OH234885   3.397   2.319   6.741  0.1514 -0.2139 -0.1408
 4417TIP3    H134886   3.390   2.322   6.646  1.0197  1.6996 -0.1644
 4417TIP3    H234887   3.472   2.261   6.757  0.6704  0.3051 -0.6572
 4418TIP3   OH234888   3.868   0.791   1.815 -0.4202  0.1290 -0.0880
 4418TIP3    H134889   3.837   0.703   1.839 -0.2444 -0.0841 -0.6224
 4418TIP3    H234890   3.808   0.851   1.858 -0.6266 -0.2613  0.1682
 4419TIP3   OH234891   6.285   0.304   2.478  0.6339 -0.0524  0.5573
 4419TIP3    H134892   6.244   0.358   2.546 -1.2222 -0.1960 -0.4277
 4419TIP3    H234893   6.276   0.214   2.511 -0.7107 -0.1639 -0.0973
 4420TIP3   OH234894   5.339   1.768   1.611  0.2622 -0.0952 -0.0449
 4420TIP3    H134895   5.359   1.730   1.525 -3.1939 -1.7383 -0.2271
 4420TIP3    H234896   5.331   1.692   1.669 -1.3075  0.7381  0.8497
 4421TIP3   OH234897   5.645   1.089   6.526 -0.3664  0.5853  0.2626
 4421TIP3    H134898   5.619   1.137   6.448  2.2155  0.4956 -0.6899
 4421TIP3    H234899   5.692   1.012   6.493 -1.1026 -0.5773  1.8581
 4422TIP3   OH234900   0.658   7.272   6.976 -0.0485 -0.3529 -0.4291
 4422TIP3    H134901   0.679   7.189   6.933 -0.6772 -0.5919 -0.2753
 4422TIP3    H234902   0.586   7.251   7.035 -0.5276  0.4054 -0.7361
 4423TIP3   OH234903   5.530   0.540   2.164  0.1735 -0.4821  0.3713
 4423TIP3    H134904   5.546   0.516   2.072 -0.4750  0.6932 -0.0568
 4423TIP3    H234905   5.618   0.542   2.203  0.5342 -0.2311 -0.4252
 4424TIP3   OH234906   5.644   1.046   0.609  0.7567  0.0715  0.0402
 4424TIP3    H134907   5.582   1.114   0.583  1.6712  0.6267 -0.7016
 4424TIP3    H234908   5.688   1.020   0.528  1.2981 -0.5097  0.5117
 4425TIP3   OH234909   6.536   0.475   0.382 -0.0579 -0.0004 -0.6205
 4425TIP3    H134910   6.441   0.465   0.376  0.0665 -0.5413 -1.7553
 4425TIP3    H234911   6.571   0.407   0.325  1.0262 -0.0881  0.1344
 4426TIP3   OH234912   1.351   0.465   1.769 -0.3588 -0.6925  0.3498
 4426TIP3    H134913   1.373   0.418   1.850 -0.4585 -0.2894  0.6090
 4426TIP3    H234914   1.421   0.529   1.758  0.1678 -1.3792 -0.3920
 4427TIP3   OH234915   4.609   0.380   0.013  0.1567  0.1861 -0.6555
 4427TIP3    H134916   4.657   0.350  -0.064  1.0009  0.9805 -0.4534
 4427TIP3    H234917   4.646   0.330   0.085  0.4164  0.5190 -0.5557
 4428TIP3   OH234918   6.649   6.930   2.371 -0.2044  0.4411  0.3291
 4428TIP3    H134919   6.699   6.963   2.296  1.1650  2.4375  2.0777
 4428TIP3    H234920   6.591   6.864   2.333  1.5574  0.2857 -2.2423
 4429TIP3   OH234921   5.677   7.293   8.406  0.7494 -0.3514 -0.0927
 4429TIP3    H134922   5.725   7.376   8.397  0.6477 -0.2898 -0.0810
 4429TIP3    H234923   5.627   7.286   8.324 -0.0449  0.1204  0.3452
 4430TIP3   OH234924   4.923   6.476   0.765  0.2447 -0.0676 -0.1426
 4430TIP3    H134925   4.846   6.434   0.725 -2.1913  2.3868  1.8121
 4430TIP3    H234926   4.975   6.507   0.691 -0.7480 -1.5271 -1.4872
 4431TIP3   OH234927   5.186   0.143   0.530  0.1081  0.1085 -0.0957
 4431TIP3    H134928   5.104   0.143   0.480 -0.8997  1.0683  1.4987
 4431TIP3    H234929   5.204   0.051   0.547 -0.7025 -0.1087 -0.3692
 4432TIP3   OH234930   5.972   6.322   1.301  0.6996  0.0131 -0.0078
 4432TIP3    H134931   5.956   6.250   1.241  1.9130  0.9650 -1.5037
 4432TIP3    H234932   5.885   6.347   1.333  0.2538 -1.9259  0.3366
 4433TIP3   OH234933   1.306   0.139   0.030  0.5609  0.0015  0.5239
 4433TIP3    H134934   1.347   0.064   0.072  1.2961  0.5811  0.8487
 4433TIP3    H234935   1.236   0.165   0.089 -0.1349 -0.8428  0.0825
 4434TIP3   OH234936   6.439   6.925   6.294  0.0898  0.1267  0.0685
 4434TIP3    H134937   6.476   6.887   6.215  0.1081  1.4178 -0.5596
 4434TIP3    H234938   6.504   6.989   6.323 -1.8013  2.7470 -1.3076
 4435TIP3   OH234939   6.475   1.214   1.588  0.2391  0.2488 -0.5332
 4435TIP3    H134940   6.552   1.173   1.627 -0.9859  1.2189  3.1412
 4435TIP3    H234941   6.403   1.155   1.609 -0.7649  1.8066  0.4692
 4436TIP3   OH234942   6.112   6.598   0.664 -0.1561 -0.5868 -0.5379
 4436TIP3    H134943   6.050   6.659   0.704 -1.6126 -1.7145 -1.0769
 4436TIP3    H234944   6.166   6.568   0.738 -1.1704 -0.7023  0.1622
 4437TIP3   OH234945   7.231   6.572   8.456 -0.3833 -0.0131 -0.0201
 4437TIP3    H134946   7.150   6.586   8.505  0.3118  0.0581  1.1200
 4437TIP3    H234947   7.295   6.631   8.496  0.6235 -1.1173  0.0574
 4438TIP3   OH234948   6.182   1.524   1.902  0.0033  0.1663  0.1948
 4438TIP3    H134949   6.245   1.453   1.897  0.4210  0.6374 -1.9502
 4438TIP3    H234950   6.212   1.587   1.836 -0.8022  1.9552  1.5050
 4439TIP3   OH234951   0.399   2.501   1.685  0.1502 -0.7595 -0.5223
 4439TIP3    H134952   0.340   2.466   1.753  0.5726 -0.7119 -0.1269
 4439TIP3    H234953   0.434   2.424   1.642  2.8997 -0.9408  1.8987
 4440TIP3   OH234954   6.444   1.886   1.830  0.4357 -0.3456 -0.7547
 4440TIP3    H134955   6.445   1.795   1.800  0.3571 -0.7999  0.5422
 4440TIP3    H234956   6.524   1.894   1.883 -0.5078 -0.2224  0.6732
 4441TIP3   OH234957   1.275   6.875   0.533 -0.2160 -0.2604  0.1709
 4441TIP3    H134958   1.369   6.865   0.547  0.0421  1.0688 -0.5276
 4441TIP3    H234959   1.250   6.803   0.475  0.9938  1.2463 -2.2811
 4442TIP3   OH234960   1.074   7.123   0.103  0.6118  0.0035  0.2212
 4442TIP3    H134961   1.141   7.169   0.053 -1.6667  0.3799 -2.6413
 4442TIP3    H234962   1.048   7.184   0.171  2.1402  0.4038  0.4563
 4443TIP3   OH234963   0.102   0.938   1.966 -0.1420 -0.2863 -0.0866
 4443TIP3    H134964   0.136   1.015   1.921  1.2730 -0.4953  0.5940
 4443TIP3    H234965   0.030   0.908   1.911 -0.2960  1.1521 -0.6812
 4444TIP3   OH234966   0.505   0.618   2.007  0.1796 -0.4256  0.1947
 4444TIP3    H134967   0.542   0.682   1.946 -1.2673  0.0875 -0.1588
 4444TIP3    H234968   0.486   0.669   2.086  1.9957 -1.0780  1.0871
 4445TIP3   OH234969   0.704   6.507   8.115  0.1172 -0.2187 -0.3570
 4445TIP3    H134970   0.746   6.587   8.145  0.5020 -1.5086  2.7356
 4445TIP3    H234971   0.668   6.529   8.029  0.7870  3.0402  0.1470
 4446TIP3   OH234972   5.521   1.465   1.062 -0.1349 -0.4655  0.0450
 4446TIP3    H134973   5.601   1.513   1.040 -1.2878  1.5685  0.1092
 4446TIP3    H234974   5.542   1.418   1.143  1.3743 -0.9692 -0.6243
 4447TIP3   OH234975   0.459   5.724   0.620  0.2976  0.4937  0.0323
 4447TIP3    H134976   0.434   5.657   0.557  2.3751  0.0445 -0.3526
 4447TIP3    H234977   0.538   5.689   0.662 -0.1844  1.4701  1.7828
 4448TIP3   OH234978   0.404   0.423   1.122  0.2797 -0.2430  0.0045
 4448TIP3    H134979   0.370   0.491   1.180 -0.1692 -1.2309  0.9368
 4448TIP3    H234980   0.499   0.425   1.134  0.1865 -0.4916  0.8610
 4449TIP3   OH234981   1.459   0.517   0.355  0.3104 -0.0349  0.0297
 4449TIP3    H134982   1.383   0.558   0.397  0.4987  0.7960 -0.4347
 4449TIP3    H234983   1.525   0.587   0.351 -0.0520  0.2128 -2.5881
 4450TIP3   OH234984   5.808   0.642   1.990 -0.4222  0.4105 -0.1964
 4450TIP3    H134985   5.792   0.623   2.082  0.6202  1.2141  0.1546
 4450TIP3    H234986   5.900   0.668   1.986 -0.0634 -1.0009 -1.6870
 4451TIP3   OH234987   5.226   0.817   1.442  0.6619  0.3592  0.8443
 4451TIP3    H134988   5.283   0.777   1.376 -2.9421 -1.9886 -0.9786
 4451TIP3    H234989   5.197   0.898   1.402 -1.6761 -1.1558 -0.6289
 4452TIP3   OH234990   7.230   1.196   1.963  0.0920  0.4762 -0.7115
 4452TIP3    H134991   7.172   1.123   1.940  1.7905 -1.5020  1.1442
 4452TIP3    H234992   7.211   1.213   2.055  2.0419  0.1710 -0.2370
 4453TIP3   OH234993   6.373   0.509   1.943 -0.1555 -0.2650 -0.5179
 4453TIP3    H134994   6.322   0.471   1.872  1.0677 -1.0183 -1.0062
 4453TIP3    H234995   6.435   0.567   1.900  0.3908 -0.4971 -0.0405
 4454TIP3   OH234996   6.083   0.558   0.630 -0.1087  0.0497  0.2023
 4454TIP3    H134997   6.070   0.525   0.541 -1.3776  0.6187  0.1542
 4454TIP3    H234998   6.163   0.516   0.661  0.1781 -0.3756 -1.1040
 4455TIP3   OH234999   6.470   1.642   1.727 -0.1279  0.1447 -0.3185
 4455TIP3    H135000   6.531   1.587   1.776 -1.1575 -0.5324  0.2197
 4455TIP3    H235001   6.501   1.637   1.636 -0.3403 -1.5048 -0.3061
 4456TIP3   OH235002   6.165   1.723   1.659 -0.0736 -0.0033 -0.1732
 4456TIP3    H135003   6.202   1.811   1.648  0.1655 -0.4424 -3.1582
 4456TIP3    H235004   6.098   1.734   1.727  1.0058  2.1543  0.5792
 4457TIP3   OH235005   6.158   2.118   1.469 -0.7446 -0.3158 -0.1255
 4457TIP3    H135006   6.189   2.100   1.558 -0.6990 -0.8912 -0.2561
 4457TIP3    H235007   6.221   2.182   1.434  0.5393 -1.7826 -0.5294
 4458TIP3   OH235008   4.068   1.094   1.568 -0.4733  0.4612 -0.5851
 4458TIP3    H135009   4.126   1.076   1.494 -0.1332  0.2574 -0.2685
 4458TIP3    H235010   4.037   1.008   1.596 -0.2601  0.5012 -0.2170
 4459TIP3   OH235011   6.906   7.081   0.217  0.1106 -0.4108  0.6068
 4459TIP3    H135012   6.917   7.176   0.206 -0.5895 -0.3316  0.5779
 4459TIP3    H235013   6.983   7.054   0.267  1.2660 -0.1228 -0.9877
 4460TIP3   OH235014   7.082   7.210   0.570 -0.3654 -0.1137  0.6266
 4460TIP3    H135015   7.130   7.289   0.543 -1.9555  0.5011 -0.4541
 4460TIP3    H235016   7.143   7.165   0.628  1.5174  0.6897 -0.6445
 4461TIP3   OH235017   5.052   1.354   1.109 -0.7756  0.5572 -0.2311
 4461TIP3    H135018   5.072   1.288   1.176 -0.0278  0.8575 -0.1541
 4461TIP3    H235019   4.964   1.333   1.080 -1.2188  0.5938  1.0603
 4462TIP3   OH235020   0.584   1.471   2.050  0.3731  0.1304  0.0380
 4462TIP3    H135021   0.677   1.482   2.029  0.6245 -0.1883  0.9527
 4462TIP3    H235022   0.553   1.560   2.068  0.9943  0.0434  1.6862
 4463TIP3   OH235023   5.872   0.293   2.140  0.2359 -0.1421  0.6163
 4463TIP3    H135024   5.957   0.337   2.142  0.6645 -0.8276 -1.1654
 4463TIP3    H235025   5.884   0.217   2.197  0.5278  0.2641  1.1029
 4464TIP3   OH235026   0.182   0.673   1.487  0.2938 -0.3619  0.4204
 4464TIP3    H135027   0.242   0.740   1.521  1.0840 -0.7357 -0.2174
 4464TIP3    H235028   0.230   0.591   1.497 -0.1975 -0.6873  0.1046
 4465TIP3   OH235029   5.045   7.259   1.715 -0.4222 -0.4178  0.5371
 4465TIP3    H135030   5.060   7.171   1.679  0.7385 -0.3164  0.7595
 4465TIP3    H235031   5.000   7.243   1.798 -0.9410 -0.7612  0.1963
 4466TIP3   OH235032   5.718   2.583   8.177 -0.5495  0.1443  0.0832
 4466TIP3    H135033   5.727   2.589   8.082 -1.0140  0.2557  0.0466
 4466TIP3    H235034   5.761   2.501   8.200  2.7715  1.7926  0.1846
 4467TIP3   OH235035   6.106   2.801   2.204 -0.1061  0.5510 -0.4763
 4467TIP3    H135036   6.075   2.752   2.128 -1.5992 -0.0998  0.5198
 4467TIP3    H235037   6.052   2.880   2.206 -0.2863  0.4206  0.0607
 4468TIP3   OH235038   4.714   6.695   1.605 -0.7038 -0.4663  0.3317
 4468TIP3    H135039   4.634   6.655   1.638  0.1018  0.2994  3.3258
 4468TIP3    H235040   4.741   6.637   1.533 -2.2636 -2.4492  1.2723
 4469TIP3   OH235041   5.201   0.402   1.146 -0.8014  0.5843  0.2279
 4469TIP3    H135042   5.283   0.445   1.170 -0.1977  0.3002 -1.2705
 4469TIP3    H235043   5.216   0.371   1.057 -1.6026 -1.8120  0.9057
 4470TIP3   OH235044   5.684   1.753   1.590  0.0471  0.1957  0.0216
 4470TIP3    H135045   5.602   1.788   1.623  0.1572 -1.6575  2.4107
 4470TIP3    H235046   5.749   1.820   1.612 -0.4223  0.5123  0.4537
 4471TIP3   OH235047   0.206   0.372   0.089 -0.1628 -0.3281 -0.0060
 4471TIP3    H135048   0.259   0.305   0.045 -1.1276 -1.0740 -0.0349
 4471TIP3    H235049   0.162   0.418   0.018  2.0016  1.6380 -0.1218
 4472TIP3   OH235050   1.349   0.189   7.229  0.0496  0.7507 -0.2838
 4472TIP3    H135051   1.374   0.276   7.260 -0.6464  0.5159  0.9668
 4472TIP3    H235052   1.254   0.193   7.221  0.1200  0.4676 -1.3869
 4473TIP3   OH235053   1.978   5.134   0.738 -0.3126 -0.1655  0.5269
 4473TIP3    H135054   2.014   5.050   0.709 -0.6402  0.4987 -1.8816
 4473TIP3    H235055   2.029   5.156   0.816  0.0815 -2.3734  0.9382
 4474TIP3   OH235056   0.213   0.091   0.795 -0.2541 -0.4147  0.1908
 4474TIP3    H135057   0.193   0.174   0.838 -0.2961  0.8798 -2.2330
 4474TIP3    H235058   0.128   0.046   0.788 -0.7036  0.6056 -1.0351
 4475TIP3   OH235059   4.678   5.457   1.872  0.5948  0.6078  0.3088
 4475TIP3    H135060   4.693   5.464   1.967 -0.1765 -0.1321  0.4914
 4475TIP3    H235061   4.718   5.374   1.847 -1.6317 -0.5833  0.5071
 4476TIP3   OH235062   6.361   6.750   1.256 -0.2532 -0.0007 -0.3900
 4476TIP3    H135063   6.417   6.790   1.323 -0.7120 -0.2402  0.1495
 4476TIP3    H235064   6.373   6.804   1.179  0.4353  0.1701 -0.1699
 4477TIP3   OH235065   0.097   0.240   1.697 -0.1967  0.3640 -0.0520
 4477TIP3    H135066   0.170   0.296   1.672 -0.7833  1.7996  1.3782
 4477TIP3    H235067   0.032   0.251   1.628  0.9017 -0.9063 -1.3217
 4478TIP3   OH235068   4.852   2.774   0.046 -0.1958  0.0314 -0.2284
 4478TIP3    H135069   4.870   2.766  -0.048 -0.1892  0.0638 -0.2290
 4478TIP3    H235070   4.923   2.828   0.079 -0.4653  0.4162 -0.2852
 4479TIP3   OH235071   6.368   6.468   6.734 -0.6740  0.1406 -0.0557
 4479TIP3    H135072   6.286   6.421   6.752 -0.9750  0.5651 -0.3277
 4479TIP3    H235073   6.341   6.545   6.684 -0.2610  1.0107  1.0633
 4480TIP3   OH235074   1.722   0.495   0.708  0.2300 -0.0255 -0.0592
 4480TIP3    H135075   1.714   0.399   0.705 -0.0391 -0.0157  0.3454
 4480TIP3    H235076   1.815   0.511   0.692 -0.1002 -0.2404 -2.3438
 4481TIP3   OH235077   5.958   7.334   2.080 -0.3492  0.0543 -0.3482
 4481TIP3    H135078   5.978   7.246   2.110 -0.2699 -0.3740 -1.6318
 4481TIP3    H235079   5.901   7.371   2.148  0.8970 -0.4200  0.9526
 4482TIP3   OH235080   3.961   1.330   0.387  0.2569 -0.4388  0.1173
 4482TIP3    H135081   4.017   1.405   0.367  0.5184 -0.2451  1.5334
 4482TIP3    H235082   3.936   1.343   0.478  0.7617 -2.3672  0.5490
 4483TIP3   OH235083   4.954   2.768   7.168 -0.2506 -0.6450 -0.0756
 4483TIP3    H135084   5.006   2.727   7.236 -0.3164 -0.4825  0.0744
 4483TIP3    H235085   4.904   2.696   7.129  1.2740 -1.0580 -1.3046
 4484TIP3   OH235086   5.589   3.484   1.570  0.1754  0.3685 -0.2573
 4484TIP3    H135087   5.513   3.470   1.514 -0.4981  0.0285  0.7165
 4484TIP3    H235088   5.554   3.476   1.659  1.0544  1.6911  0.2237
 4485TIP3   OH235089   5.775   2.588   1.653 -0.1230  0.2727  0.1187
 4485TIP3    H135090   5.797   2.517   1.714 -0.8725  0.2159  0.3284
 4485TIP3    H235091   5.718   2.646   1.703 -0.4553  0.4169 -0.4221
 4486TIP3   OH235092   0.468   1.295   1.445 -0.0623  0.4246 -0.5593
 4486TIP3    H135093   0.534   1.329   1.386 -0.0419  1.3184 -0.0332
 4486TIP3    H235094   0.483   1.342   1.527 -0.8582  0.0772 -0.2098
 4487TIP3   OH235095   4.745   0.277   7.248  0.0766  0.0180 -0.2966
 4487TIP3    H135096   4.743   0.211   7.180 -0.2332  0.3002 -0.5609
 4487TIP3    H235097   4.674   0.254   7.308  1.2399 -1.0481  0.7034
 4488TIP3   OH235098   6.545   0.560   2.173 -0.3689  0.9308  0.7818
 4488TIP3    H135099   6.487   0.575   2.098  0.5696  1.1895  0.0962
 4488TIP3    H235100   6.522   0.472   2.203  0.7177 -0.0625 -1.1785
 4489TIP3   OH235101   5.784   6.321   7.863  0.1789 -0.0717  0.3617
 4489TIP3    H135102   5.824   6.322   7.776  1.7919  0.2533  1.0861
 4489TIP3    H235103   5.853   6.289   7.920 -1.2775 -1.4912  1.3478
 4490TIP3   OH235104   6.891   1.870   1.630 -0.1452  0.3883  0.2439
 4490TIP3    H135105   6.959   1.924   1.671  1.6687 -0.9675 -0.9097
 4490TIP3    H235106   6.824   1.932   1.603  0.9625  1.8373  0.7574
 4491TIP3   OH235107   6.511   2.206   1.694  0.2115  0.1297  0.1713
 4491TIP3    H135108   6.460   2.125   1.688 -0.4667  0.6145 -0.7666
 4491TIP3    H235109   6.516   2.225   1.788 -0.9595 -0.1673  0.2963
 4492TIP3   OH235110   4.429   1.145   0.385  0.3931  0.0256 -0.8008
 4492TIP3    H135111   4.440   1.063   0.435 -1.3544  0.6617  0.6647
 4492TIP3    H235112   4.348   1.132   0.336  0.1045  0.8881 -0.5489
 4493TIP3   OH235113   0.381   6.679   0.197 -0.8293  0.3135  0.0006
 4493TIP3    H135114   0.357   6.587   0.208  0.2481  0.2092  1.5359
 4493TIP3    H235115   0.472   6.676   0.168 -0.7258  0.9081  0.2698
 4494TIP3   OH235116   0.322   6.751   0.770  0.5422  0.1608  0.2994
 4494TIP3    H135117   0.229   6.767   0.755  0.6600  0.4277 -0.1584
 4494TIP3    H235118   0.343   6.802   0.848  0.6448  1.2982 -0.4593
 4495TIP3   OH235119   5.096   4.373   0.264  0.3021  0.6946 -0.4275
 4495TIP3    H135120   5.113   4.377   0.358 -1.7143  3.2420 -0.1230
 4495TIP3    H235121   5.177   4.404   0.224  0.8114  0.5787  0.5046
 4496TIP3   OH235122   5.317   2.961   1.705 -0.2226 -0.2863  0.5101
 4496TIP3    H135123   5.405   2.992   1.725 -0.8734  1.3491  0.8598
 4496TIP3    H235124   5.306   2.882   1.758  0.4870  0.3429  1.5972
 4497TIP3   OH235125   5.519   0.272   0.957  0.4685 -0.1285  0.0329
 4497TIP3    H135126   5.521   0.361   0.992  1.9505 -0.2120  0.1772
 4497TIP3    H235127   5.595   0.229   0.996  1.6331 -0.4971 -2.5362
 4498TIP3   OH235128   5.642   6.407   1.984 -0.3807 -0.4187  0.4335
 4498TIP3    H135129   5.707   6.372   1.923 -0.8492 -0.9459  0.2314
 4498TIP3    H235130   5.688   6.412   2.068 -0.1459 -1.0038  0.3434
 4499TIP3   OH235131   5.276   0.594   1.739 -0.1621 -0.5806 -0.1890
 4499TIP3    H135132   5.352   0.544   1.768  0.0366  0.9292  1.9921
 4499TIP3    H235133   5.299   0.624   1.652  2.1465  0.6455  0.8101
 4500TIP3   OH235134   0.544   0.331   1.667  0.2272  0.8798  0.0010
 4500TIP3    H135135   0.571   0.399   1.605  0.2148  0.2353 -0.7129
 4500TIP3    H235136   0.610   0.334   1.736  0.8149  0.9028 -0.5588
 4501TIP3   OH235137   6.190   6.426   0.447 -0.3807  0.0228 -0.8743
 4501TIP3    H135138   6.141   6.352   0.483  1.1451 -0.0338  1.1239
 4501TIP3    H235139   6.166   6.500   0.503  1.9437 -0.0394  0.2251
 4502TIP3   OH235140   4.820   1.451   0.499  0.3112  0.0776 -0.4233
 4502TIP3    H135141   4.876   1.389   0.452 -0.9024 -1.7005  0.4073
 4502TIP3    H235142   4.731   1.426   0.474 -0.2892 -0.0857  1.7875
 4503TIP3   OH235143   6.869   0.140   1.633  0.1030 -0.0715 -0.2248
 4503TIP3    H135144   6.820   0.220   1.612  0.7238  0.4483  0.2665
 4503TIP3    H235145   6.927   0.166   1.704  1.2562 -0.6013 -0.9530
 4504TIP3   OH235146   7.066   6.957   8.388 -0.0841 -0.1730  0.3393
 4504TIP3    H135147   7.151   6.919   8.409 -0.1876  0.2768  1.6235
 4504TIP3    H235148   7.003   6.901   8.434 -0.3739  0.3395  0.5777
 4505TIP3   OH235149   5.418   0.528   2.404  0.4204 -0.1326 -0.2625
 4505TIP3    H135150   5.323   0.523   2.389  0.3560 -1.2862  0.4846
 4505TIP3    H235151   5.453   0.563   2.323 -0.7672  1.4059 -0.1529
 4506TIP3   OH235152   6.068   6.883   0.399  0.7021  0.0208 -0.3468
 4506TIP3    H135153   6.019   6.826   0.339 -0.3012  0.4292  0.0743
 4506TIP3    H235154   6.160   6.861   0.383  0.3315 -1.8544 -0.0503
 4507TIP3   OH235155   5.906   1.479   2.115 -0.3353 -0.0349  0.1668
 4507TIP3    H135156   5.952   1.459   2.196 -1.4336 -0.3637  0.7068
 4507TIP3    H235157   5.887   1.394   2.076  1.8027  0.1479 -1.3590
 4508TIP3   OH235158   0.609   7.260   2.138  0.3320 -0.0560 -0.3542
 4508TIP3    H135159   0.634   7.249   2.230 -0.1561 -0.7389 -0.2995
 4508TIP3    H235160   0.678   7.314   2.101  1.6963 -1.6034 -0.1214
 4509TIP3   OH235161   5.399   2.110   0.094  0.3955 -0.0747  0.4251
 4509TIP3    H135162   5.382   2.179   0.158 -1.0947  1.2271 -1.3292
 4509TIP3    H235163   5.335   2.042   0.114 -0.3860  0.5384  0.0273
 4510TIP3   OH235164   5.872   1.461   1.369 -0.2429 -0.1878 -0.0832
 4510TIP3    H135165   5.852   1.465   1.463  1.3437  1.1462  0.2140
 4510TIP3    H235166   5.940   1.528   1.356  0.2954 -1.0832 -1.9895
 4511TIP3   OH235167   3.229   1.571   1.358  0.7965 -0.1003 -0.1527
 4511TIP3    H135168   3.172   1.498   1.337  1.8082 -0.8643 -0.2978
 4511TIP3    H235169   3.292   1.535   1.421  1.8133  0.4077 -0.8552
 4512TIP3   OH235170   6.185   7.316   0.906 -0.2652 -0.3855 -0.1968
 4512TIP3    H135171   6.278   7.310   0.926 -0.7424 -0.0878  2.2860
 4512TIP3    H235172   6.181   7.319   0.811  2.3566  1.0941 -0.2988
 4513TIP3   OH235173   7.139   1.783   2.190  0.5774 -0.5427  0.1809
 4513TIP3    H135174   7.217   1.837   2.178  1.0876 -1.5538 -1.1517
 4513TIP3    H235175   7.068   1.847   2.199  1.3807  0.3708  0.1614
 4514TIP3   OH235176   2.425   1.928   8.470  0.0922  0.2223 -0.3667
 4514TIP3    H135177   2.443   1.977   8.391 -0.1473 -0.5489 -0.9067
 4514TIP3    H235178   2.388   1.992   8.531  0.6563  0.9000 -0.7328
 4515TIP3   OH235179   6.919   0.395   0.320  0.0925 -0.0827 -0.1267
 4515TIP3    H135180   6.897   0.488   0.310 -0.9027 -0.1570  1.2478
 4515TIP3    H235181   6.990   0.395   0.384  1.4455 -0.1454 -1.5844
 4516TIP3   OH235182   5.956   6.730   1.715  0.0131  0.2909  0.1904
 4516TIP3    H135183   6.041   6.720   1.673 -0.0527  1.4975 -0.2549
 4516TIP3    H235184   5.967   6.690   1.801  1.2588  1.1150  0.4249
 4517TIP3   OH235185   6.193   0.381   1.759 -0.0835 -0.1491  0.4943
 4517TIP3    H135186   6.171   0.438   1.685  1.5495 -0.9440 -0.6417
 4517TIP3    H235187   6.109   0.362   1.801 -0.7831  2.1587  0.2147
 4518TIP3   OH235188   6.863   0.086   0.725  0.1021  0.1857  0.2567
 4518TIP3    H135189   6.863   0.050   0.814 -1.2188 -0.3141  0.0604
 4518TIP3    H235190   6.788   0.045   0.683 -0.9790  2.6105 -0.2071
 4519TIP3   OH235191   2.194   2.083   1.926 -0.5720 -0.0776  0.2082
 4519TIP3    H135192   2.166   2.064   2.016 -2.6165  1.9840  0.0621
 4519TIP3    H235193   2.238   2.168   1.932 -0.6279  0.0159 -0.7281
 4520TIP3   OH235194   0.456   0.160   0.531 -0.0350  0.5901 -0.2719
 4520TIP3    H135195   0.362   0.174   0.519  0.1027  1.1607 -0.7384
 4520TIP3    H235196   0.464   0.116   0.615 -0.7016  0.8499 -0.0741
 4521TIP3   OH235197   6.811   0.347   1.403  0.0570 -0.0598  0.4343
 4521TIP3    H135198   6.763   0.268   1.376  0.4815 -0.6720  1.4453
 4521TIP3    H235199   6.895   0.339   1.357  0.5846 -0.8484  1.5008
 4522TIP3   OH235200   4.789   1.194   1.441 -0.5942  0.0058  0.0093
 4522TIP3    H135201   4.699   1.185   1.473 -0.3483 -0.6447  0.5273
 4522TIP3    H235202   4.819   1.105   1.427  0.1291  0.2015  0.2827
 4523TIP3   OH235203   2.455   1.380   0.543  0.7560 -0.0700 -0.1877
 4523TIP3    H135204   2.397   1.355   0.471  0.0702  1.9771 -0.3675
 4523TIP3    H235205   2.397   1.393   0.617  1.0490  1.3164 -0.1897
 4524TIP3   OH235206   6.775   7.045   8.309 -0.2332 -0.1836  0.5594
 4524TIP3    H135207   6.803   7.085   8.391  3.2936 -0.2755 -0.4966
 4524TIP3    H235208   6.855   7.007   8.273 -2.4661 -3.6738 -0.9871
 4525TIP3   OH235209   6.846   6.698   2.420  0.7661  0.2777 -0.0111
 4525TIP3    H135210   6.896   6.777   2.400 -1.5966  1.6679 -0.6071
 4525TIP3    H235211   6.756   6.729   2.433  0.1293 -2.0871  1.5391
 4526TIP3   OH235212   5.346   0.018   0.162  0.6580  0.3900 -0.0764
 4526TIP3    H135213   5.438   0.010   0.140  0.7630 -0.4127  0.6363
 4526TIP3    H235214   5.342   0.090   0.225  0.8263  0.3002  0.0376
 4527TIP3   OH235215   6.652   3.353   2.151 -0.1747 -0.1592  0.1783
 4527TIP3    H135216   6.717   3.367   2.219 -0.1009 -0.9503  0.2829
 4527TIP3    H235217   6.570   3.386   2.187 -0.3759 -1.6199  1.1236
 4528TIP3   OH235218   4.905   7.077   1.185 -0.0772  0.1509  0.2099
 4528TIP3    H135219   4.876   7.028   1.262  2.3624  1.0254  1.7606
 4528TIP3    H235220   4.947   7.011   1.129  0.0748 -0.1261  0.6467
 4529TIP3   OH235221   5.341   1.299   1.930 -0.2091  0.2965 -0.4381
 4529TIP3    H135222   5.258   1.268   1.966  0.3851  1.2498  1.8435
 4529TIP3    H235223   5.365   1.373   1.986  0.4109  2.2957 -3.2540
 4530TIP3   OH235224   6.521   0.652   1.468 -0.3446  0.3525  0.4080
 4530TIP3    H135225   6.503   0.745   1.479 -1.8250  0.2331 -0.8084
 4530TIP3    H235226   6.609   0.640   1.502  0.6361  2.5807 -1.2532
 4531TIP3   OH235227   5.874   1.174   1.319  0.1134  0.2021 -0.2151
 4531TIP3    H135228   5.855   1.199   1.228  2.3407 -1.4871 -1.1837
 4531TIP3    H235229   5.901   1.256   1.360  1.5634  0.5593 -1.7903
 4532TIP3   OH235230   5.672   1.635   2.215  0.1281  0.5086 -0.0487
 4532TIP3    H135231   5.730   1.568   2.178 -1.0179 -0.1144 -0.7484
 4532TIP3    H235232   5.685   1.711   2.159  0.1904  0.3381 -0.2679
 4533TIP3   OH235233   3.675   2.203   2.467  0.2531 -0.0622 -0.2368
 4533TIP3    H135234   3.690   2.255   2.389 -0.0665 -0.5861 -0.6533
 4533TIP3    H235235   3.756   2.209   2.517 -0.4857  2.5130  0.7117
 4534TIP3   OH235236   5.635   0.789   1.138  0.3655 -0.2865  0.8154
 4534TIP3    H135237   5.694   0.798   1.213  1.4609 -2.2621  0.2037
 4534TIP3    H235238   5.675   0.843   1.069 -0.6262  1.5057  1.5893
 4535TIP3   OH235239   5.795   2.061   1.895  0.4496 -0.0549  0.3481
 4535TIP3    H135240   5.712   2.108   1.905  0.9950  0.7202  1.3117
 4535TIP3    H235241   5.834   2.062   1.982  0.5256 -2.2479  0.3771
 4536TIP3   OH235242   6.725   7.046   1.600  0.1270  0.0174 -0.1612
 4536TIP3    H135243   6.789   7.116   1.587 -0.2327  0.4726  0.4595
 4536TIP3    H235244   6.775   6.975   1.640 -0.1725  1.1930  2.4263
 4537TIP3   OH235245   0.359   1.029   1.431 -0.3126 -0.1232  0.4218
 4537TIP3    H135246   0.428   1.081   1.391 -0.8461  0.0745 -0.2686
 4537TIP3    H235247   0.294   1.093   1.459 -0.4793 -0.3442  0.5471
 4538TIP3   OH235248   5.798   1.810   8.409 -0.0335  0.2834 -0.5408
 4538TIP3    H135249   5.865   1.878   8.412  0.3121 -0.1351  2.5019
 4538TIP3    H235250   5.751   1.819   8.492 -2.1842 -1.0112 -1.5749
 4539TIP3   OH235251   6.314   6.134   8.321  0.2104 -0.5061 -0.5371
 4539TIP3    H135252   6.270   6.113   8.403  1.8746 -2.1083 -0.0403
 4539TIP3    H235253   6.394   6.082   8.322  1.0243  0.6589 -2.4603
 4540TIP3   OH235254   7.265   7.186   1.093 -0.1223  0.0015 -0.1636
 4540TIP3    H135255   7.201   7.125   1.130 -0.5744 -0.0914 -1.0672
 4540TIP3    H235256   7.290   7.146   1.009 -0.2942  0.9654 -0.6805
 4541TIP3   OH235257   0.691   6.410   1.493 -0.2302  0.2921  0.3297
 4541TIP3    H135258   0.745   6.456   1.556  0.5371 -0.2059  0.0387
 4541TIP3    H235259   0.699   6.318   1.515 -1.3542  0.2409  0.5874
 4542TIP3   OH235260   0.391   0.291   2.195  0.5186  0.1428  0.4595
 4542TIP3    H135261   0.407   0.350   2.269 -0.1112 -0.4597  1.0918
 4542TIP3    H235262   0.384   0.204   2.235 -1.6141  0.0288 -0.0754
 4543TIP3   OH235263   6.158   0.549   1.518 -0.1492  0.4546  0.3850
 4543TIP3    H135264   6.095   0.494   1.472 -0.9150  0.7604  1.0589
 4543TIP3    H235265   6.138   0.638   1.488 -0.2521  0.5856  0.8470
 4544TIP3   OH235266   5.886   6.852   8.282 -0.6256  0.6756  0.0030
 4544TIP3    H135267   5.932   6.896   8.210 -0.3563  0.9606  0.3481
 4544TIP3    H235268   5.857   6.924   8.339 -0.1530  0.4007  0.5869
 4545TIP3   OH235269   7.054   0.471   1.202  0.4164  0.3721  0.4202
 4545TIP3    H135270   7.054   0.384   1.242  0.8904  0.8723  1.5389
 4545TIP3    H235271   7.142   0.481   1.166 -0.0765 -0.1642 -0.9745
 4546TIP3   OH235272   5.449   1.335   7.642 -0.1184  0.8132  0.0812
 4546TIP3    H135273   5.392   1.258   7.632  1.2018 -0.1254 -0.3079
 4546TIP3    H235274   5.526   1.301   7.687  0.6282  1.8567 -0.4135
 4547TIP3   OH235275   7.063   4.424   8.033 -0.4640 -0.7100  0.0362
 4547TIP3    H135276   6.970   4.433   8.055 -0.2051 -2.1349  1.8050
 4547TIP3    H235277   7.073   4.332   8.009 -0.0304  0.0340 -2.8803
 4548TIP3   OH235278   3.989   2.287   7.892  0.4570 -0.3381  0.5317
 4548TIP3    H135279   4.073   2.307   7.851  0.6984  0.1153  1.2253
 4548TIP3    H235280   3.986   2.192   7.898  1.2829 -0.3201  1.2474
 4549TIP3   OH235281   6.727   1.559   1.419 -0.0473 -0.3680 -0.2899
 4549TIP3    H135282   6.640   1.520   1.434 -0.5158  0.5127 -0.6762
 4549TIP3    H235283   6.710   1.636   1.365  0.6684  1.3238  1.7888
 4550TIP3   OH235284   5.681   7.088   8.022  0.2844  0.1933 -0.1990
 4550TIP3    H135285   5.699   6.999   7.989 -1.3196  1.0627 -3.6943
 4550TIP3    H235286   5.742   7.144   7.973  0.1983  1.2079  0.8339
 4551TIP3   OH235287   1.775   2.334   2.578  0.5767 -0.6922  0.0986
 4551TIP3    H135288   1.708   2.273   2.608 -0.0287 -0.4132 -0.6447
 4551TIP3    H235289   1.854   2.310   2.626  0.1293 -1.5116  0.4281
 4552TIP3   OH235290   5.184   6.999   2.137 -0.4790 -0.4225  0.0907
 4552TIP3    H135291   5.157   6.917   2.096 -1.9667 -0.5181  1.2089
 4552TIP3    H235292   5.115   7.018   2.200 -1.3797  2.9167 -1.7635
 4553TIP3   OH235293   0.694   6.535   2.277 -0.0710  0.1571  0.3838
 4553TIP3    H135294   0.613   6.492   2.305 -0.7149 -0.0574 -1.7050
 4553TIP3    H235295   0.670   6.627   2.269 -0.5202 -0.1178 -1.6271
 4554TIP3   OH235296   5.401   6.820   7.942  0.2871 -0.1008  0.4032
 4554TIP3    H135297   5.492   6.848   7.938 -0.1019  1.0641 -0.2284
 4554TIP3    H235298   5.350   6.900   7.937 -0.8154 -0.8430 -0.7122
 4555TIP3   OH235299   6.275   6.270   1.258 -0.6375  0.0709 -0.4927
 4555TIP3    H135300   6.200   6.238   1.308 -0.2173  0.9575  0.7447
 4555TIP3    H235301   6.291   6.358   1.292  0.4274  0.2276 -1.3407
 4556TIP3   OH235302   4.278   1.724   0.123 -0.5019 -0.2918 -0.4143
 4556TIP3    H135303   4.216   1.771   0.180 -0.6329 -1.5984  0.5485
 4556TIP3    H235304   4.263   1.760   0.036  0.3129  2.4095  0.4948
 4557TIP3   OH235305   3.761   2.165   0.174  0.2268 -0.3392 -0.2018
 4557TIP3    H135306   3.769   2.134   0.084 -2.5787 -1.8357  0.0269
 4557TIP3    H235307   3.761   2.261   0.165  1.6041 -0.4309 -1.5970
 4558TIP3   OH235308   0.551   4.303   1.870  0.2960  0.0492  0.3646
 4558TIP3    H135309   0.571   4.212   1.846  0.0211  0.2197 -0.5379
 4558TIP3    H235310   0.526   4.299   1.962 -0.4238 -0.8981  0.1330
 4559TIP3   OH235311   5.305   3.709   1.688 -0.0684  0.3022  0.0646
 4559TIP3    H135312   5.302   3.619   1.720 -0.1893  0.6565  1.0751
 4559TIP3    H235313   5.236   3.713   1.622 -1.0061  0.0227  1.0086
 4560TIP3   OH235314   7.033   4.971   1.318 -0.1907 -0.3521 -0.5015
 4560TIP3    H135315   7.053   4.883   1.348  1.0927 -0.0089 -0.3113
 4560TIP3    H235316   6.937   4.977   1.321 -0.2453 -1.5107  0.1067
 4561TIP3   OH235317   7.219   5.104   2.377 -0.2154  0.3919  0.4534
 4561TIP3    H135318   7.162   5.167   2.420 -1.4913  0.2888 -1.0461
 4561TIP3    H235319   7.306   5.145   2.378 -0.4363  0.8718  2.0810
 4562TIP3   OH235320   3.958   1.541   8.005  0.0245  0.0223  0.4204
 4562TIP3    H135321   3.944   1.496   8.088  1.7850 -0.6024  0.3938
 4562TIP3    H235322   3.940   1.475   7.938  0.2144  0.0462  0.3426
 4563TIP3   OH235323   5.282   3.737   8.319  0.2875 -0.1573  0.0585
 4563TIP3    H135324   5.350   3.728   8.386  1.0428 -0.4777 -0.7390
 4563TIP3    H235325   5.327   3.718   8.237 -0.4111  1.1820 -0.6455
 4564TIP3   OH235326   2.120   5.033   6.767  0.2842  0.3867 -0.4917
 4564TIP3    H135327   2.154   4.946   6.791  0.9868 -0.3654 -3.9991
 4564TIP3    H235328   2.029   5.017   6.742  0.6393  0.5004 -1.8926
 4565TIP3   OH235329   2.264   3.777   0.658 -0.3991 -0.0809  0.5595
 4565TIP3    H135330   2.341   3.737   0.617 -0.3591  0.2370  0.3187
 4565TIP3    H235331   2.300   3.835   0.726 -0.4545 -0.4169  0.8764
 4566TIP3   OH235332   0.750   3.126   2.487 -0.1498  0.1156  0.9928
 4566TIP3    H135333   0.721   3.110   2.577 -0.1079 -0.0821  0.9721
 4566TIP3    H235334   0.778   3.040   2.456 -3.6897 -0.5853 -0.4938
 4567TIP3   OH235335   2.585   2.892   0.005  0.3109 -0.1267  0.0876
 4567TIP3    H135336   2.633   2.824  -0.043 -0.2605 -0.1415 -0.4688
 4567TIP3    H235337   2.567   2.853   0.091  1.0620 -0.2184  0.2022
 4568TIP3   OH235338   0.433   1.973   1.266  0.0599 -0.0173 -0.5642
 4568TIP3    H135339   0.382   1.901   1.229 -0.5677 -0.7300  1.5989
 4568TIP3    H235340   0.369   2.042   1.281 -0.1516 -0.6011  1.3626
 4569TIP3   OH235341   2.440   3.854   1.200  0.0826  0.0267  0.4382
 4569TIP3    H135342   2.529   3.858   1.165 -0.2682 -2.3682 -0.8949
 4569TIP3    H235343   2.422   3.942   1.234  3.0034  0.4720  0.8900
 4570TIP3   OH235344   6.666   0.549   1.239 -0.0990  0.1003 -0.1315
 4570TIP3    H135345   6.680   0.489   1.312 -1.0263 -0.0246 -0.0481
 4570TIP3    H235346   6.611   0.618   1.276  1.9330  1.6656  0.1125
 4571TIP3   OH235347   0.626   4.809   0.319 -0.5650  0.0866 -0.3759
 4571TIP3    H135348   0.548   4.854   0.352 -0.2454 -0.9877  1.9306
 4571TIP3    H235349   0.624   4.723   0.361  1.0724 -0.5025 -1.4428
 4572TIP3   OH235350   2.676   1.107   1.534  0.0540  0.7013  0.1734
 4572TIP3    H135351   2.717   1.128   1.450  3.2752 -0.0377  1.4637
 4572TIP3    H235352   2.644   1.018   1.524  0.8329  0.4524 -0.1532
 4573TIP3   OH235353   0.724   4.985   0.067 -0.3607  0.5588 -0.1120
 4573TIP3    H135354   0.690   4.915   0.124  0.3110 -0.2350 -0.6790
 4573TIP3    H235355   0.762   5.049   0.128  1.4982 -0.8966  0.2944
 4574TIP3   OH235356   1.750   3.870   0.723 -0.1973  0.2603  0.1778
 4574TIP3    H135357   1.762   3.845   0.814 -0.0401  1.2028  0.4180
 4574TIP3    H235358   1.838   3.893   0.693 -0.4511  1.2429  0.1755
 4575TIP3   OH235359   5.337   3.814   0.621 -0.1034 -0.1727  0.2665
 4575TIP3    H135360   5.246   3.785   0.625 -0.0863 -0.1771  0.7161
 4575TIP3    H235361   5.382   3.759   0.685  0.0206  0.5136  0.7764
 4576TIP3   OH235362   2.660   3.801   7.235 -0.3110  0.1274 -0.1664
 4576TIP3    H135363   2.708   3.835   7.160 -1.9732  0.1207 -1.2589
 4576TIP3    H235364   2.667   3.706   7.226 -0.9868  0.1230 -0.6187
 4577TIP3   OH235365   0.891   3.657   1.930  0.1218 -0.5078 -1.0115
 4577TIP3    H135366   0.965   3.599   1.947 -1.1537 -1.7058  0.5894
 4577TIP3    H235367   0.838   3.609   1.867 -0.4598 -0.6758 -0.3959
 4578TIP3   OH235368   5.544   3.994   0.869 -0.0004  0.5374 -0.1023
 4578TIP3    H135369   5.514   4.042   0.946  0.5696 -1.0761  1.1590
 4578TIP3    H235370   5.463   3.974   0.820 -0.6783 -0.8635  1.5381
 4579TIP3   OH235371   5.774   2.324   1.529  0.1290  0.4654 -0.1698
 4579TIP3    H135372   5.845   2.321   1.593  0.0302 -0.1562 -0.0927
 4579TIP3    H235373   5.720   2.398   1.557 -1.3965 -1.4113  2.0438
 4580TIP3   OH235374   0.811   4.721   1.691  0.1082  0.1670  0.5692
 4580TIP3    H135375   0.733   4.666   1.699  0.1475 -0.0756 -0.6356
 4580TIP3    H235376   0.878   4.663   1.656  0.6623  0.5333  1.0137
 4581TIP3   OH235377   0.676   1.592   1.462  0.3514  0.0970  0.3823
 4581TIP3    H135378   0.629   1.565   1.383  0.8318 -1.6734  0.6912
 4581TIP3    H235379   0.611   1.643   1.511 -0.0472  0.9354 -0.9859
 4582TIP3   OH235380   0.563   3.635   1.679 -0.5556 -0.3405 -0.0590
 4582TIP3    H135381   0.482   3.627   1.629 -0.9109 -2.3791  0.7958
 4582TIP3    H235382   0.543   3.696   1.749 -1.6760 -1.6138  0.7497
 4583TIP3   OH235383   7.264   3.770   1.741 -0.3935 -0.1532 -0.5513
 4583TIP3    H135384   7.271   3.683   1.781  0.2502 -0.5910 -1.5939
 4583TIP3    H235385   7.279   3.831   1.813 -0.4372 -0.9071  0.1082
 4584TIP3   OH235386   1.361   3.437   0.930 -0.1526  0.6773  0.3082
 4584TIP3    H135387   1.343   3.493   0.855 -0.2167  1.0448  0.5976
 4584TIP3    H235388   1.453   3.412   0.920 -0.2347  0.5173 -0.0312
 4585TIP3   OH235389   1.562   2.976   1.359  0.1802  0.1658 -0.1739
 4585TIP3    H135390   1.526   3.065   1.351 -0.6011  0.0054  1.4137
 4585TIP3    H235391   1.531   2.945   1.444  0.6993 -1.5282 -0.5844
 4586TIP3   OH235392   0.158   4.094   1.276 -0.1454 -0.0537  0.2258
 4586TIP3    H135393   0.166   4.019   1.217  0.7883  0.1399  0.0951
 4586TIP3    H235394   0.146   4.169   1.218  1.0445  0.1742  0.2556
 4587TIP3   OH235395   4.516   0.887   0.326 -0.1711 -0.3327  0.1128
 4587TIP3    H135396   4.527   0.927   0.239  0.7435 -1.8685 -0.4933
 4587TIP3    H235397   4.587   0.823   0.332 -2.5051 -2.9407  0.4812
 4588TIP3   OH235398   3.527   3.202   1.283  0.1095 -0.8113 -0.1989
 4588TIP3    H135399   3.559   3.278   1.332 -1.7812 -0.0210 -0.1780
 4588TIP3    H235400   3.587   3.131   1.308  0.7334  0.2007  1.2409
 4589TIP3   OH235401   5.278   4.937   0.400  0.4903 -0.0982  0.1665
 4589TIP3    H135402   5.247   4.919   0.311 -0.1145 -2.3602  0.7922
 4589TIP3    H235403   5.242   5.023   0.422  1.1455  0.7549 -1.9806
 4590TIP3   OH235404   2.326   4.720   1.097  0.3011  0.2956 -0.4451
 4590TIP3    H135405   2.298   4.630   1.082 -0.0115  0.4588 -0.8351
 4590TIP3    H235406   2.335   4.758   1.010  1.2947  0.3822 -0.3139
 4591TIP3   OH235407   1.221   2.563   2.069 -0.1886  0.5204 -0.3763
 4591TIP3    H135408   1.238   2.513   1.989 -4.5061  0.9382 -1.6852
 4591TIP3    H235409   1.233   2.654   2.044  2.1950  0.4566  0.5021
 4592TIP3   OH235410   6.876   3.774   1.573  0.0329  0.3434  0.3752
 4592TIP3    H135411   6.787   3.740   1.559  0.6478 -0.2399 -2.4984
 4592TIP3    H235412   6.927   3.697   1.597 -0.1537  0.6347  1.7588
 4593TIP3   OH235413   1.025   4.533   1.828  0.1266 -0.3389  0.0445
 4593TIP3    H135414   1.030   4.628   1.815  1.7179 -0.4276 -0.1532
 4593TIP3    H235415   1.006   4.498   1.741 -2.0842 -0.1202  0.4063
 4594TIP3   OH235416   1.206   3.988   1.602  0.2575 -0.3414  0.6884
 4594TIP3    H135417   1.255   3.915   1.564 -0.6271  0.5953 -2.3171
 4594TIP3    H235418   1.116   3.955   1.609  0.1100  0.0288  0.5265
 4595TIP3   OH235419   7.045   5.154   0.711  0.4466  0.0990  0.2552
 4595TIP3    H135420   7.086   5.196   0.787  2.4949 -0.9836 -0.2140
 4595TIP3    H235421   7.051   5.219   0.641  0.7462  0.1917  0.3668
 4596TIP3   OH235422   1.395   3.226   1.367  0.2764 -0.0258 -0.2481
 4596TIP3    H135423   1.352   3.301   1.327  2.1470  1.6200  0.7266
 4596TIP3    H235424   1.401   3.247   1.460 -0.9138 -2.2755  0.3880
 4597TIP3   OH235425   0.553   4.053   1.807 -0.4661 -0.4212  0.1966
 4597TIP3    H135426   0.495   3.996   1.857 -0.0588 -1.0776 -0.0710
 4597TIP3    H235427   0.641   4.020   1.827 -0.1630  0.7523  0.8410
 4598TIP3   OH235428   6.504   2.791   1.906  0.0034 -0.0157 -0.3026
 4598TIP3    H135429   6.556   2.711   1.915 -1.2206 -0.5603  2.1022
 4598TIP3    H235430   6.416   2.766   1.933 -0.4842  2.0480  0.0819
 4599TIP3   OH235431   5.684   3.330   0.842  0.2834 -0.3065  0.0230
 4599TIP3    H135432   5.711   3.293   0.758  0.4440  0.3922 -0.2317
 4599TIP3    H235433   5.742   3.405   0.855  0.7917 -0.8820  1.1268
 4600TIP3   OH235434   2.261   4.316   1.431 -0.1199 -0.1787  0.1617
 4600TIP3    H135435   2.277   4.241   1.374 -1.4988 -0.2182 -0.1793
 4600TIP3    H235436   2.277   4.283   1.519 -1.5511 -1.1039  0.0804
 4601TIP3   OH235437   0.594   4.192   1.536  0.1023  0.7623 -0.3260
 4601TIP3    H135438   0.542   4.171   1.458  0.0056  1.4513 -0.4510
 4601TIP3    H235439   0.558   4.137   1.605 -0.7929  1.2194 -0.4135
 4602TIP3   OH235440   3.731   4.605   0.403 -0.4398  0.4055 -0.2817
 4602TIP3    H135441   3.781   4.672   0.450 -0.1588  0.2338 -0.3362
 4602TIP3    H235442   3.798   4.551   0.360 -0.6713  0.1648 -0.3369
 4603TIP3   OH235443   6.149   5.174   1.913  1.1792  0.6140 -0.4395
 4603TIP3    H135444   6.135   5.095   1.966 -0.2669  1.3255  0.2761
 4603TIP3    H235445   6.239   5.200   1.933  0.8976  0.4536  1.1174
 4604TIP3   OH235446   6.438   4.307   1.618 -0.0887  0.3140  0.6888
 4604TIP3    H135447   6.452   4.389   1.666  0.0839  0.7300 -0.0673
 4604TIP3    H235448   6.462   4.328   1.528 -2.4007  0.1276 -0.0028
 4605TIP3   OH235449   0.246   3.215   2.011 -0.4137  0.7590  0.0734
 4605TIP3    H135450   0.265   3.225   2.104 -0.6227  0.4348  0.1523
 4605TIP3    H235451   0.184   3.141   2.007  1.0280 -0.4389 -0.4827
 4606TIP3   OH235452   5.717   4.051   8.277  0.1494  0.4350  0.3160
 4606TIP3    H135453   5.738   4.051   8.370 -0.3327  1.4094  0.4373
 4606TIP3    H235454   5.739   4.140   8.248 -0.8200  0.5042 -0.2358
 4607TIP3   OH235455   1.100   4.058   0.709 -0.0771  0.5145 -0.6218
 4607TIP3    H135456   1.056   4.075   0.792 -0.6552 -0.6566 -0.6713
 4607TIP3    H235457   1.045   4.102   0.643  0.3097  1.3303 -0.4054
 4608TIP3   OH235458   6.996   4.528   0.234  0.3084  0.1542  0.7123
 4608TIP3    H135459   7.061   4.591   0.203  0.1463 -0.7779 -1.6309
 4608TIP3    H235460   7.036   4.489   0.312  1.5477  1.2737  0.6533
 4609TIP3   OH235461   2.271   2.392   0.986  0.5605 -0.6092 -0.0793
 4609TIP3    H135462   2.359   2.362   1.010  0.4912  0.4041  1.5517
 4609TIP3    H235463   2.212   2.331   1.031  0.4167 -1.6808 -1.6961
 4610TIP3   OH235464   3.229   4.009   1.304 -0.0921 -0.0496 -0.4505
 4610TIP3    H135465   3.184   3.953   1.241  0.5754  0.2296 -1.1710
 4610TIP3    H235466   3.194   4.097   1.288  0.5309  0.1274 -0.8479
 4611TIP3   OH235467   3.493   3.985   1.364  0.5525  0.3020  0.3467
 4611TIP3    H135468   3.398   3.998   1.356  0.5151  0.3639  0.8656
 4611TIP3    H235469   3.531   4.054   1.310  0.3131  1.1371  1.2204
 4612TIP3   OH235470   6.212   5.577   1.954  0.2789 -0.3392 -0.3385
 4612TIP3    H135471   6.131   5.525   1.950 -0.2124  0.3700  0.3589
 4612TIP3    H235472   6.275   5.520   1.999 -0.4166 -0.1433  0.9145
 4613TIP3   OH235473   5.720   2.108   1.360 -0.1282  0.7220 -0.0308
 4613TIP3    H135474   5.705   2.187   1.411 -1.8648 -0.4667  1.3551
 4613TIP3    H235475   5.789   2.061   1.409  2.1068  2.1154 -1.7469
 4614TIP3   OH235476   0.963   1.989   1.320 -0.2590 -0.4705  0.2301
 4614TIP3    H135477   0.871   2.014   1.313 -0.5773 -2.0833 -2.1467
 4614TIP3    H235478   0.963   1.905   1.365 -0.0799 -1.0326 -0.7869
 4615TIP3   OH235479   0.919   2.112   1.808 -0.3414  0.6097 -0.0718
 4615TIP3    H135480   0.947   2.103   1.717  1.1649  1.9043  0.2344
 4615TIP3    H235481   0.992   2.157   1.851 -0.5787 -0.9499  2.0175
 4616TIP3   OH235482   1.780   5.291   6.933 -0.1502 -0.1710 -0.3894
 4616TIP3    H135483   1.706   5.261   6.987 -0.2409 -0.5093 -0.6964
 4616TIP3    H235484   1.847   5.315   6.997 -0.5691  0.2542 -0.1042
 4617TIP3   OH235485   1.149   2.555   1.812  0.3130 -0.0493 -0.2397
 4617TIP3    H135486   1.157   2.639   1.857  0.0293 -0.1108 -0.0758
 4617TIP3    H235487   1.124   2.579   1.722 -0.6190 -0.0008  0.0363
 4618TIP3   OH235488   7.250   2.942   1.734 -0.2898 -0.0722  0.3004
 4618TIP3    H135489   7.237   2.874   1.799  0.0727 -1.9552 -1.5402
 4618TIP3    H235490   7.222   2.902   1.651 -2.4105  2.8232 -0.4754
 4619TIP3   OH235491   0.252   3.400   1.438 -0.3851 -0.4398 -0.2657
 4619TIP3    H135492   0.338   3.427   1.406 -1.1182  1.6473 -0.5898
 4619TIP3    H235493   0.240   3.312   1.403  1.7319 -0.8789  0.0470
 4620TIP3   OH235494   2.033   0.936   1.614 -0.5810  0.1438 -0.4881
 4620TIP3    H135495   2.042   0.868   1.548 -0.1812 -0.7951  0.5384
 4620TIP3    H235496   2.020   0.889   1.696 -0.5435  1.3045  0.1906
 4621TIP3   OH235497   0.194   2.573   2.761 -0.6481  0.0902  0.2644
 4621TIP3    H135498   0.274   2.524   2.783  0.2569  0.7494 -1.4409
 4621TIP3    H235499   0.188   2.640   2.828  0.7386  0.5954 -0.1107
 4622TIP3   OH235500   2.023   3.210   1.619 -0.6043 -0.2731  0.2607
 4622TIP3    H135501   2.076   3.130   1.621 -1.2793 -0.7155  0.8059
 4622TIP3    H235502   1.946   3.188   1.671 -0.6737  0.8202  0.6228
 4623TIP3   OH235503   6.802   0.645   1.971 -0.0533 -0.0642 -0.6836
 4623TIP3    H135504   6.880   0.600   1.938 -1.1028 -1.4748 -1.2709
 4623TIP3    H235505   6.782   0.600   2.053  0.4790  1.1314  0.1168
 4624TIP3   OH235506   1.056   4.956   8.421  0.4976  0.4476 -0.4668
 4624TIP3    H135507   1.087   5.043   8.395  1.6651 -0.3813 -1.8954
 4624TIP3    H235508   0.963   4.957   8.400  0.6494  1.1154 -1.1336
 4625TIP3   OH235509   4.634   2.630   1.520  0.1968 -0.1344  0.4385
 4625TIP3    H135510   4.726   2.614   1.499  0.1782  2.0366 -1.3524
 4625TIP3    H235511   4.636   2.695   1.590  0.0055  0.9348 -0.5405
 4626TIP3   OH235512   1.200   3.248   0.964  0.2502  0.6499  0.1970
 4626TIP3    H135513   1.176   3.233   0.873 -1.0310  0.4049  0.5672
 4626TIP3    H235514   1.246   3.332   0.964  1.4386  0.0207 -0.8670
 4627TIP3   OH235515   5.839   1.225   2.053  0.1333 -0.1548 -0.5368
 4627TIP3    H135516   5.899   1.157   2.081 -0.2165 -0.1484  0.2474
 4627TIP3    H235517   5.752   1.192   2.076 -0.1745 -0.2138 -1.7596
 4628TIP3   OH235518   1.460   4.313   7.471 -0.2283  0.3235  0.0618
 4628TIP3    H135519   1.469   4.408   7.466 -2.6170  0.5078 -1.6347
 4628TIP3    H235520   1.392   4.291   7.406 -0.1499 -2.4679  0.8259
 4629TIP3   OH235521   0.317   0.430   1.964  0.0769 -0.2060 -0.1672
 4629TIP3    H135522   0.363   0.351   1.994  1.3996 -0.0186 -1.5875
 4629TIP3    H235523   0.382   0.500   1.974 -1.2425  0.7824  1.4995
 4630TIP3   OH235524   6.413   5.475   1.190 -0.2115  0.5389  0.0747
 4630TIP3    H135525   6.333   5.528   1.195  0.2054  1.2838 -0.9096
 4630TIP3    H235526   6.459   5.493   1.272 -0.3184  1.3119 -0.0321
 4631TIP3   OH235527   1.786   1.829   1.719 -0.5477 -0.4181 -0.3310
 4631TIP3    H135528   1.854   1.837   1.786 -0.8901 -2.3470  0.2690
 4631TIP3    H235529   1.830   1.855   1.638  0.7659 -1.1454  0.1294
 4632TIP3   OH235530   7.060   4.175   0.027  0.8091  0.2882 -0.1729
 4632TIP3    H135531   7.036   4.124  -0.050  2.6699  1.0869 -1.3253
 4632TIP3    H235532   7.048   4.266   0.000 -1.1041  0.5419  1.3874
 4633TIP3   OH235533   1.687   3.905   2.386 -0.0094  0.3596  0.3028
 4633TIP3    H135534   1.765   3.874   2.433  0.0510  1.3313  0.8623
 4633TIP3    H235535   1.721   3.933   2.301  0.3429  1.1820  0.6984
 4634TIP3   OH235536   6.770   2.410   1.546  0.8375  0.8913 -0.6030
 4634TIP3    H135537   6.753   2.365   1.629 -1.4460  3.1267  0.2034
 4634TIP3    H235538   6.752   2.345   1.479 -1.5863  0.2951  0.5600
 4635TIP3   OH235539   5.545   2.138   1.911  0.3553  0.2152  0.8182
 4635TIP3    H135540   5.496   2.056   1.903 -0.7671  0.7439  2.1801
 4635TIP3    H235541   5.489   2.204   1.868  1.3643  0.2497 -0.4937
 4636TIP3   OH235542   6.511   4.633   0.017 -0.0619  0.0837 -0.0152
 4636TIP3    H135543   6.578   4.646   0.084 -0.0597 -1.1388  0.2334
 4636TIP3    H235544   6.501   4.538   0.011  0.3131  0.1544 -2.1288
 4637TIP3   OH235545   0.985   2.034   2.416 -0.2145 -0.7086 -0.3772
 4637TIP3    H135546   1.076   2.047   2.392  0.0398  0.5271  1.2065
 4637TIP3    H235547   0.938   2.105   2.373 -0.2664 -0.6271 -0.1848
 4638TIP3   OH235548   2.055   4.673   7.332 -0.4519 -0.1693  0.5235
 4638TIP3    H135549   2.113   4.735   7.286 -1.6707  2.0570  1.8990
 4638TIP3    H235550   2.113   4.627   7.392  0.3937 -0.0174 -0.1590
 4639TIP3   OH235551   1.821   1.120   1.097 -0.0287 -0.0898 -0.3332
 4639TIP3    H135552   1.890   1.126   1.162 -0.3824 -0.5299  0.0862
 4639TIP3    H235553   1.806   1.026   1.085 -2.3691 -0.0349  1.5646
 4640TIP3   OH235554   2.840   2.864   0.439  0.1516  0.2018 -0.6633
 4640TIP3    H135555   2.813   2.780   0.476  0.7075 -0.4011 -1.5979
 4640TIP3    H235556   2.784   2.929   0.482 -0.1433 -0.6297  0.2038
 4641TIP3   OH235557   1.125   3.334   1.360 -0.0151 -0.0450  0.3444
 4641TIP3    H135558   1.091   3.261   1.308 -0.8344  1.8388 -1.9003
 4641TIP3    H235559   1.189   3.376   1.302 -1.5341  2.5991  0.5051
 4642TIP3   OH235560   0.677   1.990   2.195  0.1355 -0.4462  0.5403
 4642TIP3    H135561   0.633   1.952   2.118 -0.3791  0.9859  0.1077
 4642TIP3    H235562   0.737   2.055   2.158  0.5519 -0.4019  1.2968
 4643TIP3   OH235563   6.172   3.476   2.425 -0.1578  0.2209  0.4253
 4643TIP3    H135564   6.260   3.439   2.430  0.6694  2.1864  0.9787
 4643TIP3    H235565   6.119   3.420   2.483  0.5543 -1.3914 -0.4552
 4644TIP3   OH235566   1.700   4.901   7.338 -0.6456 -0.2593  0.3360
 4644TIP3    H135567   1.693   4.915   7.433 -1.9220  0.2122  0.1744
 4644TIP3    H235568   1.767   4.963   7.310  0.7099 -1.3140  1.1147
 4645TIP3   OH235569   5.425   3.283   0.023  0.1965 -0.1041  0.0643
 4645TIP3    H135570   5.381   3.330   0.093  0.4785 -0.1376  0.2646
 4645TIP3    H235571   5.518   3.293   0.041  0.2533 -1.4673  0.5979
 4646TIP3   OH235572   6.142   5.338   1.290 -0.3605  0.2043  0.8986
 4646TIP3    H135573   6.106   5.268   1.344 -0.7829  1.9061  2.8977
 4646TIP3    H235574   6.235   5.316   1.281 -1.0913 -2.2181 -1.1272
 4647TIP3   OH235575   0.571   4.515   2.555 -0.4005 -0.0405 -0.1582
 4647TIP3    H135576   0.547   4.593   2.605 -1.4023 -0.4327 -0.0168
 4647TIP3    H235577   0.629   4.466   2.613 -0.9889 -0.1436  0.3542
 4648TIP3   OH235578   2.573   3.055   0.309  0.1420 -0.5321  0.0643
 4648TIP3    H135579   2.610   3.058   0.397  0.6614 -0.0132 -0.1679
 4648TIP3    H235580   2.540   2.965   0.300 -0.7779 -0.3136  1.1284
 4649TIP3   OH235581   1.925   3.480   1.844  0.3939 -0.1804  0.6257
 4649TIP3    H135582   1.853   3.444   1.896  0.3462  0.1898  0.8201
 4649TIP3    H235583   1.916   3.575   1.854  0.9647 -0.1377  0.7242
 4650TIP3   OH235584   2.102   2.246   1.437  0.2869  0.2929  0.2347
 4650TIP3    H135585   2.112   2.338   1.413 -0.0400  0.3202  0.2055
 4650TIP3    H235586   2.039   2.211   1.374  1.6892 -0.3683 -0.8288
 4651TIP3   OH235587   7.283   4.610   0.675  0.7973 -0.2322  0.9322
 4651TIP3    H135588   7.319   4.666   0.606  0.4468 -0.2869  0.7053
 4651TIP3    H235589   7.337   4.531   0.673 -0.3193 -0.9966 -0.4777
 4652TIP3   OH235590   2.708   3.951   0.793 -0.3674 -0.7689 -0.4337
 4652TIP3    H135591   2.750   3.934   0.708  0.0177 -0.1469 -0.3772
 4652TIP3    H235592   2.633   4.007   0.771 -0.5755 -1.0487 -0.4258
 4653TIP3   OH235593   0.448   5.983   0.778  0.3535 -0.0340 -0.3892
 4653TIP3    H135594   0.457   5.969   0.872 -3.4789  1.7966  0.3637
 4653TIP3    H235595   0.468   5.898   0.739  1.2637 -1.0143  2.1240
 4654TIP3   OH235596   1.861   2.585   0.892  0.6389 -0.9446 -0.2625
 4654TIP3    H135597   1.870   2.680   0.895  3.7361 -1.1668 -0.5704
 4654TIP3    H235598   1.857   2.564   0.798 -1.5682 -1.0492 -0.1794
 4655TIP3   OH235599   7.333   2.961   2.775  0.0553 -0.1002  0.0602
 4655TIP3    H135600   7.360   3.051   2.755  1.8634 -0.7204 -0.3801
 4655TIP3    H235601   7.258   2.946   2.717 -0.1965  1.0876  0.0649
 4656TIP3   OH235602   1.216   4.200   6.455  0.1713 -0.6047 -0.0924
 4656TIP3    H135603   1.238   4.259   6.382  0.3606  0.6500  0.9677
 4656TIP3    H235604   1.298   4.155   6.475  0.0242 -1.2492 -0.9115
 4657TIP3   OH235605   1.848   3.901   0.187 -0.0196 -0.5245 -0.3257
 4657TIP3    H135606   1.927   3.927   0.141 -0.8547  1.8006 -0.5433
 4657TIP3    H235607   1.786   3.876   0.118  0.0716 -1.0274 -0.2292
 4658TIP3   OH235608   3.445   4.329   7.294 -0.3837 -0.1978 -0.1809
 4658TIP3    H135609   3.431   4.420   7.268 -0.0141 -0.5841 -1.7752
 4658TIP3    H235610   3.540   4.320   7.301 -0.4033 -0.5411 -0.3328
 4659TIP3   OH235611   0.125   6.544   1.543 -0.4487  0.2771 -0.3636
 4659TIP3    H135612   0.038   6.509   1.560 -0.9534  1.3968 -0.5803
 4659TIP3    H235613   0.163   6.485   1.478 -0.4323 -1.1243  0.8997
 4660TIP3   OH235614   4.476   2.231   0.460 -0.2221  0.3142  0.1392
 4660TIP3    H135615   4.520   2.191   0.385 -0.5935 -0.4778  0.3360
 4660TIP3    H235616   4.412   2.166   0.488 -1.8993  1.6558 -0.4711
 4661TIP3   OH235617   6.485   1.439   1.466  0.4477 -0.2116 -0.4316
 4661TIP3    H135618   6.477   1.360   1.519 -0.9018  0.0531 -0.2126
 4661TIP3    H235619   6.395   1.472   1.458  1.0359  1.5525 -0.1168
 4662TIP3   OH235620   7.338   5.062   0.585 -0.3129 -0.0622  0.0656
 4662TIP3    H135621   7.352   5.148   0.546 -0.8779 -0.6087 -1.3987
 4662TIP3    H235622   7.271   5.076   0.652 -0.1817  0.6871  0.0400
 4663TIP3   OH235623   0.014   4.349   0.599  0.6446  0.1930  0.0272
 4663TIP3    H135624   0.051   4.268   0.564  2.4995  1.4389 -1.0225
 4663TIP3    H235625  -0.050   4.321   0.664 -1.2044 -2.1732 -2.6995
 4664TIP3   OH235626   6.472   4.826   8.325  0.2579 -0.9117 -0.2895
 4664TIP3    H135627   6.519   4.891   8.377 -0.6490  0.1550 -0.7792
 4664TIP3    H235628   6.449   4.758   8.388  0.3371 -0.2753  0.4426
 4665TIP3   OH235629   6.897   5.502   8.337 -0.5265 -0.0758  0.3577
 4665TIP3    H135630   6.913   5.573   8.399 -0.9279 -1.0335  1.5671
 4665TIP3    H235631   6.982   5.463   8.321 -0.4826 -0.0767  0.5998
 4666TIP3   OH235632   0.150   1.595   1.777  0.7292 -0.1827 -0.5111
 4666TIP3    H135633   0.172   1.687   1.770  3.7314 -0.9005 -1.3342
 4666TIP3    H235634   0.086   1.581   1.707 -1.1963  1.6129  0.8255
 4667TIP3   OH235635   0.420   5.867   1.403  0.0719 -0.2355 -0.2901
 4667TIP3    H135636   0.361   5.857   1.328  0.9054 -1.2292 -0.8310
 4667TIP3    H235637   0.362   5.877   1.478 -0.7792 -0.1131 -0.9573
 4668TIP3   OH235638   1.520   3.741   1.590 -0.2498 -0.2812  0.2920
 4668TIP3    H135639   1.455   3.793   1.541  0.0824 -0.7848 -0.7031
 4668TIP3    H235640   1.468   3.685   1.647 -0.9105 -3.1534 -2.9270
 4669TIP3   OH235641   0.808   2.783   1.514  0.2974  0.6790  0.2396
 4669TIP3    H135642   0.865   2.851   1.477 -0.3618  0.5729 -0.9934
 4669TIP3    H235643   0.719   2.814   1.496 -0.0146 -0.0773  0.4684
 4670TIP3   OH235644   0.133   5.197   8.303 -0.7261 -0.0250  0.3696
 4670TIP3    H135645   0.110   5.280   8.344 -2.2851  0.8887 -2.2291
 4670TIP3    H235646   0.147   5.137   8.377  1.0515  2.6395  2.3201
 4671TIP3   OH235647   7.197   0.872   1.218 -0.3058  0.0215 -0.3901
 4671TIP3    H135648   7.290   0.867   1.240  0.0813 -1.2211 -2.2129
 4671TIP3    H235649   7.153   0.876   1.303  1.3247 -0.9653  0.5300
 4672TIP3   OH235650   1.668   5.467   0.376 -0.1272 -0.3226  0.0357
 4672TIP3    H135651   1.648   5.505   0.290  1.1202 -0.0182 -0.1285
 4672TIP3    H235652   1.598   5.499   0.433 -0.8428 -0.3462 -0.8111
 4673TIP3   OH235653   0.144   5.955   0.073 -0.2279  0.5362 -0.2102
 4673TIP3    H135654   0.134   6.002   0.156 -0.0223 -1.5232  0.9893
 4673TIP3    H235655   0.085   5.880   0.080  1.3096 -0.7691 -1.0996
 4674TIP3   OH235656   1.136   2.609   2.371 -0.7761 -0.0738 -0.2962
 4674TIP3    H135657   1.106   2.611   2.462  0.7906 -1.0019  0.2641
 4674TIP3    H235658   1.065   2.650   2.321 -1.2410  1.2931  1.4524
 4675TIP3   OH235659   2.977   1.870   2.096 -0.1585 -0.5317 -0.6777
 4675TIP3    H135660   2.964   1.954   2.052  0.0182  0.6839  1.4957
 4675TIP3    H235661   2.999   1.809   2.026  0.7133  1.4645 -2.1872
 4676TIP3   OH235662   6.045   0.895   2.092  0.2240 -0.2441  0.4932
 4676TIP3    H135663   6.042   0.805   2.124  1.8982 -0.4063  0.2451
 4676TIP3    H235664   6.015   0.948   2.166  0.0718 -0.9405  0.9332
 4677TIP3   OH235665   6.780   2.943   2.429  0.0009  0.2961 -0.7854
 4677TIP3    H135666   6.732   3.024   2.445  0.3980  0.4484 -0.3552
 4677TIP3    H235667   6.869   2.973   2.409  0.3803 -0.0804  0.3121
 4678TIP3   OH235668   2.405   1.233   1.661  0.0681 -0.0184 -0.1949
 4678TIP3    H135669   2.479   1.176   1.683  0.0018  0.0385  0.1709
 4678TIP3    H235670   2.445   1.313   1.628  0.1783  0.3054  0.7226
 4679TIP3   OH235671   7.177   3.784   1.184  0.0409 -0.3595  0.3453
 4679TIP3    H135672   7.199   3.874   1.162 -2.5248  0.3976  0.6960
 4679TIP3    H235673   7.146   3.788   1.275 -0.7672 -1.4652  0.1355
 4680TIP3   OH235674   6.585   3.885   0.098 -0.0759 -0.7774  0.1764
 4680TIP3    H135675   6.623   3.926   0.175  0.1910  0.3943 -0.5628
 4680TIP3    H235676   6.653   3.891   0.031  0.6464 -4.0236  0.5246
 4681TIP3   OH235677   6.695   5.876   1.699  0.0029 -0.3120  1.0817
 4681TIP3    H135678   6.726   5.894   1.788  0.8705 -2.3099  1.2129
 4681TIP3    H235679   6.766   5.826   1.658 -0.9180 -0.5198 -0.3151
 4682TIP3   OH235680   1.714   5.488   8.178  0.1883 -0.0889  0.5398
 4682TIP3    H135681   1.650   5.527   8.119 -0.4087 -0.8017  0.7187
 4682TIP3    H235682   1.794   5.480   8.125  0.0549  0.5459  0.2395
 4683TIP3   OH235683   6.740   3.294   1.904 -0.6314 -0.4001 -0.2615
 4683TIP3    H135684   6.829   3.330   1.900  0.5000 -3.0979 -0.5526
 4683TIP3    H235685   6.705   3.327   1.986  0.4953  0.9758 -0.2972
 4684TIP3   OH235686   2.216   5.385   8.457  0.0784  0.4027  0.4353
 4684TIP3    H135687   2.158   5.339   8.396 -0.2159  0.7504  0.4535
 4684TIP3    H235688   2.260   5.451   8.403 -0.6305  1.1133  0.7233
 4685TIP3   OH235689   5.160   2.279   0.293 -0.0901 -0.3068  0.0326
 4685TIP3    H135690   5.103   2.339   0.342 -1.8009 -2.0563  0.2542
 4685TIP3    H235691   5.168   2.319   0.207 -0.8673  0.4480  0.3012
 4686TIP3   OH235692   1.696   3.777   1.355  0.2636  0.2191  0.0425
 4686TIP3    H135693   1.629   3.837   1.324  0.5844  0.4854 -0.1341
 4686TIP3    H235694   1.661   3.742   1.437 -1.2316 -1.5827 -1.3269
 4687TIP3   OH235695   6.321   3.712   2.381  0.0218  0.0120 -0.0101
 4687TIP3    H135696   6.260   3.641   2.399 -1.4205  0.8534 -1.3621
 4687TIP3    H235697   6.297   3.780   2.444  0.7194 -0.3129  0.6060
 4688TIP3   OH235698   0.648   3.197   2.223 -0.2725  0.4965  0.4950
 4688TIP3    H135699   0.555   3.217   2.226 -0.6353 -1.3276  2.5797
 4688TIP3    H235700   0.670   3.170   2.313  2.3836  1.4329  0.1741
 4689TIP3   OH235701   0.914   6.077   0.197  0.1530  0.6053  0.4483
 4689TIP3    H135702   0.852   6.149   0.195 -1.0193 -0.4106 -1.6485
 4689TIP3    H235703   1.000   6.119   0.198 -0.4977  2.0523  4.8483
 4690TIP3   OH235704   6.104   2.202   1.921 -0.1128 -0.3194  0.3086
 4690TIP3    H135705   6.041   2.154   1.975 -0.6456  0.7064  0.6013
 4690TIP3    H235706   6.171   2.231   1.984 -0.5812  0.6234  0.3774
 4691TIP3   OH235707   6.349   7.240   1.687  0.5028 -0.1895 -0.1968
 4691TIP3    H135708   6.345   7.331   1.718  0.2307 -0.0828 -0.5437
 4691TIP3    H235709   6.260   7.221   1.658  0.5066 -0.6433  0.0893
 4692TIP3   OH235710   0.471   4.966   6.842 -0.3271  0.6912  0.2329
 4692TIP3    H135711   0.380   4.981   6.866 -0.1032  1.6232  0.5464
 4692TIP3    H235712   0.511   5.053   6.844  0.6243  0.2620  0.3454
 4693TIP3   OH235713   3.026   3.058   0.657 -0.4210  0.2594 -0.6897
 4693TIP3    H135714   3.081   3.069   0.580  0.8970 -0.5397  0.1163
 4693TIP3    H235715   3.008   2.964   0.661 -0.2585  0.2576  0.1185
 4694TIP3   OH235716   1.589   4.854   7.957  0.2901  0.4919 -0.1969
 4694TIP3    H135717   1.537   4.842   7.877  0.0154  2.1457 -0.2817
 4694TIP3    H235718   1.525   4.849   8.028  0.3931 -0.0115 -0.1387
 4695TIP3   OH235719   0.801   2.862   2.587  0.5006  0.2247  0.0350
 4695TIP3    H135720   0.769   2.826   2.670  0.0324  2.0520  0.6857
 4695TIP3    H235721   0.896   2.856   2.594  0.4185 -1.6354 -0.2373
 4696TIP3   OH235722   0.035   0.599   0.907 -0.1970  0.0123  0.4480
 4696TIP3    H135723   0.096   0.623   0.977 -0.4611 -0.7327  0.9340
 4696TIP3    H235724   0.076   0.634   0.827  0.4369  0.2759  0.8793
 4697TIP3   OH235725   0.893   3.323   2.366  0.0352 -0.2079 -0.7837
 4697TIP3    H135726   0.838   3.265   2.418 -0.0639 -0.4447 -1.1509
 4697TIP3    H235727   0.968   3.269   2.340 -0.4259 -0.3906 -1.7570
 4698TIP3   OH235728   1.610   1.895   1.325 -0.3854 -0.4567  0.4624
 4698TIP3    H135729   1.580   1.804   1.318 -2.5674  0.2532 -0.0396
 4698TIP3    H235730   1.572   1.926   1.408 -1.8194  0.7102 -0.5831
 4699TIP3   OH235731   0.992   2.564   2.611 -0.4797 -0.7464  0.0479
 4699TIP3    H135732   0.994   2.480   2.656  0.1797  0.2579  1.9274
 4699TIP3    H235733   0.903   2.597   2.625 -0.8109 -1.2176 -0.8875
 4700TIP3   OH235734   6.837   0.826   1.770  0.0417 -0.0506  0.3902
 4700TIP3    H135735   6.838   0.784   1.856  2.0582 -0.0474  0.4036
 4700TIP3    H235736   6.850   0.754   1.708 -0.1272  0.0999  0.1801
 4701TIP3   OH235737   7.115   1.015   2.773 -0.2278  0.2868  0.3349
 4701TIP3    H135738   7.112   1.048   2.862 -0.5341 -0.9559  0.8042
 4701TIP3    H235739   7.138   1.090   2.719  0.5060  0.9192  1.5268
 4702TIP3   OH235740   6.720   2.945   1.883 -0.2448 -0.3389  0.6484
 4702TIP3    H135741   6.744   2.991   1.963 -1.2750  1.5178 -0.0712
 4702TIP3    H235742   6.644   2.892   1.907 -1.8658  1.8348  0.4254
 4703TIP3   OH235743   1.673   2.000   2.058 -0.3304  0.0609 -0.1960
 4703TIP3    H135744   1.588   1.956   2.066 -0.6656  0.5072 -1.3442
 4703TIP3    H235745   1.702   2.013   2.149 -1.1357 -0.7654  0.1830
 4704TIP3   OH235746   1.387   2.251   2.169  0.0496 -0.1979  0.1665
 4704TIP3    H135747   1.439   2.180   2.206  0.2378  0.2702  0.8119
 4704TIP3    H235748   1.383   2.232   2.075  1.2182 -0.3422  0.1395
 4705TIP3   OH235749   0.673   2.151   1.842  0.1230  0.3010  0.5023
 4705TIP3    H135750   0.765   2.134   1.822 -0.1520  0.5570 -1.0668
 4705TIP3    H235751   0.644   2.074   1.889  1.1603  0.2466  1.0641
 4706TIP3   OH235752   0.938   2.337   2.739  0.5636 -0.2163  0.1195
 4706TIP3    H135753   0.856   2.360   2.782 -0.4418 -1.4325 -1.1107
 4706TIP3    H235754   0.977   2.269   2.794 -0.1523 -0.9499 -0.2874
 4707TIP3   OH235755   0.931   3.861   1.580  0.7272  0.1843  0.5078
 4707TIP3    H135756   0.921   3.765   1.582  1.9109  0.0137 -0.7122
 4707TIP3    H235757   0.900   3.890   1.665 -1.4928 -1.1068  0.1944
 4708TIP3   OH235758   2.424   5.928   0.371  0.0263 -0.4057  0.5294
 4708TIP3    H135759   2.487   5.982   0.420  0.2905 -0.1798 -0.0542
 4708TIP3    H235760   2.476   5.855   0.338 -0.0607 -0.3348  0.2318
 4709TIP3   OH235761   6.331   4.097   1.841 -0.2741 -0.9127 -1.0827
 4709TIP3    H135762   6.359   4.185   1.864 -0.2138 -1.0484 -0.6344
 4709TIP3    H235763   6.267   4.110   1.771 -1.9589 -0.3757  0.5362
 4710TIP3   OH235764   5.953   3.785   0.932  0.2966 -0.1992  0.5024
 4710TIP3    H135765   5.881   3.743   0.885  1.0939 -3.9896  2.4021
 4710TIP3    H235766   6.033   3.748   0.893  1.1885  2.3570 -0.1851
 4711TIP3   OH235767   6.678   4.106   1.457  0.3788  0.1389  0.6130
 4711TIP3    H135768   6.645   4.017   1.443 -0.7995  0.6814 -0.0509
 4711TIP3    H235769   6.717   4.130   1.373 -0.6276  0.8182  0.3434
 4712TIP3   OH235770   3.172   4.264   1.786 -0.0840 -0.2035  1.0802
 4712TIP3    H135771   3.181   4.203   1.713 -0.9888  0.5654  0.3094
 4712TIP3    H235772   3.246   4.324   1.776  0.7452 -1.0982  1.7772
 4713TIP3   OH235773   2.438   4.912   7.328  0.3446 -0.1860 -0.3658
 4713TIP3    H135774   2.355   4.922   7.282 -0.3503 -1.6437  0.5297
 4713TIP3    H235775   2.424   4.957   7.412  0.8343  0.5122 -0.6563
 4714TIP3   OH235776   1.705   3.358   1.465 -0.4549 -0.0088 -0.0881
 4714TIP3    H135777   1.634   3.300   1.440  0.3365 -0.4227 -1.4529
 4714TIP3    H235778   1.723   3.337   1.556 -3.1203  1.2178  0.7595
 4715TIP3   OH235779   3.919   4.980   0.918 -0.0651  0.3007 -0.2154
 4715TIP3    H135780   3.828   4.965   0.890  1.0004 -1.9994 -2.6611
 4715TIP3    H235781   3.925   4.937   1.003 -1.1197 -0.0550 -0.3071
 4716TIP3   OH235782   0.295   2.869   1.963 -0.4825  0.1129  0.3489
 4716TIP3    H135783   0.210   2.829   1.979 -0.7793  0.8357  0.6369
 4716TIP3    H235784   0.332   2.882   2.051 -1.1670  2.0871  0.3722
 4717TIP3   OH235785   1.006   3.182   1.154  0.4464 -0.5821 -0.4814
 4717TIP3    H135786   1.071   3.193   1.085  1.6027  0.3795  0.7609
 4717TIP3    H235787   0.960   3.265   1.158  0.3085 -0.6730 -0.1499
 4718TIP3   OH235788   2.050   1.497   1.448 -0.1703  0.3467 -0.1089
 4718TIP3    H135789   2.051   1.581   1.403  0.2547  0.2015 -0.3712
 4718TIP3    H235790   2.060   1.518   1.540  1.0270  0.5108 -0.2770
 4719TIP3   OH235791   1.613   0.578   1.161  0.7364  0.1445  0.1679
 4719TIP3    H135792   1.547   0.640   1.132  1.5695  0.5262 -0.9408
 4719TIP3    H235793   1.568   0.524   1.226 -0.4806  0.7892 -0.1210
 4720TIP3   OH235794   2.854   1.742   8.487 -0.5882 -0.3066  0.9350
 4720TIP3    H135795   2.867   1.784   8.571 -0.2783  0.6856  0.3973
 4720TIP3    H235796   2.795   1.668   8.505 -0.3304 -0.2345  2.0461
 4721TIP3   OH235797   7.116   6.397   0.257 -0.3678 -0.1393 -0.0206
 4721TIP3    H135798   7.090   6.324   0.313 -2.7104  0.5964 -0.0827
 4721TIP3    H235799   7.168   6.356   0.188  1.6377 -1.1986  2.0589
 4722TIP3   OH235800   0.691   2.648   2.399 -0.2281  0.4513  0.2707
 4722TIP3    H135801   0.619   2.708   2.415  0.2387  1.4013 -1.1063
 4722TIP3    H235802   0.721   2.623   2.486  0.6099  3.4781  0.9229
 4723TIP3   OH235803   1.771   2.493   2.341  0.0888  0.3347 -0.1390
 4723TIP3    H135804   1.746   2.458   2.427  0.7386 -0.0253 -0.0967
 4723TIP3    H235805   1.858   2.531   2.355  0.4114 -0.1624 -0.7523
 4724TIP3   OH235806   1.753   4.712   1.468 -0.2976  0.4474 -0.3175
 4724TIP3    H135807   1.770   4.784   1.529  0.8397 -1.0023  1.1165
 4724TIP3    H235808   1.659   4.718   1.450 -0.3210  1.9367  0.2484
 4725TIP3   OH235809   3.378   2.673   0.123 -0.1294  0.1145 -0.1853
 4725TIP3    H135810   3.348   2.673   0.032 -1.0087 -0.5270  0.1039
 4725TIP3    H235811   3.371   2.582   0.151 -1.3594  0.5629  1.0039
 4726TIP3   OH235812   2.334   2.305   1.909  0.5897  0.0475 -0.4734
 4726TIP3    H135813   2.328   2.391   1.868 -0.2778 -0.0404 -0.5371
 4726TIP3    H235814   2.409   2.312   1.969 -0.2433  1.2536  0.4654
 4727TIP3   OH235815   1.135   2.261   1.876  0.0193  0.2532  0.7419
 4727TIP3    H135816   1.209   2.203   1.890 -0.5174 -1.5196 -3.1726
 4727TIP3    H235817   1.174   2.347   1.858  1.0940 -0.4502 -0.3130
 4728TIP3   OH235818   5.490   6.474   1.757 -0.3935  0.6456  0.0416
 4728TIP3    H135819   5.407   6.520   1.772  0.0605  1.1721  1.0298
 4728TIP3    H235820   5.519   6.448   1.845  0.3245  0.1852 -0.3308
 4729TIP3   OH235821   2.396   1.944   1.321  0.3500 -0.2309  0.2764
 4729TIP3    H135822   2.480   1.904   1.297  0.1849  1.0726 -2.6960
 4729TIP3    H235823   2.337   1.918   1.250 -0.5371  2.7330 -0.1060
 4730TIP3   OH235824   6.759   1.837   1.895 -0.6062  0.4240  0.6353
 4730TIP3    H135825   6.792   1.772   1.957  1.5796 -1.6191 -2.4978
 4730TIP3    H235826   6.786   1.804   1.809 -1.6046  4.2561 -1.2736
 4731TIP3   OH235827   0.043   3.500   0.882 -0.7731  0.2056 -0.0123
 4731TIP3    H135828   0.088   3.420   0.907 -1.1672  0.3998  1.3274
 4731TIP3    H235829  -0.050   3.479   0.885 -0.8801  0.6943  0.3273
 4732TIP3   OH235830   3.007   1.211   0.737  0.7163 -0.1491 -0.1390
 4732TIP3    H135831   2.999   1.159   0.817  1.3535 -0.3425 -0.1972
 4732TIP3    H235832   2.976   1.153   0.667  2.5387 -0.8832 -0.3607
 4733TIP3   OH235833   7.174   4.851   2.508 -0.1252  0.1171 -0.6643
 4733TIP3    H135834   7.211   4.936   2.485 -1.0179  0.6174 -0.2917
 4733TIP3    H235835   7.214   4.790   2.446  0.5767  0.7915 -0.8888
 4734TIP3   OH235836   0.348   4.584   1.812 -0.3571 -0.3819  0.1114
 4734TIP3    H135837   0.291   4.625   1.877 -0.6462 -1.2101  0.3835
 4734TIP3    H235838   0.295   4.513   1.774 -0.3552  0.3669 -1.3428
 4735TIP3   OH235839   6.396   2.967   0.858 -0.5804 -0.3848 -0.1246
 4735TIP3    H135840   6.449   3.046   0.869 -0.8392 -0.3214  0.6496
 4735TIP3    H235841   6.418   2.936   0.770  0.3848 -0.0953  0.0038
 4736TIP3   OH235842   5.317   3.423   1.510 -0.5114  0.0518  0.2150
 4736TIP3    H135843   5.259   3.363   1.463 -0.7718 -0.6292  1.3757
 4736TIP3    H235844   5.259   3.492   1.542 -0.1890  1.0203 -1.2428
 4737TIP3   OH235845   0.423   6.529   1.430  0.0475 -0.3106  0.1188
 4737TIP3    H135846   0.453   6.611   1.390 -0.2281  0.1359  0.8078
 4737TIP3    H235847   0.475   6.521   1.510 -1.0901  0.0557  0.9079
 4738TIP3   OH235848   6.811   4.816   0.911 -0.4781 -0.3733 -0.1023
 4738TIP3    H135849   6.809   4.825   1.006  0.6868 -0.9637 -0.0092
 4738TIP3    H235850   6.816   4.721   0.896 -1.1835 -0.3135 -0.7645
 4739TIP3   OH235851   2.738   5.447   0.845  0.3802 -0.5819  1.1647
 4739TIP3    H135852   2.819   5.404   0.815  0.5717  1.1148 -0.8553
 4739TIP3    H235853   2.741   5.534   0.806 -3.4530 -1.1846 -0.7029
 4740TIP3   OH235854   3.021   0.978   0.887 -0.1141 -0.3126 -0.0071
 4740TIP3    H135855   3.074   0.957   0.964 -0.1705  0.7472  0.3248
 4740TIP3    H235856   2.931   0.967   0.917 -0.1983  1.8258  0.6153
 4741TIP3   OH235857   7.272   4.347   1.326  0.0511 -0.3368  1.0451
 4741TIP3    H135858   7.345   4.406   1.346  0.5084 -0.6782  0.4142
 4741TIP3    H235859   7.243   4.374   1.239  0.4994 -1.2741  0.5991
 4742TIP3   OH235860   2.152   3.277   7.607  0.5662  0.2364 -0.0923
 4742TIP3    H135861   2.203   3.322   7.675 -1.4379  0.9305  0.9969
 4742TIP3    H235862   2.120   3.347   7.551  0.6740 -0.1899 -0.6938
 4743TIP3   OH235863   0.600   3.520   2.022  0.0651 -0.5471 -0.2045
 4743TIP3    H135864   0.539   3.589   1.997  0.3343  0.6569  2.2785
 4743TIP3    H235865   0.548   3.459   2.074  0.5301 -0.4906  0.3382
 4744TIP3   OH235866   0.871   2.323   2.477 -0.2614  0.8750  0.6249
 4744TIP3    H135867   0.787   2.369   2.480 -0.1416  1.1434  0.0797
 4744TIP3    H235868   0.890   2.302   2.568 -1.2303  0.2396  0.6958
 4745TIP3   OH235869   0.547   4.798   2.226 -0.4000 -0.2303  0.1753
 4745TIP3    H135870   0.481   4.844   2.278  0.4657  1.2256  0.0326
 4745TIP3    H235871   0.522   4.706   2.231 -1.9440  0.2016  0.8293
 4746TIP3   OH235872   7.318   5.266   0.394 -0.2352 -0.2881 -0.4172
 4746TIP3    H135873   7.237   5.224   0.364 -0.5142 -0.8051  1.0557
 4746TIP3    H235874   7.289   5.338   0.450  0.3255 -0.3740 -0.0150
 4747TIP3   OH235875   2.529   4.130   1.421 -0.0251 -0.1658  0.5905
 4747TIP3    H135876   2.600   4.070   1.446  0.3727  0.2080  0.3659
 4747TIP3    H235877   2.564   4.217   1.438 -0.3968  0.0258  0.3867
 4748TIP3   OH235878   6.237   4.506   1.558  0.6388 -0.2688 -0.3279
 4748TIP3    H135879   6.182   4.579   1.532 -0.3749 -1.3720 -1.3472
 4748TIP3    H235880   6.196   4.473   1.638 -0.0917 -0.9735 -0.9842
 4749TIP3   OH235881   1.392   3.554   1.787  0.1334  0.1674  0.1734
 4749TIP3    H135882   1.341   3.633   1.802  2.9917  2.2533 -0.6004
 4749TIP3    H235883   1.460   3.555   1.854  0.3570 -1.5063  0.0044
 4750TIP3   OH235884   2.846   4.025   0.216  0.0561  0.2681  0.2671
 4750TIP3    H135885   2.907   3.959   0.248 -1.1007 -0.3977  1.1437
 4750TIP3    H235886   2.899   4.082   0.159  1.5507 -0.0930  1.2770
 4751TIP3   OH235887   2.951   0.775   1.391  0.0074  0.3083  0.0767
 4751TIP3    H135888   2.952   0.731   1.476  1.2116 -0.7272 -0.4563
 4751TIP3    H235889   2.953   0.869   1.412  1.3823  0.0403  1.1859
 4752TIP3   OH235890   0.134   3.764   1.427  0.0280  0.2591  0.0431
 4752TIP3    H135891   0.206   3.796   1.481 -0.0755 -0.1599  0.4263
 4752TIP3    H235892   0.168   3.767   1.338  0.3218  0.6061  0.1640
 4753TIP3   OH235893   0.329   3.280   1.754 -0.0294  0.2172 -0.4110
 4753TIP3    H135894   0.295   3.242   1.835  0.8011  2.4658  1.0555
 4753TIP3    H235895   0.251   3.296   1.701 -0.9297  1.4670  1.2021
 4754TIP3   OH235896   2.839   3.329   1.840 -0.4661  0.0775  0.4081
 4754TIP3    H135897   2.798   3.406   1.879  0.2200  0.3137  0.6617
 4754TIP3    H235898   2.865   3.275   1.914  1.7290  0.9812  0.3263
 4755TIP3   OH235899   0.568   1.383   1.703  0.2858  0.1356 -0.2309
 4755TIP3    H135900   0.603   1.319   1.765  2.3575  1.0439 -0.4197
 4755TIP3    H235901   0.634   1.453   1.701 -0.1599  0.5484 -2.7627
 4756TIP3   OH235902   4.605   5.107   1.067  0.0025  0.5079 -0.1700
 4756TIP3    H135903   4.635   5.112   1.157  1.1349  1.2278 -0.5799
 4756TIP3    H235904   4.511   5.088   1.074 -0.1172  1.5340  1.1722
 4757TIP3   OH235905   1.187   4.447   8.037 -0.0463  0.2141  0.5361
 4757TIP3    H135906   1.203   4.361   7.998  0.2538  0.4412  0.1575
 4757TIP3    H235907   1.106   4.477   7.996  0.5150  0.6541 -0.2607
 4758TIP3   OH235908   1.796   4.372   0.132 -0.5273  0.1261  0.5206
 4758TIP3    H135909   1.879   4.416   0.149  0.1584  0.2000 -2.6423
 4758TIP3    H235910   1.794   4.299   0.193  0.8056  1.4461  2.1824
 4759TIP3   OH235911   2.772   3.603   7.796  0.5831  0.2702 -0.2688
 4759TIP3    H135912   2.860   3.570   7.777  1.4604  2.4479 -0.1470
 4759TIP3    H235913   2.763   3.595   7.891  1.0506  0.9463 -0.1593
 4760TIP3   OH235914   3.039   4.649   8.193  0.2518  0.6152 -0.0753
 4760TIP3    H135915   2.970   4.604   8.241 -0.9374  1.3373 -1.0776
 4760TIP3    H235916   3.083   4.703   8.260  0.3812 -0.4654  0.7241
 4761TIP3   OH235917   2.170   2.519   1.332  0.2488 -0.5058  0.0964
 4761TIP3    H135918   2.160   2.602   1.380  1.6460  0.7795 -1.7580
 4761TIP3    H235919   2.135   2.538   1.245 -0.7879 -2.3282  0.0975
 4762TIP3   OH235920   1.054   7.272   0.392 -0.5604  0.1607  0.5349
 4762TIP3    H135921   1.128   7.215   0.414  0.1851  1.0812  0.4213
 4762TIP3    H235922   1.000   7.272   0.471  0.1234  0.3571  1.0114
 4763TIP3   OH235923   7.189   0.742   1.516 -0.1019 -0.1720 -0.8817
 4763TIP3    H135924   7.251   0.686   1.470 -0.1142 -0.2269 -0.8312
 4763TIP3    H235925   7.105   0.725   1.472 -0.0216  0.1390 -1.1589
 4764TIP3   OH235926   1.571   6.452   7.680 -0.3907  0.6291 -0.0983
 4764TIP3    H135927   1.650   6.503   7.699 -0.4197  0.4038  0.6585
 4764TIP3    H235928   1.572   6.441   7.585  0.3679  0.8291 -0.1200
 4765TIP3   OH235929   2.700   2.583   1.856 -0.2231 -0.7718 -1.0776
 4765TIP3    H135930   2.630   2.590   1.921 -0.2810  3.3184 -1.4711
 4765TIP3    H235931   2.781   2.584   1.908 -0.2590  2.8292 -1.0227
 4766TIP3   OH235932   0.786   4.343   0.828 -0.9393 -0.2032 -0.0136
 4766TIP3    H135933   0.724   4.289   0.780 -0.9500 -3.1799  3.2022
 4766TIP3    H235934   0.735   4.381   0.900  0.1911  0.0966  0.6439
 4767TIP3   OH235935   3.299   3.970   0.432  0.1145  0.4266 -0.9046
 4767TIP3    H135936   3.371   3.916   0.465 -0.0181  0.2078 -0.9718
 4767TIP3    H235937   3.334   4.011   0.353  1.3276  2.9832  0.8707
 4768TIP3   OH235938   3.159   4.244   1.218 -0.0150 -0.1372 -0.2439
 4768TIP3    H135939   3.074   4.250   1.174 -1.6757  0.8195  2.8553
 4768TIP3    H235940   3.175   4.333   1.251  2.1761 -0.3202 -0.7226
 4769TIP3   OH235941   2.890   2.709   1.652 -0.6691  0.2588 -0.3731
 4769TIP3    H135942   2.848   2.650   1.715  0.4058  0.1143  0.2241
 4769TIP3    H235943   2.824   2.776   1.635 -0.6682  0.8235  1.6391
 4770TIP3   OH235944   3.477   3.790   7.057  0.0104  0.0117  0.0167
 4770TIP3    H135945   3.487   3.861   7.120  0.9798  0.5282 -0.7046
 4770TIP3    H235946   3.507   3.827   6.974  0.7000 -1.2977 -0.3285
 4771TIP3   OH235947   3.629   4.786   1.510 -0.1741  0.4198 -0.6863
 4771TIP3    H135948   3.623   4.880   1.493 -0.1256  0.3394 -1.1724
 4771TIP3    H235949   3.559   4.768   1.574 -0.2018  0.7794 -0.6173
 4772TIP3   OH235950   3.547   1.564   0.337  0.9355  0.0166  0.6175
 4772TIP3    H135951   3.574   1.654   0.318  0.1576  0.5365  1.9426
 4772TIP3    H235952   3.607   1.510   0.286 -0.8643  1.3534 -3.0879
 4773TIP3   OH235953   2.040   3.416   0.831  0.1945  0.7951  0.0258
 4773TIP3    H135954   1.956   3.371   0.837  0.0720  0.8858 -0.9371
 4773TIP3    H235955   2.032   3.472   0.753  2.0019 -1.0031 -1.5070
 4774TIP3   OH235956   3.549   5.078   1.394  0.0312 -0.2860  0.1043
 4774TIP3    H135957   3.512   5.158   1.357 -1.4328 -1.5208 -1.1843
 4774TIP3    H235958   3.514   5.075   1.483  1.3039  1.2601  0.6772
 4775TIP3   OH235959   3.254   3.353   1.722  0.8889  0.5134 -0.0292
 4775TIP3    H135960   3.219   3.421   1.779  0.1862 -0.4495  0.6962
 4775TIP3    H235961   3.348   3.372   1.718  0.5112  2.3440 -0.9745
 4776TIP3   OH235962   2.952   1.069   2.602 -0.0225 -0.3708  0.0298
 4776TIP3    H135963   3.023   1.023   2.557 -0.9644 -2.4808  0.6306
 4776TIP3    H235964   2.872   1.029   2.568 -0.9046  1.3621  0.0269
 4777TIP3   OH235965   2.761   3.514   7.385 -0.4028 -0.6052 -0.0982
 4777TIP3    H135966   2.837   3.571   7.392 -1.6446  1.3141 -1.7036
 4777TIP3    H235967   2.778   3.460   7.308 -0.7442 -0.0247 -0.5861
 4778TIP3   OH235968   0.821   3.602   1.574  0.5294 -0.1724  0.0332
 4778TIP3    H135969   0.827   3.511   1.545 -1.1534  0.2976 -1.8623
 4778TIP3    H235970   0.738   3.607   1.622  0.3798  0.4819 -0.2916
 4779TIP3   OH235971   1.899   3.744   1.878  0.9094  0.0721 -0.1191
 4779TIP3    H135972   1.888   3.776   1.968 -1.1342  2.0370 -1.0091
 4779TIP3    H235973   1.985   3.776   1.852  1.1803  0.1844  0.8657
 4780TIP3   OH235974   2.075   1.935   2.135 -0.6087 -0.0521 -0.6570
 4780TIP3    H135975   2.123   1.852   2.127 -2.0484 -1.0149  0.3268
 4780TIP3    H235976   2.054   1.941   2.229 -1.8063  0.6791 -0.9645
 4781TIP3   OH235977   1.251   3.644   1.439 -0.3058 -0.2050  0.0023
 4781TIP3    H135978   1.194   3.635   1.515  1.7072 -0.7768  1.4823
 4781TIP3    H235979   1.303   3.563   1.438  1.9298  1.1949 -0.0945
 4782TIP3   OH235980   4.321   1.984   2.201 -0.1347 -0.1767 -0.3545
 4782TIP3    H135981   4.400   2.018   2.243 -1.1912  1.5102  0.2837
 4782TIP3    H235982   4.248   2.022   2.250 -1.3877  1.0026 -3.0095
 4783TIP3   OH235983   3.584   0.783   0.985 -0.0407  0.0759 -0.2395
 4783TIP3    H135984   3.498   0.745   0.999  0.3205 -0.8949 -0.6069
 4783TIP3    H235985   3.567   0.873   0.958 -0.8689  0.6203  2.0320
 4784TIP3   OH235986   3.971   6.027   2.031  0.1267  0.0009 -0.2785
 4784TIP3    H135987   3.877   6.035   2.017 -0.1810 -1.1603  1.0816
 4784TIP3    H235988   3.994   6.105   2.082 -0.1007  0.2276 -0.5160
 4785TIP3   OH235989   1.837   3.542   2.415 -0.1507  0.5136  0.3835
 4785TIP3    H135990   1.745   3.520   2.397 -0.7069  3.1023 -0.1135
 4785TIP3    H235991   1.887   3.473   2.371 -1.8035  0.8287 -2.0937
 4786TIP3   OH235992   4.051   2.620   0.801 -0.2469 -0.5795 -0.6714
 4786TIP3    H135993   3.970   2.653   0.839  0.9418 -0.0867  1.5247
 4786TIP3    H235994   4.029   2.533   0.769 -2.0167  0.1561 -1.5130
 4787TIP3   OH235995   2.071   2.692   1.548 -0.1490 -0.2900 -0.0273
 4787TIP3    H135996   2.052   2.754   1.478  0.8927  0.1478  0.0785
 4787TIP3    H235997   2.093   2.746   1.624  0.5285 -0.7753  0.1277
 4788TIP3   OH235998   2.237   4.564   1.758  0.0183 -0.3002 -0.8777
 4788TIP3    H135999   2.297   4.623   1.711  1.6438  0.3718  1.9236
 4788TIP3    H236000   2.170   4.622   1.793  0.3148 -0.4298 -0.0958
 4789TIP3   OH236001   1.106   5.501   7.932 -0.0042 -0.1031  0.1737
 4789TIP3    H136002   1.114   5.485   7.838 -0.1861 -1.4704  0.3768
 4789TIP3    H236003   1.046   5.432   7.962 -0.3045  0.6070  1.2147
 4790TIP3   OH236004   4.972   3.445   1.880 -0.2480  0.5873  0.3899
 4790TIP3    H136005   4.932   3.451   1.966  0.2520 -0.5184  0.6957
 4790TIP3    H236006   5.066   3.441   1.897 -0.2727 -3.0349 -0.0272
 4791TIP3   OH236007   4.747   1.160   1.972 -0.1300 -0.3292  0.8233
 4791TIP3    H136008   4.658   1.144   2.002 -1.6269  1.4746 -2.4047
 4791TIP3    H236009   4.751   1.255   1.957  1.3983 -0.7553 -1.8078
 4792TIP3   OH236010   2.256   1.645   0.250 -0.0608  0.4301 -0.1014
 4792TIP3    H136011   2.267   1.549   0.250  0.0877  0.4414  0.7718
 4792TIP3    H236012   2.175   1.660   0.201  0.4561 -0.0776 -1.1249
 4793TIP3   OH236013   2.644   3.925   0.077  0.2829 -0.0100 -0.3409
 4793TIP3    H136014   2.603   3.911   0.162  1.1937 -0.2573  0.0614
 4793TIP3    H236015   2.730   3.961   0.097  1.0198 -1.3038 -1.1024
 4794TIP3   OH236016   2.526   1.429   1.923 -0.0642 -0.5309 -0.9732
 4794TIP3    H136017   2.592   1.481   1.968  1.3087 -1.5981 -1.7322
 4794TIP3    H236018   2.451   1.488   1.913 -0.1276 -0.0274  2.0160
 4795TIP3   OH236019   2.856   4.521   1.546 -0.1161 -0.1583 -0.0870
 4795TIP3    H136020   2.892   4.484   1.627 -0.7943 -0.6115  0.0115
 4795TIP3    H236021   2.925   4.579   1.514  0.5024 -0.6394  0.3585
 4796TIP3   OH236022   3.895   4.435   1.551 -0.7285  0.2961  0.7026
 4796TIP3    H136023   3.985   4.463   1.560 -0.5305 -0.2184  0.3464
 4796TIP3    H236024   3.876   4.441   1.458 -0.3249 -1.7895  0.4456
 4797TIP3   OH236025   5.017   0.192   7.160 -0.0173  0.0495  0.0956
 4797TIP3    H136026   4.973   0.276   7.144  0.5864  0.1715 -0.9403
 4797TIP3    H236027   4.950   0.138   7.201 -0.1765  1.3113  1.5541
 4798TIP3   OH236028   2.363   4.238   1.691 -0.0513 -0.6942 -0.0944
 4798TIP3    H136029   2.443   4.279   1.660 -0.6491  0.7385  0.2221
 4798TIP3    H236030   2.359   4.260   1.784 -1.7736  0.8846 -0.5104
 4799TIP3   OH236031   1.438   4.729   0.453 -0.5529 -0.0846 -0.2154
 4799TIP3    H136032   1.415   4.651   0.403  0.9332 -0.8978  0.3494
 4799TIP3    H236033   1.489   4.696   0.527  0.6194  1.4851 -0.3098
 4800TIP3   OH236034   2.682   3.854   1.046  0.1253  0.0726  0.2056
 4800TIP3    H136035   2.706   3.876   0.956 -0.3273 -0.2319  0.0145
 4800TIP3    H236036   2.725   3.922   1.099  2.0215 -0.8853 -0.0714
 4801TIP3   OH236037   1.986   5.376   0.619 -0.1978  0.1692  0.1605
 4801TIP3    H136038   1.980   5.290   0.659  0.9503 -0.3206 -0.6795
 4801TIP3    H236039   1.976   5.438   0.692  0.0076 -0.6803  0.9135
 4802TIP3   OH236040   4.052   3.705   1.300  0.0258  0.5483 -0.5415
 4802TIP3    H136041   4.046   3.612   1.320 -3.0333  1.0435  1.1608
 4802TIP3    H236042   4.103   3.709   1.219  0.7857 -2.5368 -0.2790
 4803TIP3   OH236043   1.205   1.283   1.273 -0.9359 -0.0854  0.2764
 4803TIP3    H136044   1.195   1.329   1.356 -0.5728  0.4051  0.0473
 4803TIP3    H236045   1.220   1.192   1.298 -2.4080 -0.2189  0.7105
 4804TIP3   OH236046   3.191   2.825   1.851  0.2064 -0.0609 -0.5921
 4804TIP3    H136047   3.144   2.882   1.791  0.8295 -1.4022 -2.3912
 4804TIP3    H236048   3.177   2.864   1.938 -1.7471  1.1812 -1.4477
 4805TIP3   OH236049   3.467   2.863   1.221  0.6396  0.3873 -0.4726
 4805TIP3    H136050   3.512   2.794   1.270  0.8585  1.1062  0.3623
 4805TIP3    H236051   3.411   2.906   1.287 -0.0537  0.5273 -1.1463
 4806TIP3   OH236052   3.683   4.203   8.206  0.4350  0.3687  0.2571
 4806TIP3    H136053   3.638   4.168   8.129 -1.1833 -0.0845  1.3922
 4806TIP3    H236054   3.775   4.179   8.193 -0.4198 -3.3471  0.4376
 4807TIP3   OH236055   2.819   3.513   2.444 -0.3253  0.3315  0.1313
 4807TIP3    H136056   2.805   3.467   2.527 -1.2292  3.4724  1.8127
 4807TIP3    H236057   2.896   3.568   2.460 -0.7271  1.2403 -0.9838
 4808TIP3   OH236058   1.439   4.489   0.309  0.3238  0.4217  0.3334
 4808TIP3    H136059   1.401   4.480   0.222 -0.6188 -0.7278  0.8495
 4808TIP3    H236060   1.449   4.399   0.340 -2.0278  0.8497  2.5483
 4809TIP3   OH236061   3.794   4.509   1.309  0.5008  0.2868  0.2715
 4809TIP3    H136062   3.725   4.570   1.332  0.4432  0.5514 -0.5914
 4809TIP3    H236063   3.788   4.500   1.214  0.5876 -0.9597  0.3727
 4810TIP3   OH236064   1.988   0.761   8.059 -0.1536 -0.5347 -0.0924
 4810TIP3    H136065   1.906   0.712   8.062  0.0914 -0.9008  0.6159
 4810TIP3    H236066   2.036   0.723   7.986 -1.4426  0.9975 -1.7797
 4811TIP3   OH236067   2.410   2.720   7.918  0.1527  0.0246 -0.0672
 4811TIP3    H136068   2.361   2.646   7.954 -0.2247  1.1877  1.9030
 4811TIP3    H236069   2.348   2.763   7.859  0.3908 -1.2399 -1.2561
 4812TIP3   OH236070   5.440   4.471   7.676  0.0968  0.4747  0.1922
 4812TIP3    H136071   5.483   4.533   7.735 -0.8007  0.7275  0.5892
 4812TIP3    H236072   5.412   4.524   7.602  0.2464  0.3566  0.0513
 4813TIP3   OH236073   3.159   1.639   0.658 -0.2152  0.2201  0.3562
 4813TIP3    H136074   3.190   1.598   0.739 -2.2542 -0.1470  0.9747
 4813TIP3    H236075   3.211   1.719   0.650 -0.2076  0.4231  2.1949
 4814TIP3   OH236076   2.641   3.027   0.564 -0.2263  0.1685 -0.5285
 4814TIP3    H136077   2.683   3.021   0.650 -0.3844  1.9483 -0.3076
 4814TIP3    H236078   2.552   3.056   0.583 -0.5035 -0.1935 -1.2458
 4815TIP3   OH236079   5.639   5.273   1.615 -0.3998  0.5884 -0.7816
 4815TIP3    H136080   5.695   5.204   1.649  0.2153  0.8970 -1.1558
 4815TIP3    H236081   5.650   5.268   1.520 -2.7792 -0.8531 -1.0313
 4816TIP3   OH236082   0.653   3.046   1.307 -0.6022 -0.0568 -0.0109
 4816TIP3    H136083   0.587   2.978   1.320  0.3417 -0.9916  0.0054
 4816TIP3    H236084   0.630   3.115   1.369 -2.0393 -0.0002 -0.5917
 4817TIP3   OH236085   3.541   3.867   1.595 -0.2914  0.5504  0.1378
 4817TIP3    H136086   3.478   3.903   1.657 -1.3484  0.4740 -0.8784
 4817TIP3    H236087   3.524   3.914   1.513 -1.4164 -1.8877 -1.0898
 4818TIP3   OH236088   0.779   3.676   0.874 -0.8949  0.1311  0.2664
 4818TIP3    H136089   0.740   3.592   0.900 -1.2294  0.0040 -0.6269
 4818TIP3    H236090   0.707   3.738   0.875 -1.1652 -0.1388 -1.5454
 4819TIP3   OH236091   3.175   3.112   1.157 -0.7138  0.4345 -0.0485
 4819TIP3    H136092   3.134   3.165   1.226  0.5526  2.6544 -0.9400
 4819TIP3    H236093   3.233   3.052   1.204 -2.0181 -0.0375  0.9762
 4820TIP3   OH236094   2.244   5.006   1.753  0.1730  0.2124  0.4672
 4820TIP3    H136095   2.190   4.927   1.758 -0.7977  0.7952 -0.7490
 4820TIP3    H236096   2.309   4.986   1.686 -1.0727  1.0452 -1.0004
 4821TIP3   OH236097   2.182   1.989   1.536  0.0748 -0.2119 -0.1566
 4821TIP3    H136098   2.248   1.949   1.479 -0.3557 -0.7872 -0.2519
 4821TIP3    H236099   2.183   2.082   1.513  0.8531 -0.2193 -0.1603
 4822TIP3   OH236100   0.383   6.421   1.716 -0.1004 -0.2228 -0.2734
 4822TIP3    H136101   0.398   6.327   1.724  0.7916 -0.0331  0.3579
 4822TIP3    H236102   0.304   6.438   1.767  0.5214 -0.4128  0.7532
 4823TIP3   OH236103   2.780   3.174   0.117 -0.0488 -0.0800  0.8321
 4823TIP3    H136104   2.719   3.161   0.189  0.3695 -1.4962  0.9407
 4823TIP3    H236105   2.867   3.169   0.159  0.1807 -0.2926  0.3285
 4824TIP3   OH236106   1.624   3.613   0.729 -0.0574  0.7217  0.1510
 4824TIP3    H136107   1.547   3.645   0.682  0.8582  0.3989 -1.6257
 4824TIP3    H236108   1.678   3.691   0.744  0.9447  0.4591 -1.8516
 4825TIP3   OH236109   2.722   1.491   0.813 -0.2229 -0.6296  0.5122
 4825TIP3    H136110   2.788   1.494   0.883  3.6473 -1.6813 -2.8966
 4825TIP3    H236111   2.747   1.562   0.754 -1.3931 -1.8699 -1.5060
 4826TIP3   OH236112   4.125   2.652   2.402 -0.2090 -0.2907  0.4191
 4826TIP3    H136113   4.197   2.607   2.358  0.3938 -0.8699  1.9863
 4826TIP3    H236114   4.164   2.730   2.440 -0.3644 -0.6902  1.4152
 4827TIP3   OH236115   1.623   1.299   1.622  0.7210  0.4860  0.2970
 4827TIP3    H136116   1.617   1.264   1.711  0.1393 -0.4460 -0.0937
 4827TIP3    H236117   1.653   1.389   1.633 -0.2256  0.6715  1.4925
 4828TIP3   OH236118   2.742   2.949   0.815 -0.2435  0.8116 -0.1969
 4828TIP3    H136119   2.734   2.854   0.814  2.3337  0.5454 -2.4867
 4828TIP3    H236120   2.697   2.976   0.895 -0.1030 -2.4138  1.0519
 4829TIP3   OH236121   1.740   2.659   1.779  0.2351  0.2485  0.1854
 4829TIP3    H136122   1.832   2.681   1.794  0.6642 -1.9445  1.0045
 4829TIP3    H236123   1.701   2.657   1.867 -0.3338  0.1631 -0.0683
 4830TIP3   OH236124   1.848   2.892   6.891  0.1920 -0.2456  0.7094
 4830TIP3    H136125   1.833   2.841   6.971  0.1126  0.4303  1.1294
 4830TIP3    H236126   1.940   2.915   6.894  0.6789 -1.8945 -0.3986
 4831TIP3   OH236127   3.709   2.818   1.450 -0.3148 -0.1963  0.4511
 4831TIP3    H136128   3.657   2.889   1.488 -0.7635 -1.0204  1.4311
 4831TIP3    H236129   3.746   2.773   1.526  0.3866 -0.6883 -0.1764
 4832TIP3   OH236130   7.309   3.535   1.425  0.3478  0.1194  0.4590
 4832TIP3    H136131   7.286   3.551   1.516 -1.3600  2.0580 -0.2742
 4832TIP3    H236132   7.357   3.613   1.398  0.5287 -0.2818 -0.3964
 4833TIP3   OH236133   1.236   3.739   1.880  0.4988  0.7755 -0.3621
 4833TIP3    H136134   1.151   3.741   1.836  0.4639  1.0261 -0.2862
 4833TIP3    H236135   1.217   3.770   1.969  0.7699  1.3977 -0.5202
 4834TIP3   OH236136   3.925   7.219   8.047  0.2071  0.0789  0.3418
 4834TIP3    H136137   3.994   7.178   8.100  0.5230  1.4659  1.0348
 4834TIP3    H236138   3.972   7.256   7.972 -0.1635 -1.3962 -0.6131
 4835TIP3   OH236139   1.383   0.216   0.385 -0.2488 -0.3338  0.8707
 4835TIP3    H136140   1.406   0.307   0.405  2.0021 -0.8216  0.5957
 4835TIP3    H236141   1.331   0.221   0.304  1.9483  0.5258 -0.5297
 4836TIP3   OH236142   2.174   4.095   7.252 -0.0870  0.2662 -0.0727
 4836TIP3    H136143   2.189   4.058   7.165 -1.2449  2.1307 -1.0853
 4836TIP3    H236144   2.114   4.167   7.238  0.2604  1.0476  2.2021
 4837TIP3   OH236145   3.408   2.052   2.033  0.2498 -0.2638  0.1248
 4837TIP3    H136146   3.419   2.098   2.117 -1.7674 -1.2029  0.9479
 4837TIP3    H236147   3.373   1.967   2.057  1.1641 -1.1445 -1.5963
 4838TIP3   OH236148   1.851   3.122   2.355 -0.2992 -0.1543 -0.1813
 4838TIP3    H136149   1.847   3.204   2.307  1.3224  0.8749  1.3583
 4838TIP3    H236150   1.930   3.078   2.323 -0.3991 -0.4721 -0.0031
 4839TIP3   OH236151   1.726   0.063   0.785 -0.8695  0.6149 -0.3055
 4839TIP3    H136152   1.747  -0.002   0.851 -2.2197 -0.4435 -0.8892
 4839TIP3    H236153   1.721   0.146   0.834 -0.0655  0.1322  0.5979
 4840TIP3   OH236154   3.244   3.924   6.713  0.3805  0.3371 -0.3409
 4840TIP3    H136155   3.233   3.949   6.621 -0.5322 -0.3547 -0.4219
 4840TIP3    H236156   3.206   3.996   6.763 -1.7849 -0.6213 -0.5648
 4841TIP3   OH236157   4.082   1.072   0.376  0.3414 -0.6318  0.0453
 4841TIP3    H136158   4.135   1.092   0.454  2.1376  0.6854 -1.4583
 4841TIP3    H236159   4.037   1.153   0.356  0.6652 -0.6764 -0.8748
 4842TIP3   OH236160   2.936   2.525   8.407 -0.2189 -0.2889 -0.0937
 4842TIP3    H136161   2.989   2.576   8.469 -0.9911 -0.6150  0.8405
 4842TIP3    H236162   2.988   2.524   8.326 -0.0367  1.7095 -0.0356
 4843TIP3   OH236163   3.566   6.488   1.588  0.2425  0.4714  0.2744
 4843TIP3    H136164   3.482   6.475   1.544  0.2169  1.9386 -0.1562
 4843TIP3    H236165   3.621   6.531   1.523  1.1660 -0.0383  0.7157
 4844TIP3   OH236166   2.354   1.523   2.205  0.0336  0.0917  0.2398
 4844TIP3    H136167   2.419   1.453   2.204 -0.9126 -0.7800 -0.5364
 4844TIP3    H236168   2.301   1.505   2.283 -0.3197 -0.1459 -0.0591
 4845TIP3   OH236169   2.932   5.003   2.429 -0.0630 -0.6697  0.5950
 4845TIP3    H136170   2.902   4.927   2.480 -0.5369 -1.2715 -0.5504
 4845TIP3    H236171   2.982   4.965   2.357  0.7532  0.1846  0.7005
 4846TIP3   OH236172   3.548   1.561   0.956 -0.0390  0.0141  0.3634
 4846TIP3    H136173   3.604   1.518   0.891 -1.9104 -1.0571 -0.5932
 4846TIP3    H236174   3.525   1.491   1.017 -3.4922 -0.5708 -1.4643
 4847TIP3   OH236175   1.875   3.085   0.931 -0.0411  0.1080  0.0121
 4847TIP3    H136176   1.876   3.087   1.026  0.9670 -0.5462  0.0279
 4847TIP3    H236177   1.942   3.148   0.905  0.8561 -0.9162 -0.2184
 4848TIP3   OH236178   4.272   1.958   7.839 -0.7540  0.2344  0.4127
 4848TIP3    H136179   4.368   1.956   7.838 -0.7249  1.3274 -0.2393
 4848TIP3    H236180   4.246   1.869   7.861  0.4440  0.3387  2.4586
 4849TIP3   OH236181   3.670   4.939   0.273  0.3480  0.4550 -0.3511
 4849TIP3    H136182   3.764   4.942   0.258 -0.1604  0.2796 -4.0053
 4849TIP3    H236183   3.638   4.870   0.214 -1.7737 -1.3130  2.7034
 4850TIP3   OH236184   2.472   0.687   1.018  0.2102  0.6945 -0.1092
 4850TIP3    H136185   2.541   0.680   1.083 -0.5173 -1.2214  0.4893
 4850TIP3    H236186   2.449   0.597   0.997 -2.8447  1.2695  0.4886
 4851TIP3   OH236187   2.568   2.423   1.668 -0.2476  0.1029  0.6351
 4851TIP3    H136188   2.478   2.453   1.682 -0.2333  1.0116 -1.0374
 4851TIP3    H236189   2.621   2.480   1.724 -0.5422  0.9452  0.0765
 4852TIP3   OH236190   4.144   1.867   0.333 -0.3231 -0.4848 -0.0001
 4852TIP3    H136191   4.207   1.916   0.385  1.1385 -0.3006 -1.8524
 4852TIP3    H236192   4.071   1.927   0.320  0.0661  0.0758  0.3908
 4853TIP3   OH236193   4.028   3.899   1.494  0.0654 -0.0540 -0.5228
 4853TIP3    H136194   3.942   3.875   1.460 -0.6111  0.7051  0.6162
 4853TIP3    H236195   4.082   3.821   1.479 -1.0580 -0.8641 -0.4506
 4854TIP3   OH236196   1.751   3.877   1.632  0.0541 -0.3371  0.1555
 4854TIP3    H136197   1.669   3.829   1.621 -0.4502  1.1003 -2.6149
 4854TIP3    H236198   1.764   3.880   1.727 -3.6370  0.3188  0.7198
 4855TIP3   OH236199   1.857   4.108   1.160 -0.1932 -0.0512  0.6022
 4855TIP3    H136200   1.831   4.101   1.251 -0.6369  0.1445  0.4926
 4855TIP3    H236201   1.931   4.049   1.151 -0.3912 -0.3577  0.9977
 4856TIP3   OH236202   3.357   3.508   1.404  0.1621 -0.0117  0.4463
 4856TIP3    H136203   3.385   3.527   1.315 -1.5628 -0.8775 -0.2947
 4856TIP3    H236204   3.288   3.442   1.395  0.1328 -0.3010  2.4289
 4857TIP3   OH236205   2.723   2.952   2.051 -0.5831  0.0760  0.1008
 4857TIP3    H136206   2.679   2.868   2.054  1.0553 -0.8165 -0.1741
 4857TIP3    H236207   2.692   2.993   1.971 -0.8725 -0.5650 -0.1158
 4858TIP3   OH236208   3.360   1.840   7.267  0.3447  0.0523 -0.1279
 4858TIP3    H136209   3.442   1.890   7.271 -0.0104  0.6681 -0.4787
 4858TIP3    H236210   3.295   1.903   7.235 -0.3109 -0.3786  0.3350
 4859TIP3   OH236211   3.410   3.612   1.903  1.1295 -0.5035  0.4538
 4859TIP3    H136212   3.451   3.610   1.817  1.9698 -1.3756  0.8753
 4859TIP3    H236213   3.469   3.563   1.960  0.5449 -0.0023  1.5166
 4860TIP3   OH236214   2.506   2.585   1.308 -0.0710  0.6705  0.1519
 4860TIP3    H136215   2.592   2.571   1.347 -0.7281 -1.7445  0.7857
 4860TIP3    H236216   2.445   2.545   1.369 -1.6723  2.3392 -0.3028
 4861TIP3   OH236217   3.847   2.644   1.609 -0.0738 -0.0435  0.7011
 4861TIP3    H136218   3.931   2.673   1.573 -0.9956  1.3927 -0.3327
 4861TIP3    H236219   3.864   2.555   1.640  1.3141 -0.5164 -1.3242
 4862TIP3   OH236220   3.463   5.652   1.605 -0.1203  0.6546  0.1699
 4862TIP3    H136221   3.435   5.629   1.517  0.6619  0.8504 -0.1303
 4862TIP3    H236222   3.429   5.740   1.619 -1.9607 -0.1313  0.8192
 4863TIP3   OH236223   0.886   1.745   2.227  1.1375 -0.2334 -0.1006
 4863TIP3    H136224   0.818   1.772   2.165 -0.5303 -1.5884  1.0933
 4863TIP3    H236225   0.856   1.779   2.312  2.9308  0.8052  0.1450
 4864TIP3   OH236226   3.355   3.412   6.681 -0.2036 -0.3299  0.3470
 4864TIP3    H136227   3.424   3.396   6.746  0.4588  0.5143 -0.1344
 4864TIP3    H236228   3.302   3.482   6.719  0.9999  1.1467 -0.5983
 4865TIP3   OH236229   3.182   3.605   0.213  0.7544 -0.2058 -0.0104
 4865TIP3    H136230   3.109   3.546   0.195  1.5617 -1.2379  0.0207
 4865TIP3    H236231   3.241   3.591   0.139  1.3075 -0.0059  0.3935
 4866TIP3   OH236232   3.123   2.291   0.278  1.0509 -0.4862  0.3991
 4866TIP3    H136233   3.043   2.323   0.237  1.2132  0.8791  1.1228
 4866TIP3    H236234   3.092   2.232   0.347  0.6587 -0.1213  0.5432
 4867TIP3   OH236235   3.221   2.443   2.251  0.0124  0.1393 -0.1436
 4867TIP3    H136236   3.305   2.411   2.216 -0.0098 -0.6101  0.4643
 4867TIP3    H236237   3.195   2.513   2.191 -0.1911 -1.3308 -1.8214
 4868TIP3   OH236238   4.953   3.971   0.777 -0.8538  0.2892  0.3725
 4868TIP3    H136239   4.922   3.892   0.733 -1.5037  0.6007  0.2719
 4868TIP3    H236240   4.880   3.998   0.832 -0.0669 -0.0776  1.6366
 4869TIP3   OH236241   2.968   5.533   2.153 -0.6264  0.5507 -0.2678
 4869TIP3    H136242   3.028   5.575   2.215 -1.2036  1.7619 -0.5138
 4869TIP3    H236243   2.889   5.516   2.205  0.2642 -1.9432  0.3137
 4870TIP3   OH236244   5.859   3.329   1.198 -0.3702  0.0396 -0.1629
 4870TIP3    H136245   5.911   3.346   1.119 -1.2149  2.2216 -0.2914
 4870TIP3    H236246   5.912   3.268   1.249  1.6446  1.0567 -0.9638
 4871TIP3   OH236247   2.623   2.263   2.338  0.3446 -0.3868  0.6606
 4871TIP3    H136248   2.537   2.293   2.309  1.1196  1.3221  0.0438
 4871TIP3    H236249   2.605   2.205   2.412 -1.3079  0.2635  0.7849
 4872TIP3   OH236250   4.708   3.096   0.200 -0.7288 -0.2019 -0.4376
 4872TIP3    H136251   4.672   3.020   0.245  0.0252 -0.2369  0.1140
 4872TIP3    H236252   4.793   3.110   0.241 -0.6649  0.6574 -0.8530
 4873TIP3   OH236253   3.805   4.396   1.053 -0.3146 -0.1216 -0.2027
 4873TIP3    H136254   3.788   4.471   0.996 -0.1419  1.3652  1.6381
 4873TIP3    H236255   3.899   4.382   1.046 -0.3646 -0.2488 -0.6394
 4874TIP3   OH236256   2.735   2.914   1.523  0.0170  0.3932 -0.1116
 4874TIP3    H136257   2.710   2.923   1.431  3.3610  2.0369 -0.9552
 4874TIP3    H236258   2.739   3.004   1.556  1.0742 -0.0463  1.0110
 4875TIP3   OH236259   3.396   4.607   7.693  0.0441  0.2503  0.0761
 4875TIP3    H136260   3.450   4.625   7.770  2.0979  3.2729 -1.9734
 4875TIP3    H236261   3.459   4.588   7.623 -1.7083 -0.2072 -1.4119
 4876TIP3   OH236262   0.894   0.488   1.559 -0.4435  0.4148  0.0025
 4876TIP3    H136263   0.885   0.582   1.577 -2.7798  0.2301 -0.1110
 4876TIP3    H236264   0.941   0.454   1.635 -0.7106  1.4488  0.6416
 4877TIP3   OH236265   4.691   3.255   1.787 -0.1641 -0.1517 -0.1829
 4877TIP3    H136266   4.768   3.199   1.792  0.1726  0.2256 -1.0965
 4877TIP3    H236267   4.725   3.342   1.767 -0.6212  0.5672  1.9932
 4878TIP3   OH236268   3.307   1.945   6.924 -0.2133  0.4483 -0.2053
 4878TIP3    H136269   3.384   2.002   6.924  0.0703  0.0824 -1.2197
 4878TIP3    H236270   3.334   1.870   6.977  0.6455 -0.3302 -1.7049
 4879TIP3   OH236271   3.328   4.020   1.770  0.2762 -0.5542  0.1238
 4879TIP3    H136272   3.247   3.971   1.757 -0.5132  1.2643 -2.1657
 4879TIP3    H236273   3.300   4.110   1.789  1.7135  0.3343 -1.7267
 4880TIP3   OH236274   1.943   3.763   1.190  0.1766  0.7534 -0.2750
 4880TIP3    H136275   1.964   3.671   1.206  0.4062  0.6760 -1.0270
 4880TIP3    H236276   1.887   3.788   1.264 -2.2372 -0.7768 -1.5097
 4881TIP3   OH236277   4.513   3.975   7.843  0.2392  0.4757  0.4438
 4881TIP3    H136278   4.440   3.919   7.867 -0.4915  0.6516 -1.2908
 4881TIP3    H236279   4.591   3.928   7.875 -0.3643 -1.4598 -0.8023
 4882TIP3   OH236280   5.639   1.399   6.596 -0.5809 -0.1259 -0.4940
 4882TIP3    H136281   5.733   1.408   6.580 -0.2312  1.0073  1.8880
 4882TIP3    H236282   5.606   1.348   6.522  1.7912  0.0348 -1.6949
 4883TIP3   OH236283   4.339   2.212   0.148 -0.4101 -0.2138 -0.0110
 4883TIP3    H136284   4.424   2.184   0.181 -0.4683 -0.2637  0.0978
 4883TIP3    H236285   4.283   2.214   0.225  0.2180  2.6810  0.4415
 4884TIP3   OH236286   3.141   1.434   2.248 -0.1331 -0.1886  0.2751
 4884TIP3    H136287   3.097   1.381   2.181  0.7241  0.7328 -1.0503
 4884TIP3    H236288   3.194   1.371   2.297 -1.2242 -0.9662  0.4659
 4885TIP3   OH236289   3.796   3.655   0.839  0.0761  0.0653  0.0042
 4885TIP3    H136290   3.858   3.608   0.784 -0.0770  0.3550 -0.4221
 4885TIP3    H236291   3.808   3.619   0.926 -0.2791 -1.0081 -0.3850
 4886TIP3   OH236292   3.361   2.420   0.244 -0.2313  0.4672  0.2466
 4886TIP3    H136293   3.288   2.360   0.227 -2.4460  3.4151 -1.1639
 4886TIP3    H236294   3.361   2.432   0.339  0.7644 -2.3488  0.6281
 4887TIP3   OH236295   1.603   0.465   7.127 -0.1284 -0.4937  0.0706
 4887TIP3    H136296   1.666   0.413   7.177  0.6671  1.0542  0.7279
 4887TIP3    H236297   1.651   0.544   7.102 -0.8790 -0.7285 -2.1744
 4888TIP3   OH236298   4.054   6.202   1.773  0.0662  0.3269 -0.4721
 4888TIP3    H136299   3.983   6.140   1.760  1.0307 -0.8255 -0.3320
 4888TIP3    H236300   4.013   6.277   1.816 -1.1669 -0.0706 -0.9410
 4889TIP3   OH236301   1.079   1.892   2.084 -0.1505 -0.0060 -0.0385
 4889TIP3    H136302   1.122   1.949   2.148 -0.3057  1.4849 -1.2501
 4889TIP3    H236303   1.013   1.845   2.134  1.1535 -0.4388  1.3281
 4890TIP3   OH236304   2.149   4.156   0.515  0.3921 -0.4754  0.2162
 4890TIP3    H136305   2.177   4.210   0.589 -0.3115  0.3799 -0.1187
 4890TIP3    H236306   2.097   4.216   0.461 -0.4069 -1.4936 -0.1710
 4891TIP3   OH236307   1.571   4.100   2.540 -0.0927 -0.6910 -0.0374
 4891TIP3    H136308   1.483   4.139   2.532  1.6286  3.0854 -1.6986
 4891TIP3    H236309   1.575   4.035   2.470 -0.2100  1.9654 -2.5844
 4892TIP3   OH236310   3.411   2.939   0.964 -0.3947 -0.0749  0.6290
 4892TIP3    H136311   3.316   2.936   0.971 -0.5436  1.1290 -0.7949
 4892TIP3    H236312   3.442   2.893   1.043 -2.1222  0.2386  1.5107
 4893TIP3   OH236313   1.376   3.880   0.995  0.1524 -0.1689 -0.3010
 4893TIP3    H136314   1.417   3.966   0.987 -0.5162  0.2911  0.9552
 4893TIP3    H236315   1.284   3.900   1.012 -0.4267 -1.1635 -2.1005
 4894TIP3   OH236316   4.649   5.119   1.341 -0.6927  0.1222 -0.4823
 4894TIP3    H136317   4.595   5.059   1.392  0.3324  1.7340  2.6409
 4894TIP3    H236318   4.645   5.202   1.389  2.1241  1.0841 -1.7872
 4895TIP3   OH236319   2.179   3.701   7.877  0.5701 -0.0261  0.2691
 4895TIP3    H136320   2.151   3.752   7.801  1.8651  1.3753  0.7265
 4895TIP3    H236321   2.131   3.738   7.951  1.2859  0.3597  0.5508
 4896TIP3   OH236322   2.001   2.572   2.449  0.0951 -0.2921  0.3716
 4896TIP3    H136323   2.064   2.508   2.416 -2.7187 -2.8153 -0.3926
 4896TIP3    H236324   2.043   2.609   2.527  3.2082 -0.5548 -1.0841
 4897TIP3   OH236325   5.071   2.492   7.166  0.1752  0.2302 -0.1135
 4897TIP3    H136326   5.108   2.455   7.246 -0.0171  0.4106  0.0582
 4897TIP3    H236327   4.992   2.441   7.149 -1.1902  1.8476  1.2294
 4898TIP3   OH236328   2.170   2.867   2.111 -0.1563 -0.2327 -1.0631
 4898TIP3    H136329   2.109   2.823   2.171  0.6830  1.4090  1.0812
 4898TIP3    H236330   2.122   2.945   2.082 -0.6559 -1.1480 -2.7925
 4899TIP3   OH236331   2.638   1.952   0.543  0.1530  0.1841  0.5126
 4899TIP3    H136332   2.556   2.001   0.540 -0.3469 -0.7100 -0.9285
 4899TIP3    H236333   2.625   1.878   0.484  2.0180  0.0594  0.2054
 4900TIP3   OH236334   3.119   3.818   1.489  0.4282  0.7270  0.3594
 4900TIP3    H136335   3.165   3.741   1.455  0.8482  0.8320  0.6907
 4900TIP3    H236336   3.171   3.892   1.459  1.1843  0.8012  1.7787
 4901TIP3   OH236337   1.398   2.395   1.719 -0.8492 -0.9640  0.1757
 4901TIP3    H136338   1.415   2.303   1.700 -1.3231 -1.1846  0.8034
 4901TIP3    H236339   1.309   2.410   1.686 -0.3264 -0.4161 -1.0112
 4902TIP3   OH236340   2.602   0.924   1.220 -0.4414 -0.4951  0.0557
 4902TIP3    H136341   2.508   0.934   1.231 -0.2765 -0.4136  1.5509
 4902TIP3    H236342   2.630   0.870   1.295  0.9125  0.8494  0.5649
 4903TIP3   OH236343   0.525   3.193   1.486  0.1533 -0.0288  0.4880
 4903TIP3    H136344   0.548   3.246   1.563  1.0849 -2.0493  1.6275
 4903TIP3    H236345   0.436   3.163   1.503  0.5689 -0.9464  1.0485
 4904TIP3   OH236346   1.014   4.186   1.842  0.2586 -0.0153  0.0172
 4904TIP3    H136347   0.971   4.189   1.757  1.6475 -1.1200 -0.7405
 4904TIP3    H236348   1.099   4.226   1.827 -0.6269  2.6327  1.6259
 4905TIP3   OH236349   5.264   3.340   1.785 -0.1018 -0.0704 -0.6582
 4905TIP3    H136350   5.264   3.349   1.690 -0.1910  0.4436 -0.6113
 4905TIP3    H236351   5.329   3.403   1.816  0.4587 -0.7613 -0.4249
 4906TIP3   OH236352   0.816   0.709   1.349 -0.1858 -0.0913  0.3758
 4906TIP3    H136353   0.802   0.787   1.294  0.7384  1.6895  2.5864
 4906TIP3    H236354   0.907   0.683   1.330 -0.0070  0.2661  0.7376
 4907TIP3   OH236355   2.443   3.123   1.599 -0.5781  0.5009 -0.4712
 4907TIP3    H136356   2.433   3.029   1.617 -0.2920  0.1611 -2.0183
 4907TIP3    H236357   2.462   3.162   1.684  0.7355 -1.0498 -0.0298
 4908TIP3   OH236358   3.029   3.246   1.353  0.3538  0.1178 -0.1542
 4908TIP3    H136359   2.946   3.223   1.311 -0.6585  3.4936 -0.1834
 4908TIP3    H236360   3.012   3.238   1.447  0.7008 -1.2927 -0.1932
 4909TIP3   OH236361   2.425   2.863   1.975  0.3410 -0.0275  0.0307
 4909TIP3    H136362   2.377   2.864   2.058 -0.1704  0.5846 -0.2660
 4909TIP3    H236363   2.391   2.939   1.926  0.3700 -0.5892 -0.8818
 4910TIP3   OH236364   4.202   2.103   2.455 -0.0849 -0.3287  0.1843
 4910TIP3    H136365   4.201   2.138   2.544  1.0595  0.5735 -0.1447
 4910TIP3    H236366   4.229   2.177   2.401  2.9329 -1.8106 -0.4542
 4911TIP3   OH236367   2.466   0.567   0.023 -0.0728 -0.1418  0.2476
 4911TIP3    H136368   2.561   0.560   0.011 -0.0627 -2.1674  1.2699
 4911TIP3    H236369   2.454   0.561   0.118 -1.1075  2.0533  0.2839
 4912TIP3   OH236370   2.780   3.936   1.310 -0.3675  0.1357  0.1120
 4912TIP3    H136371   2.781   4.026   1.276 -0.7911  0.1573  0.1603
 4912TIP3    H236372   2.788   3.946   1.405  0.2762  0.0951  0.0643
 4913TIP3   OH236373   4.058   3.460   1.381 -0.0534  0.2360  0.4924
 4913TIP3    H136374   4.072   3.381   1.330 -1.1935 -0.1568  0.7794
 4913TIP3    H236375   4.015   3.430   1.461 -1.4551  1.2474  0.1465
 4914TIP3   OH236376   3.220   2.563   2.011 -0.1983  0.7966  0.5249
 4914TIP3    H136377   3.225   2.643   1.958  1.3135 -0.4124 -1.2082
 4914TIP3    H236378   3.262   2.496   1.957 -0.9693 -1.0618  2.1811
 4915TIP3   OH236379   3.131   0.971   2.085  0.2905 -0.1601  0.6337
 4915TIP3    H136380   3.068   0.911   2.125  2.3566 -4.2253 -1.8389
 4915TIP3    H236381   3.209   0.964   2.140  0.6580 -0.0463  0.1324
 4916TIP3   OH236382   3.360   7.314   1.173  0.0810 -0.0641  0.5738
 4916TIP3    H136383   3.285   7.354   1.217 -0.3456  1.0625 -1.0847
 4916TIP3    H236384   3.434   7.371   1.195 -0.2509  0.8632 -0.6134
 4917TIP3   OH236385   5.098   2.538   0.202  0.0260 -0.3124 -0.1253
 4917TIP3    H136386   5.076   2.631   0.205 -3.1470 -1.0151 -0.0999
 4917TIP3    H236387   5.055   2.500   0.278  0.7374 -1.9165 -0.5010
 4918TIP3   OH236388   2.218   3.211   0.919 -0.0122 -0.1057  0.1747
 4918TIP3    H136389   2.176   3.293   0.892  1.4748 -0.0809 -2.2054
 4918TIP3    H236390   2.274   3.237   0.993 -0.3509  0.8142  0.1217
 4919TIP3   OH236391   7.203   4.907   1.109 -0.1560 -0.1813  0.5051
 4919TIP3    H136392   7.123   4.931   1.156  0.3617  1.0610  0.7777
 4919TIP3    H236393   7.273   4.955   1.155  0.6652 -0.8122 -0.0686
 4920TIP3   OH236394   1.953   3.800   2.455 -0.1403 -0.2410 -0.1384
 4920TIP3    H136395   2.038   3.822   2.418  0.0563  0.4662  0.7168
 4920TIP3    H236396   1.949   3.704   2.451  1.1565 -0.3412  0.8087
 4921TIP3   OH236397   2.132   4.292   0.209 -0.1029  0.4354 -0.4266
 4921TIP3    H136398   2.066   4.329   0.268  0.6496  0.8998  0.1297
 4921TIP3    H236399   2.206   4.352   0.215  0.3450 -0.0388 -1.1113
 4922TIP3   OH236400   3.712   4.751   1.105 -0.1017  0.1882  0.0228
 4922TIP3    H136401   3.717   4.693   1.029 -0.3635 -1.8610  1.5320
 4922TIP3    H236402   3.802   4.782   1.117  0.3703 -1.2097  0.1794
 4923TIP3   OH236403   3.683   1.432   8.173 -0.9214  0.1090 -0.1082
 4923TIP3    H136404   3.724   1.361   8.124  1.7421  1.3240  0.3044
 4923TIP3    H236405   3.589   1.413   8.169 -0.3634 -2.5126 -1.4020
 4924TIP3   OH236406   3.235   5.067   7.472 -0.4340 -0.0654  0.5851
 4924TIP3    H136407   3.173   5.102   7.409  0.9631 -0.0740 -0.8420
 4924TIP3    H236408   3.265   4.985   7.433  1.7922  0.8192  0.3651
 4925TIP3   OH236409   2.996   3.253   1.632 -0.5241 -0.4842 -0.2191
 4925TIP3    H136410   2.938   3.271   1.706  0.2191 -1.1317  0.5405
 4925TIP3    H236411   3.076   3.302   1.652  0.0017 -1.3615 -0.1444
 4926TIP3   OH236412   3.884   5.090   1.420  0.3163 -0.3700  0.0244
 4926TIP3    H136413   3.795   5.108   1.452 -0.4646  0.0421 -2.3069
 4926TIP3    H236414   3.890   4.994   1.420 -0.4054 -0.4147 -0.5597
 4927TIP3   OH236415   3.731   6.273   0.491 -0.2260  0.3952 -0.3364
 4927TIP3    H136416   3.806   6.263   0.433  0.2509  0.4254  0.2732
 4927TIP3    H236417   3.743   6.360   0.530 -1.7647  1.3695 -1.9300
 4928TIP3   OH236418   4.278   2.668   6.747  0.5050 -0.4477 -0.2447
 4928TIP3    H136419   4.251   2.582   6.714  1.6263 -0.3322 -1.4951
 4928TIP3    H236420   4.272   2.660   6.842 -0.7288 -1.4720 -0.3912
 4929TIP3   OH236421   2.176   3.825   1.805  0.4303 -0.0453 -0.2026
 4929TIP3    H136422   2.217   3.877   1.736  3.9818 -0.9426  1.1404
 4929TIP3    H236423   2.226   3.846   1.884 -1.1456 -1.9052  1.3546
 4930TIP3   OH236424   2.778   3.908   7.899 -0.1467 -0.0191 -0.4430
 4930TIP3    H136425   2.777   3.970   7.972 -0.3515 -2.2206  1.5039
 4930TIP3    H236426   2.864   3.919   7.859 -0.2525  1.6321 -0.2276
 4931TIP3   OH236427   0.908   4.746   0.384 -0.1635  0.0729  0.0152
 4931TIP3    H136428   0.827   4.745   0.333 -0.2047  0.0281  0.0817
 4931TIP3    H236429   0.891   4.807   0.456 -1.0973 -1.9888  1.5939
 4932TIP3   OH236430   3.116   5.141   0.656  0.3251  0.1075 -0.0209
 4932TIP3    H136431   3.038   5.112   0.610 -0.3746  1.5758  0.2166
 4932TIP3    H236432   3.180   5.072   0.640 -0.4409 -0.2405 -1.7419
 4933TIP3   OH236433   1.157   0.778   1.724  0.3905 -0.2136 -0.2174
 4933TIP3    H136434   1.096   0.754   1.794  2.2909 -2.6988  0.6689
 4933TIP3    H236435   1.242   0.786   1.769  0.9886  1.8110 -1.6470
 4934TIP3   OH236436   4.262   3.158   1.754 -0.0304  0.5805 -0.2438
 4934TIP3    H136437   4.167   3.155   1.763 -0.0083 -2.9209 -0.3089
 4934TIP3    H236438   4.295   3.151   1.844  0.1528  1.1397 -0.2694
 4935TIP3   OH236439   3.668   1.712   8.497  0.1675 -0.2945 -0.6749
 4935TIP3    H136440   3.724   1.635   8.500  1.0551  0.3099 -1.5772
 4935TIP3    H236441   3.657   1.737   8.589  0.0049 -1.3886 -0.3851
 4936TIP3   OH236442   4.047   0.884   8.459 -0.6033  0.3028 -0.3545
 4936TIP3    H136443   4.065   0.791   8.443 -1.2492  0.0161  0.5046
 4936TIP3    H236444   4.117   0.913   8.518 -0.4215  0.3488 -0.5960
 4937TIP3   OH236445   3.710   2.872   0.201 -0.2116 -0.2791  0.2450
 4937TIP3    H136446   3.687   2.954   0.244 -1.0485  0.1895 -1.0387
 4937TIP3    H236447   3.662   2.804   0.249 -1.3602  0.2646 -0.1234
 4938TIP3   OH236448   2.150   2.969   1.645  0.0657 -0.1226  0.3939
 4938TIP3    H136449   2.176   2.991   1.735  1.5606 -0.8793  0.1673
 4938TIP3    H236450   2.229   2.931   1.607 -1.4891 -2.7835 -0.2513
 4939TIP3   OH236451   3.438   1.469   1.526 -0.0527 -0.1256  0.0670
 4939TIP3    H136452   3.459   1.473   1.620 -1.0978 -1.4956  0.3649
 4939TIP3    H236453   3.474   1.386   1.497  0.2017  0.2664 -0.7557
 4940TIP3   OH236454   1.903   4.650   1.081  0.3966  0.0306  0.2595
 4940TIP3    H136455   1.913   4.706   1.004 -2.4599 -1.0595 -0.9663
 4940TIP3    H236456   1.897   4.711   1.155  1.4110  1.1509 -0.5625
 4941TIP3   OH236457   4.131   3.110   1.219 -0.1642 -0.2382 -0.3415
 4941TIP3    H136458   4.118   3.019   1.193  2.0864 -0.0573 -2.2972
 4941TIP3    H236459   4.206   3.108   1.278  0.4630  0.4590 -1.1130
 4942TIP3   OH236460   1.515   0.393   0.101  0.0640  0.4729  0.0864
 4942TIP3    H136461   1.477   0.425   0.183  0.1704  0.6713  0.0578
 4942TIP3    H236462   1.592   0.344   0.128 -1.2404 -1.5050  0.2859
 4943TIP3   OH236463   1.727   2.268   1.208 -0.4852  0.2625  0.4106
 4943TIP3    H136464   1.740   2.353   1.166 -0.1717  0.1969  0.3709
 4943TIP3    H236465   1.654   2.228   1.160 -0.4072  0.3652  0.2064
 4944TIP3   OH236466   1.739   1.216   0.863  0.4486 -0.3142  0.0873
 4944TIP3    H136467   1.785   1.190   0.942 -0.2781  0.2324  0.7023
 4944TIP3    H236468   1.646   1.207   0.885  0.2262  0.7311 -0.3804
 4945TIP3   OH236469   3.909   3.937   1.120 -0.7012  0.2297 -0.4366
 4945TIP3    H136470   3.948   3.855   1.089  0.2130  0.9698 -1.3124
 4945TIP3    H236471   3.833   3.910   1.171  0.6589 -1.2622  0.8988
 4946TIP3   OH236472   5.798   4.796   2.301  0.0086  0.4300 -0.5732
 4946TIP3    H136473   5.855   4.865   2.334 -0.1264  0.2416  0.0449
 4946TIP3    H236474   5.711   4.819   2.332 -0.1456  0.3553 -0.9482
 4947TIP3   OH236475   1.337   1.476   1.136 -0.1478 -0.4879  0.0792
 4947TIP3    H136476   1.277   1.416   1.180  0.0266 -1.0314 -0.4206
 4947TIP3    H236477   1.396   1.419   1.087  1.3598  0.0023  1.2794
 4948TIP3   OH236478   1.357   1.781   1.527  0.3925  0.0420  0.0122
 4948TIP3    H136479   1.325   1.870   1.511 -0.3770 -0.5471 -1.8156
 4948TIP3    H236480   1.301   1.748   1.597  0.5158  0.9045  0.5234
 4949TIP3   OH236481   1.267   2.060   1.414 -0.5157 -0.2681  0.3034
 4949TIP3    H136482   1.173   2.046   1.407 -0.8766  1.7340  0.8419
 4949TIP3    H236483   1.285   2.136   1.358  0.8398 -0.8611 -0.0928
 4950TIP3   OH236484   2.432   3.310   2.111  0.1124 -0.8639  0.4460
 4950TIP3    H136485   2.501   3.342   2.169 -0.9722 -1.0783  1.8783
 4950TIP3    H236486   2.418   3.219   2.137  0.1307 -1.1893 -0.6586
 4951TIP3   OH236487   4.088   4.126   0.995 -0.2023  0.2063 -0.4454
 4951TIP3    H136488   4.175   4.103   1.026 -1.3170 -0.4713  2.3096
 4951TIP3    H236489   4.028   4.081   1.055 -2.4548  1.8100 -1.4126
 4952TIP3   OH236490   2.154   3.490   2.065 -0.1352 -0.1557 -1.5284
 4952TIP3    H136491   2.163   3.531   1.979  1.3656  1.3113 -0.6882
 4952TIP3    H236492   2.242   3.461   2.087 -0.3204  0.3880 -0.0410
 4953TIP3   OH236493   7.241   4.403   1.059  0.6943  0.2232 -0.0622
 4953TIP3    H136494   7.255   4.343   0.985 -0.4228  0.5675 -0.5637
 4953TIP3    H236495   7.197   4.479   1.021 -1.0333 -0.1319  1.1527
 4954TIP3   OH236496   2.223   3.564   1.753 -0.7586 -0.1566  0.4307
 4954TIP3    H136497   2.311   3.557   1.716  0.1800  1.1050  2.3203
 4954TIP3    H236498   2.207   3.658   1.757 -1.8068 -0.3570  0.9669
 4955TIP3   OH236499   3.617   3.477   0.689 -0.0656  0.1212  0.5310
 4955TIP3    H136500   3.565   3.495   0.610  1.3177  0.1338 -0.3840
 4955TIP3    H236501   3.649   3.563   0.716  2.6877 -0.3286 -1.1566
 4956TIP3   OH236502   1.761   4.354   1.142  0.3152  0.6414 -0.3445
 4956TIP3    H136503   1.817   4.278   1.155  0.8150  0.6975 -2.0170
 4956TIP3    H236504   1.710   4.362   1.223  1.6849 -0.2737  0.6135
 4957TIP3   OH236505   4.225   3.978   2.236  0.1922 -0.0894  0.2370
 4957TIP3    H136506   4.315   3.956   2.215  0.3991  1.2887 -0.3289
 4957TIP3    H236507   4.179   3.973   2.153 -0.0132  0.4220  0.3217
 4958TIP3   OH236508   1.875   1.765   2.040 -0.0768  0.3690 -0.1197
 4958TIP3    H136509   1.963   1.801   2.049  0.0877  0.0820 -0.5420
 4958TIP3    H236510   1.819   1.841   2.026  0.1878  0.5117 -0.4170
 4959TIP3   OH236511   3.864   4.266   0.795 -0.0733 -0.4985 -0.4739
 4959TIP3    H136512   3.801   4.303   0.857 -0.2283  0.2700 -1.0900
 4959TIP3    H236513   3.944   4.254   0.845 -0.5574 -1.0250  0.1913
 4960TIP3   OH236514   4.230   2.838   1.518 -0.1315  0.1419 -0.9021
 4960TIP3    H136515   4.213   2.788   1.598  1.8261 -0.0288 -0.5903
 4960TIP3    H236516   4.164   2.908   1.520  2.6013  2.7772  3.1106
 4961TIP3   OH236517   3.331   0.657   1.686 -0.3451  0.2952 -1.0123
 4961TIP3    H136518   3.403   0.600   1.712 -0.3284  0.6821 -0.1692
 4961TIP3    H236519   3.366   0.746   1.697 -0.5713  0.4699 -1.7098
 4962TIP3   OH236520   2.930   1.240   1.103 -0.0350  0.4151 -0.4674
 4962TIP3    H136521   2.840   1.207   1.107 -0.8493  2.2873 -2.3441
 4962TIP3    H236522   2.922   1.324   1.058  2.5159  1.1656  0.4297
 4963TIP3   OH236523   3.053   6.679   1.388  0.2015 -0.4073 -0.3364
 4963TIP3    H136524   3.103   6.627   1.450 -1.5013 -0.3025  1.1652
 4963TIP3    H236525   3.035   6.762   1.433 -2.1856 -0.8321 -0.4063
 4964TIP3   OH236526   4.183   1.540   2.011  0.2937  0.0967 -0.1894
 4964TIP3    H136527   4.241   1.615   2.024  0.0850  0.0414  1.1096
 4964TIP3    H236528   4.234   1.465   2.042 -0.9052  0.2053  2.1787
 4965TIP3   OH236529   2.682   1.759   1.523  0.1085 -0.5987 -0.2233
 4965TIP3    H136530   2.742   1.689   1.544  0.4814 -0.2484 -0.1141
 4965TIP3    H236531   2.700   1.780   1.431  0.5906 -0.0717 -0.0129
 4966TIP3   OH236532   2.898   3.136   6.540 -0.1365  0.0559  0.2654
 4966TIP3    H136533   2.971   3.179   6.585  0.5274 -1.0639  0.2657
 4966TIP3    H236534   2.864   3.073   6.604 -1.6905  1.1931  0.5922
 4967TIP3   OH236535   2.540   1.322   2.196  0.3847 -0.3675  0.2196
 4967TIP3    H136536   2.537   1.232   2.164  1.1342 -0.5110  0.5527
 4967TIP3    H236537   2.628   1.353   2.176 -0.2605  0.7164 -1.0204
 4968TIP3   OH236538   4.706   3.334   7.618 -0.5681 -0.5590  0.0847
 4968TIP3    H136539   4.709   3.242   7.592  1.3585 -0.3220 -0.6616
 4968TIP3    H236540   4.790   3.370   7.588 -1.2908  1.4399  0.3685
 4969TIP3   OH236541   7.095   2.091   1.725  0.1249 -0.2390 -0.1050
 4969TIP3    H136542   7.142   2.049   1.797  1.7020 -1.1927 -1.6511
 4969TIP3    H236543   7.141   2.173   1.711 -0.1092 -0.1075 -0.0997
 4970TIP3   OH236544   3.065   2.616   8.139 -0.2434  0.1474 -0.0126
 4970TIP3    H136545   2.971   2.606   8.124 -0.2848 -0.4373  0.6207
 4970TIP3    H236546   3.100   2.639   8.053 -0.8336 -0.6283 -0.4681
 4971TIP3   OH236547   3.957   6.998   8.471  0.0241 -0.4768 -0.1864
 4971TIP3    H136548   3.993   7.008   8.382  1.2839  0.0834  0.3729
 4971TIP3    H236549   4.013   7.054   8.525 -1.6018  0.2879  0.7390
 4972TIP3   OH236550   3.823   5.937   1.412  1.1858 -0.4637  0.1757
 4972TIP3    H136551   3.839   5.996   1.486 -3.0930  1.0610  0.0196
 4972TIP3    H236552   3.785   5.858   1.451 -3.6042  1.3717 -0.4304
 4973TIP3   OH236553   3.866   2.774   0.566  0.4892  0.5012  0.0961
 4973TIP3    H136554   3.803   2.794   0.496  0.7132 -0.3826 -0.3589
 4973TIP3    H236555   3.817   2.791   0.647 -0.7174 -1.2646 -0.2355
 4974TIP3   OH236556   2.912   0.309   0.634 -0.9970  0.6116 -0.2939
 4974TIP3    H136557   2.969   0.253   0.582 -1.9122 -0.5751 -0.0313
 4974TIP3    H236558   2.961   0.324   0.715 -1.3181 -0.9502  0.2096
 4975TIP3   OH236559   3.314   1.212   0.852 -0.2048  0.3868 -0.2078
 4975TIP3    H136560   3.219   1.209   0.839 -0.4693  0.5010  1.6628
 4975TIP3    H236561   3.345   1.271   0.783 -1.4783  0.2685 -0.8989
 4976TIP3   OH236562   2.476   7.001   0.788 -0.5937  0.1300  0.9262
 4976TIP3    H136563   2.413   6.957   0.731 -0.9246  0.9339  0.6682
 4976TIP3    H236564   2.451   7.093   0.785  0.6955  0.4791  0.6993
 4977TIP3   OH236565   3.960   3.301   1.609  0.2264  0.7207 -0.2187
 4977TIP3    H136566   3.867   3.278   1.601  0.2948  1.3898 -3.6158
 4977TIP3    H236567   3.985   3.268   1.695 -2.6239 -1.3384 -0.0972
 4978TIP3   OH236568   3.805   3.947   0.786  0.2586 -0.2804 -1.1041
 4978TIP3    H136569   3.773   3.867   0.826  1.3821 -0.0640  0.3156
 4978TIP3    H236570   3.827   4.003   0.861 -2.9882  2.3991 -2.0508
 4979TIP3   OH236571   3.772   2.688   0.867  0.0604 -0.9333  0.1055
 4979TIP3    H136572   3.683   2.704   0.833  0.5585  0.9450 -0.3749
 4979TIP3    H236573   3.760   2.672   0.960 -0.6161  1.3289  0.4375
 4980TIP3   OH236574   3.593   5.513   1.800  0.5070  0.1751  0.6671
 4980TIP3    H136575   3.554   5.579   1.742  0.1063 -0.9260 -0.3499
 4980TIP3    H236576   3.571   5.429   1.759  1.2079 -0.5872  1.8110
 4981TIP3   OH236577   3.212   3.084   0.437 -0.6756  0.1760  0.4617
 4981TIP3    H136578   3.234   3.016   0.373 -2.6170 -1.3509  1.3546
 4981TIP3    H236579   3.296   3.109   0.476  0.2064 -0.8052 -0.7816
 4982TIP3   OH236580   3.541   1.965   1.047 -0.1201 -0.8166 -0.1736
 4982TIP3    H136581   3.476   1.906   1.087 -0.3150 -0.8897 -0.5959
 4982TIP3    H236582   3.552   2.035   1.111 -0.0397 -1.2044  0.2435
 4983TIP3   OH236583   4.303   3.445   1.699 -0.6566  0.0677 -0.1663
 4983TIP3    H136584   4.304   3.350   1.689 -2.4892 -0.0432  0.5205
 4983TIP3    H236585   4.361   3.463   1.772 -0.4886 -0.5388 -0.1497
 4984TIP3   OH236586   4.521   1.925   7.937 -0.3728 -0.2805 -0.1435
 4984TIP3    H136587   4.575   1.847   7.943  0.9312  0.4982 -1.3236
 4984TIP3    H236588   4.580   1.996   7.964 -1.7718  0.2037  1.6821
 4985TIP3   OH236589   4.130   3.032   7.963  0.0840  0.9526 -0.2348
 4985TIP3    H136590   4.116   2.941   7.989  1.2147  0.4649 -1.2964
 4985TIP3    H236591   4.087   3.084   8.032  1.9969 -0.3149  1.9519
 4986TIP3   OH236592   3.751   3.231   8.204 -0.0409  0.3885 -0.3476
 4986TIP3    H136593   3.698   3.192   8.273 -0.1151  0.7592 -0.1961
 4986TIP3    H236594   3.688   3.272   8.145  0.1877  2.7975  1.0385
 4987TIP3   OH236595   4.440   4.197   2.068 -0.0736  0.2915  0.7279
 4987TIP3    H136596   4.440   4.279   2.119  1.5493  1.8173 -1.6160
 4987TIP3    H236597   4.527   4.160   2.082 -0.2276 -0.1806  0.4419
 4988TIP3   OH236598   5.073   2.480   1.893 -0.3604  0.1053 -0.3413
 4988TIP3    H136599   5.065   2.404   1.950 -0.9803  0.5333  0.1476
 4988TIP3    H236600   4.987   2.522   1.897  0.3262  1.4719  0.3045
 4989TIP3   OH236601   4.467   3.194   1.598  0.4618 -0.3103 -0.5850
 4989TIP3    H136602   4.535   3.224   1.660  1.9630 -2.1499 -1.2918
 4989TIP3    H236603   4.394   3.167   1.654  1.0315 -0.0629  0.2918
 4990TIP3   OH236604   4.221   1.812   1.303  0.0251 -0.1510  0.1028
 4990TIP3    H136605   4.290   1.754   1.335 -0.1636 -0.4765 -0.0799
 4990TIP3    H236606   4.153   1.809   1.370  0.2265  0.2350  0.3224
 4991TIP3   OH236607   6.032   3.179   0.050 -0.1907 -0.1008 -0.0555
 4991TIP3    H136608   6.036   3.158   0.143 -1.3798  0.1589  0.0637
 4991TIP3    H236609   6.001   3.098   0.008  1.9018 -0.7371 -0.4362
 4992TIP3   OH236610   2.350   4.125   1.222 -0.7107 -0.0210  0.0341
 4992TIP3    H136611   2.387   4.197   1.172 -1.4456  0.9430  0.8778
 4992TIP3    H236612   2.416   4.106   1.289 -0.1039 -0.7595 -0.7565
 4993TIP3   OH236613   4.123   1.946   0.717 -0.4296  0.0775  0.1776
 4993TIP3    H136614   4.141   1.878   0.781  0.2938  0.1539  0.0585
 4993TIP3    H236615   4.034   1.929   0.688 -0.7866  0.0808  1.2520
 4994TIP3   OH236616   5.585   2.917   0.934 -0.8063 -0.0265 -0.2246
 4994TIP3    H136617   5.628   2.972   0.867  2.9166 -0.5696  1.5639
 4994TIP3    H236618   5.558   2.839   0.886  1.0609 -0.0578 -1.3032
 4995TIP3   OH236619   4.347   3.060   1.401 -0.5329  0.2743  0.2826
 4995TIP3    H136620   4.320   2.981   1.448 -2.5788  0.6720 -0.1725
 4995TIP3    H236621   4.380   3.118   1.469  1.6616 -1.2301  0.5374
 4996TIP3   OH236622   3.337   3.569   0.748 -0.1231 -0.0770  0.2674
 4996TIP3    H136623   3.343   3.485   0.794  0.1794  0.1119  0.5728
 4996TIP3    H236624   3.306   3.546   0.661  0.6856 -0.5831  0.1149
 4997TIP3   OH236625   5.135   2.523   1.097 -0.2918 -0.3788  0.5062
 4997TIP3    H136626   5.159   2.446   1.045 -0.0220 -0.2363  0.4209
 4997TIP3    H236627   5.159   2.500   1.187  2.0931  0.5616  0.1376
 4998TIP3   OH236628   5.495   2.830   1.493  0.3037 -0.1529  0.5013
 4998TIP3    H136629   5.427   2.764   1.507 -1.2210  1.1917 -0.3842
 4998TIP3    H236630   5.476   2.898   1.558  1.5558 -0.3270  1.0662
 4999TIP3   OH236631   2.636   5.030   0.914 -0.3865 -0.2055 -0.2586
 4999TIP3    H136632   2.639   5.081   0.994  0.7425  1.7059 -1.4676
 4999TIP3    H236633   2.700   4.960   0.928 -1.3224 -0.8152  1.0794
 5000TIP3   OH236634   5.158   3.150   1.932  0.0298 -0.1467 -0.1153
 5000TIP3    H136635   5.212   3.217   1.890 -0.1778 -0.0346 -0.2009
 5000TIP3    H236636   5.109   3.197   1.999 -1.0978  0.0308 -1.0427
 5001TIP3   OH236637   4.110   2.433   1.844  0.3648 -0.3127 -0.4799
 5001TIP3    H136638   4.023   2.403   1.820 -0.4062  1.1488  0.4353
 5001TIP3    H236639   4.110   2.432   1.940  1.8541 -1.6832 -0.4656
 5002TIP3   OH236640   6.429   4.541   1.762  0.4075  0.4822 -0.3992
 5002TIP3    H136641   6.489   4.616   1.765  0.5889  0.3406 -0.5155
 5002TIP3    H236642   6.368   4.563   1.691  0.2196  0.7020 -0.1706
 5003TIP3   OH236643   5.287   1.615   7.054  0.3644  0.3261  0.1513
 5003TIP3    H136644   5.328   1.662   7.126 -0.1951 -0.2121  0.8319
 5003TIP3    H236645   5.234   1.681   7.009  1.6780  0.9414 -0.5179
 5004TIP3   OH236646   3.625   1.324   7.773 -0.6817 -0.0901  0.2851
 5004TIP3    H136647   3.605   1.245   7.823 -3.5386 -0.0959 -0.7994
 5004TIP3    H236648   3.543   1.373   7.771  0.3002  1.5624 -1.4744
 5005TIP3   OH236649   5.505   2.462   0.611 -0.0599 -0.4054  0.3652
 5005TIP3    H136650   5.565   2.426   0.676  0.4988  1.3144  0.7981
 5005TIP3    H236651   5.421   2.465   0.656  0.0571 -0.4074  0.5848
 5006TIP3   OH236652   5.288   2.054   0.808 -0.1764 -0.1031 -0.6094
 5006TIP3    H136653   5.369   2.007   0.823 -0.3524 -0.3646 -0.4803
 5006TIP3    H236654   5.292   2.081   0.716  0.3488  0.4476 -0.4277
 5007TIP3   OH236655   5.059   4.882   0.655  0.3632 -0.9547 -0.4400
 5007TIP3    H136656   5.094   4.934   0.583 -0.7563  0.4942  0.0419
 5007TIP3    H236657   5.133   4.828   0.683  1.5698  0.4049 -0.9325
 5008TIP3   OH236658   5.397   3.908   8.091 -0.1396  0.0652  0.1963
 5008TIP3    H136659   5.416   3.990   8.045  0.3812 -0.8894 -1.3152
 5008TIP3    H236660   5.483   3.875   8.117 -0.4755  0.9391  2.4793
 5009TIP3   OH236661   1.541   2.471   1.447 -0.1450 -0.6064 -0.0275
 5009TIP3    H136662   1.622   2.486   1.398 -0.6328 -2.1920 -1.3456
 5009TIP3    H236663   1.472   2.476   1.381 -0.9788 -0.9839  0.8067
 5010TIP3   OH236664   3.619   3.092   7.686 -0.2304  0.6127  0.3229
 5010TIP3    H136665   3.678   3.159   7.720  2.0418 -1.1616 -0.0431
 5010TIP3    H236666   3.589   3.045   7.763  2.5695 -1.4807  0.2094
 5011TIP3   OH236667   3.725   2.999   1.244 -0.3518 -0.3376 -0.3579
 5011TIP3    H136668   3.728   2.924   1.304 -1.2337  0.3627  0.5915
 5011TIP3    H236669   3.689   2.963   1.163 -0.7785 -0.9436  0.0888
 5012TIP3   OH236670   5.483   2.757   0.701 -0.3323 -0.4057 -0.1513
 5012TIP3    H136671   5.511   2.819   0.634 -1.1385 -0.5141 -0.5869
 5012TIP3    H236672   5.504   2.671   0.663  0.1386 -0.4291  0.1591
 5013TIP3   OH236673   2.487   2.586   2.002 -0.4568  0.0193  0.2201
 5013TIP3    H136674   2.429   2.562   2.075  0.1951 -0.0768  0.7055
 5013TIP3    H236675   2.445   2.663   1.963  0.0758  1.0824  1.7334
 5014TIP3   OH236676   5.445   3.849   1.498  0.0660  0.3821  0.3068
 5014TIP3    H136677   5.444   3.786   1.570  0.2739  0.3815  0.3092
 5014TIP3    H236678   5.381   3.915   1.523 -1.0057 -0.4435 -0.2454
 5015TIP3   OH236679   2.260   2.922   7.780 -0.5361  0.1159 -0.4767
 5015TIP3    H136680   2.242   2.995   7.840 -0.9694 -0.7232  0.4331
 5015TIP3    H236681   2.235   2.955   7.694  0.0364  1.3209 -0.1843
 5016TIP3   OH236682   2.221   1.509   1.013 -0.7340 -0.1398  0.6039
 5016TIP3    H136683   2.146   1.512   1.073 -1.1436  1.3954  0.0479
 5016TIP3    H236684   2.208   1.430   0.961 -1.4086 -0.4396  1.2249
 5017TIP3   OH236685   3.489   4.910   1.196  0.3364  0.4958 -0.5797
 5017TIP3    H136686   3.515   4.990   1.240 -1.1762  1.7324 -1.8749
 5017TIP3    H236687   3.571   4.870   1.168  1.1002  1.5927  0.0672
 5018TIP3   OH236688   6.003   0.511   7.036 -0.4657  0.7445 -0.2694
 5018TIP3    H136689   5.966   0.581   6.983 -0.5399  1.9396  1.3406
 5018TIP3    H236690   5.946   0.435   7.018 -2.0048  1.8028  0.0162
 5019TIP3   OH236691   4.438   4.396   7.997 -0.3554 -0.2284 -0.5745
 5019TIP3    H136692   4.362   4.415   8.052 -0.5535  3.6491 -2.0555
 5019TIP3    H236693   4.506   4.366   8.058 -1.7368  0.3121  1.2609
 5020TIP3   OH236694   3.736   1.400   1.366  0.5967 -0.3512  0.0593
 5020TIP3    H136695   3.816   1.348   1.376  0.9934  0.3767  0.8172
 5020TIP3    H236696   3.666   1.336   1.358  1.3790 -1.0149 -1.7901
 5021TIP3   OH236697   3.807   3.373   2.274  0.0640 -0.1317  0.1966
 5021TIP3    H136698   3.734   3.339   2.326 -1.2875  1.9311 -0.2801
 5021TIP3    H236699   3.836   3.450   2.323  2.1699 -1.1216  0.5574
 5022TIP3   OH236700   5.065   1.978   2.058 -0.1857  0.3407  0.0273
 5022TIP3    H136701   4.984   1.972   2.109 -1.2577 -0.5685 -1.7070
 5022TIP3    H236702   5.112   1.897   2.078 -0.5420  0.0470 -0.3060
 5023TIP3   OH236703   2.504   3.882   2.333  0.4654 -0.2068 -0.1161
 5023TIP3    H136704   2.528   3.792   2.354  1.0738  0.0985  0.5344
 5023TIP3    H236705   2.561   3.906   2.260  0.7743 -0.1314  0.1478
 5024TIP3   OH236706   5.548   4.986   1.678 -0.1496 -0.5135 -0.0290
 5024TIP3    H136707   5.461   5.020   1.658  0.3739  1.3699  0.7854
 5024TIP3    H236708   5.581   5.044   1.747  1.3036 -1.8950  0.4555
 5025TIP3   OH236709   2.759   3.325   1.024 -0.1223 -0.5055 -0.1482
 5025TIP3    H136710   2.716   3.391   0.970  1.5252  0.3722 -0.4249
 5025TIP3    H236711   2.852   3.334   1.003  0.3808 -1.1822  1.6978
 5026TIP3   OH236712   3.154   6.521   0.925 -0.2952 -1.0283 -0.7712
 5026TIP3    H136713   3.142   6.616   0.916  1.9490 -0.7667 -1.3929
 5026TIP3    H236714   3.103   6.498   1.002 -1.6800  0.5232 -1.1982
 5027TIP3   OH236715   4.206   3.882   0.369 -0.0879  0.3246  0.0365
 5027TIP3    H136716   4.270   3.943   0.333 -0.2756  1.0240  0.8453
 5027TIP3    H236717   4.154   3.936   0.429 -0.6050 -0.5176  0.3516
 5028TIP3   OH236718   4.409   3.248   2.188 -0.4939 -0.0220 -0.2667
 5028TIP3    H136719   4.380   3.215   2.103  0.9862  0.6316 -1.0536
 5028TIP3    H236720   4.460   3.326   2.166 -0.4958  0.4229  1.2678
 5029TIP3   OH236721   4.683   5.851   0.627  0.0801  0.6197  0.2006
 5029TIP3    H136722   4.768   5.812   0.650  0.1816  0.7609  0.0713
 5029TIP3    H236723   4.706   5.932   0.582 -0.1276  0.7223  0.2820
 5030TIP3   OH236724   2.957   2.171   0.502 -0.5797 -0.3181  0.0914
 5030TIP3    H136725   2.919   2.157   0.589  0.5720 -0.6129  0.5655
 5030TIP3    H236726   2.992   2.085   0.477  0.1308  0.0376 -0.1484
 5031TIP3   OH236727   5.310   3.037   8.392 -0.1617  0.0690 -0.0896
 5031TIP3    H136728   5.347   3.119   8.425 -0.8955  0.7476 -0.9237
 5031TIP3    H236729   5.338   2.971   8.455  2.0878  0.6298 -0.4285
 5032TIP3   OH236730   3.346   2.619   7.712  0.0963 -0.6178  0.0862
 5032TIP3    H136731   3.260   2.630   7.752  0.4119  0.6502  0.4250
 5032TIP3    H236732   3.348   2.682   7.640  0.1735 -1.7052 -0.8774
 5033TIP3   OH236733   3.896   2.113   2.277  0.6179 -0.4007 -0.0099
 5033TIP3    H136734   3.947   2.037   2.248  1.0285  0.2654 -1.1088
 5033TIP3    H236735   3.950   2.154   2.345  0.5609 -0.9007  0.3323
 5034TIP3   OH236736   2.706   4.079   0.435  0.0634  0.3224  0.4036
 5034TIP3    H136737   2.739   4.101   0.348 -0.3084 -1.0382 -0.0932
 5034TIP3    H236738   2.638   4.014   0.419 -1.8522  2.0092  1.5278
 5035TIP3   OH236739   3.029   0.744   0.735 -0.1672 -0.5727  0.6940
 5035TIP3    H136740   3.031   0.835   0.765  0.9795  0.1643 -1.4519
 5035TIP3    H236741   2.986   0.696   0.805  0.6964  1.3522  2.6116
 5036TIP3   OH236742   4.825   0.911   0.991 -0.5844  0.7111  0.4296
 5036TIP3    H136743   4.745   0.956   0.963 -0.8591  0.5755  0.9888
 5036TIP3    H236744   4.843   0.849   0.921 -0.4012  1.4505 -0.1843
 5037TIP3   OH236745   3.501   3.804   0.811 -0.9105  0.2867 -0.2565
 5037TIP3    H136746   3.532   3.833   0.725 -2.3945 -0.7759 -1.1723
 5037TIP3    H236747   3.458   3.720   0.794  0.1890 -0.7208  1.7933
 5038TIP3   OH236748   3.682   4.194   1.250 -0.6336  0.0858  0.5531
 5038TIP3    H136749   3.677   4.232   1.162 -1.8887 -1.5641 -0.1106
 5038TIP3    H236750   3.776   4.191   1.270 -0.3786  0.9968 -0.4835
 5039TIP3   OH236751   1.766   3.209   1.704  0.5367 -0.6119 -0.0675
 5039TIP3    H136752   1.754   3.116   1.687 -0.1882 -0.7354  1.0479
 5039TIP3    H236753   1.738   3.220   1.795 -1.8661  1.1662 -0.9832
 5040TIP3   OH236754   3.755   1.474   0.205 -0.1067 -0.3944 -0.3280
 5040TIP3    H136755   3.794   1.399   0.250  1.4988  0.7614  0.2804
 5040TIP3    H236756   3.810   1.487   0.128  0.2215  0.7390  0.0838
 5041TIP3   OH236757   3.811   1.239   8.022 -0.4873  0.0740 -0.0901
 5041TIP3    H136758   3.751   1.262   7.951 -0.8149 -1.2615 -0.2616
 5041TIP3    H236759   3.885   1.196   7.977 -0.7596 -0.8980  0.3814
 5042TIP3   OH236760   4.093   3.278   0.626  0.4561 -0.5199 -0.0779
 5042TIP3    H136761   4.177   3.323   0.633  0.5418 -0.7218  0.1846
 5042TIP3    H236762   4.073   3.280   0.532 -0.1074  1.1037  0.0581
 5043TIP3   OH236763   5.111   1.848   1.295 -0.0450  0.1315  0.2478
 5043TIP3    H136764   5.028   1.881   1.261  0.7459  1.3111 -0.5579
 5043TIP3    H236765   5.106   1.753   1.281 -2.5792 -0.2710  3.1563
 5044TIP3   OH236766   4.225   4.365   1.589 -0.1582 -0.0823 -0.7730
 5044TIP3    H136767   4.220   4.423   1.513 -0.4945  1.3217  0.3004
 5044TIP3    H236768   4.178   4.286   1.562 -0.6879  0.5891 -1.8517
 5045TIP3   OH236769   4.398   4.218   0.333  0.6084 -0.7440 -0.0840
 5045TIP3    H136770   4.476   4.162   0.322 -1.4390 -3.6852 -0.1531
 5045TIP3    H236771   4.328   4.170   0.289 -1.5628  1.2166  1.1426
 5046TIP3   OH236772   2.894   0.971   1.918 -0.1433  0.3844  0.9273
 5046TIP3    H136773   2.975   0.951   1.964 -0.9471 -0.9780  1.7786
 5046TIP3    H236774   2.826   0.923   1.966 -1.5397  1.9754  0.5838
 5047TIP3   OH236775   3.382   2.145   0.890 -0.4868 -0.1840  0.3879
 5047TIP3    H136776   3.330   2.196   0.952  0.3485  1.4167 -0.1889
 5047TIP3    H236777   3.421   2.075   0.943 -0.0680  0.9492  1.6053
 5048TIP3   OH236778   4.340   3.797   0.742  0.4861 -0.3840  0.4237
 5048TIP3    H136779   4.246   3.814   0.747  0.7614  0.7120  2.2093
 5048TIP3    H236780   4.380   3.884   0.745  1.6056 -0.9125  0.8592
 5049TIP3   OH236781   1.687   1.508   1.217  0.0566 -0.2744 -0.4764
 5049TIP3    H136782   1.626   1.436   1.233  0.1439 -0.1727  0.3291
 5049TIP3    H236783   1.644   1.585   1.255  0.8509 -0.2765  0.4534
 5050TIP3   OH236784   4.624   1.726   0.995  0.0960 -0.5041 -0.1474
 5050TIP3    H136785   4.714   1.756   1.002  0.0709 -0.2459 -0.9071
 5050TIP3    H236786   4.582   1.790   0.937 -0.1451 -1.5830 -1.1719
 5051TIP3   OH236787   2.606   0.622   0.280 -0.3628 -0.4142 -0.1941
 5051TIP3    H136788   2.686   0.632   0.229  0.1828 -0.3412  0.6693
 5051TIP3    H236789   2.590   0.709   0.318 -1.9125  0.0704 -1.9076
 5052TIP3   OH236790   3.407   1.684   8.385  0.2906  0.1175 -0.7996
 5052TIP3    H136791   3.398   1.600   8.430 -1.0556 -0.1641 -1.5893
 5052TIP3    H236792   3.487   1.722   8.422 -0.5461 -0.2932  1.5396
 5053TIP3   OH236793   4.223   2.683   1.799 -0.2823 -0.1893 -0.2391
 5053TIP3    H136794   4.191   2.594   1.809 -0.7883  0.0544  0.4240
 5053TIP3    H236795   4.233   2.715   1.889  0.4965  0.2105 -0.4607
 5054TIP3   OH236796   4.082   2.313   0.836  0.3191  0.0837 -0.0051
 5054TIP3    H136797   4.159   2.272   0.797 -0.2868 -0.4663 -0.6096
 5054TIP3    H236798   4.012   2.250   0.825 -0.3372  0.7820  0.1215
 5055TIP3   OH236799   4.493   4.410   2.217 -0.1431 -1.0434 -0.3805
 5055TIP3    H136800   4.550   4.374   2.285  0.7605  2.3334  0.7294
 5055TIP3    H236801   4.424   4.457   2.265  1.0062  2.1496 -1.7007
 5056TIP3   OH236802   4.253   2.695   1.297  0.2020  0.6995 -0.1958
 5056TIP3    H136803   4.249   2.756   1.371 -0.6563 -0.4744  0.7361
 5056TIP3    H236804   4.339   2.712   1.257  0.4445  1.7233  0.7228
 5057TIP3   OH236805   3.255   1.516   0.888 -0.1174  0.2735  0.4446
 5057TIP3    H136806   3.267   1.580   0.958 -1.9644 -1.7900  2.7588
 5057TIP3    H236807   3.334   1.462   0.891  1.3387  2.2300 -1.3627
 5058TIP3   OH236808   5.452   3.536   1.833  0.0846  0.3050 -0.0942
 5058TIP3    H136809   5.519   3.476   1.863 -0.8289 -0.2333  0.9073
 5058TIP3    H236810   5.490   3.623   1.846  1.2433 -0.0248 -1.1626
 5059TIP3   OH236811   2.406   2.860   7.475  0.1586  0.0789 -0.4125
 5059TIP3    H136812   2.377   2.948   7.496  0.3452 -0.1571  0.8565
 5059TIP3    H236813   2.499   2.870   7.453  0.6118 -0.0279  1.3648
 5060TIP3   OH236814   5.043   1.995   8.274 -0.1442 -0.9093 -0.2253
 5060TIP3    H136815   5.109   2.050   8.316  0.3560 -1.0491 -0.8284
 5060TIP3    H236816   5.015   1.934   8.343 -0.8945  0.2607  0.5348
 5061TIP3   OH236817   5.131   2.794   1.383 -0.0933  0.1676 -0.0547
 5061TIP3    H136818   5.042   2.825   1.367  0.0914 -0.1786 -1.9101
 5061TIP3    H236819   5.182   2.829   1.310  1.3430  0.5483  1.1090
 5062TIP3   OH236820   3.618   2.804   0.455 -0.1973  0.0109  0.5739
 5062TIP3    H136821   3.582   2.826   0.541 -1.6838  0.4096 -0.1428
 5062TIP3    H236822   3.560   2.736   0.421  1.7099 -1.7843  0.8278
 5063TIP3   OH236823   4.571   3.416   6.775 -0.0039  0.5312 -0.2544
 5063TIP3    H136824   4.664   3.406   6.756  0.4080  0.0368  1.9054
 5063TIP3    H236825   4.563   3.504   6.812 -0.1784  0.1343  0.6787
 5064TIP3   OH236826   5.632   2.335   7.257  0.2743 -0.4939  0.4332
 5064TIP3    H136827   5.689   2.400   7.297  1.3433 -0.8500 -0.4769
 5064TIP3    H236828   5.618   2.270   7.326  3.3860 -1.9198 -0.1956
 5065TIP3   OH236829   5.695   2.391   1.858  0.0139 -0.1253 -0.0926
 5065TIP3    H136830   5.656   2.304   1.848  1.9177 -0.9477 -0.7612
 5065TIP3    H236831   5.626   2.445   1.897 -0.7153 -2.3046  1.7203
 5066TIP3   OH236832   5.387   1.927   0.557 -0.4488  0.5605 -0.1638
 5066TIP3    H136833   5.423   1.969   0.479 -0.7480  0.2960 -0.4475
 5066TIP3    H236834   5.417   1.836   0.551 -0.4009  0.5606  0.0726
 5067TIP3   OH236835   1.812   4.972   1.583  0.4898  0.6181 -0.0172
 5067TIP3    H136836   1.794   4.950   1.675  1.6869 -0.7255 -0.0836
 5067TIP3    H236837   1.865   5.052   1.587  0.0039  0.9193  0.4338
 5068TIP3   OH236838   2.950   1.503   1.983  0.2239 -0.1142  0.9783
 5068TIP3    H136839   2.990   1.581   1.944  1.1754 -0.4353  1.2965
 5068TIP3    H236840   3.008   1.431   1.959 -0.8715 -0.7975  0.3464
 5069TIP3   OH236841   2.184   3.698   0.119 -0.0039  0.2627  0.2634
 5069TIP3    H136842   2.253   3.644   0.157 -1.1039 -0.8836  0.6560
 5069TIP3    H236843   2.170   3.768   0.183  0.3157  0.1201  0.4927
 5070TIP3   OH236844   6.185   4.963   1.203  0.1088  0.2326  0.2463
 5070TIP3    H136845   6.136   4.881   1.207  2.3288 -1.1592  0.1741
 5070TIP3    H236846   6.230   4.960   1.118  0.0027  1.6641  0.1260
 5071TIP3   OH236847   5.081   2.811   2.149  0.3242  0.0745  0.2302
 5071TIP3    H136848   5.043   2.877   2.207  0.0130  0.1888 -0.0989
 5071TIP3    H236849   5.162   2.784   2.193  0.0291  0.0669  0.7780
 5072TIP3   OH236850   5.423   2.416   8.065 -0.1660  1.0047 -0.2098
 5072TIP3    H136851   5.383   2.331   8.044 -1.6706  1.7461 -0.3943
 5072TIP3    H236852   5.509   2.394   8.099 -0.6242 -0.6164 -0.0694
 5073TIP3   OH236853   3.236   2.941   1.433  0.8129  0.5918 -0.3156
 5073TIP3    H136854   3.194   2.987   1.506  2.5928 -1.5200  2.0982
 5073TIP3    H236855   3.170   2.878   1.403  0.3941  0.8749  0.0009
 5074TIP3   OH236856   5.516   4.553   0.362  0.2002  0.6068  0.3327
 5074TIP3    H136857   5.525   4.632   0.308  2.1741 -1.3276 -2.2573
 5074TIP3    H236858   5.434   4.513   0.333  0.9160 -0.0709 -0.7759
 5075TIP3   OH236859   1.932   2.118   1.256 -0.5417  0.1547  0.0182
 5075TIP3    H136860   1.849   2.163   1.243 -0.9954 -0.3370  1.1369
 5075TIP3    H236861   1.925   2.038   1.204 -0.8074  0.0644  0.1942
 5076TIP3   OH236862   4.663   4.652   1.396 -0.1769  0.0547 -0.0669
 5076TIP3    H136863   4.738   4.597   1.375  0.3009  0.4468  0.5952
 5076TIP3    H236864   4.644   4.699   1.314  0.2148 -0.1401 -0.2690
 5077TIP3   OH236865   4.506   2.734   1.213  0.0800 -0.4407 -0.0207
 5077TIP3    H136866   4.529   2.756   1.303 -1.3941  0.8119  0.0614
 5077TIP3    H236867   4.589   2.705   1.174  0.4974 -2.1729  2.0610
 5078TIP3   OH236868   4.302   6.507   1.385 -0.2405  0.1559 -0.5829
 5078TIP3    H136869   4.275   6.427   1.430  1.1496  0.2035  0.3422
 5078TIP3    H236870   4.366   6.477   1.320 -0.2571  0.4271 -0.7239
 5079TIP3   OH236871   5.283   2.098   8.312 -0.1840 -0.0533 -0.5069
 5079TIP3    H136872   5.308   2.183   8.348 -0.0256 -0.7209  0.9902
 5079TIP3    H236873   5.331   2.034   8.365  0.0283 -1.0692 -1.8914
 5080TIP3   OH236874   2.511   3.892   0.360  0.0579 -0.0425  0.8322
 5080TIP3    H136875   2.515   3.813   0.413  0.7239 -2.1046 -2.1521
 5080TIP3    H236876   2.417   3.906   0.346 -0.0205 -1.5923 -0.3845
 5081TIP3   OH236877   4.957   2.948   1.057 -0.4325  0.0594  0.1413
 5081TIP3    H136878   4.874   2.964   1.101  0.4676 -2.4108  2.8906
 5081TIP3    H236879   4.958   2.854   1.040  1.1863  0.2832 -1.2049
 5082TIP3   OH236880   4.836   4.861   1.982 -0.7583 -0.4960 -0.1289
 5082TIP3    H136881   4.865   4.932   2.040  0.4854  0.0597 -1.3909
 5082TIP3    H236882   4.798   4.796   2.041  0.9951 -0.1966  1.3837
 5083TIP3   OH236883   2.209   1.723   0.845  0.1002  0.0088 -0.0301
 5083TIP3    H136884   2.215   1.655   0.912 -0.7918  2.5215  2.7411
 5083TIP3    H236885   2.124   1.708   0.804  0.0706 -0.7936  0.3158
 5084TIP3   OH236886   4.822   2.910   2.715  0.1370  0.0283  0.2689
 5084TIP3    H136887   4.830   2.822   2.751  2.8794 -0.5757 -1.6294
 5084TIP3    H236888   4.913   2.936   2.697 -0.9563  1.0365 -4.3347
 5085TIP3   OH236889   3.871   2.628   2.500  0.3841  0.4177 -0.0651
 5085TIP3    H136890   3.956   2.636   2.456  0.2433  0.3416 -0.3456
 5085TIP3    H236891   3.860   2.713   2.544  0.3437  0.6361 -0.4920
 5086TIP3   OH236892   4.721   3.222   1.375  0.3003  0.2044  0.3888
 5086TIP3    H136893   4.714   3.199   1.283  1.9512 -2.3285  0.8628
 5086TIP3    H236894   4.696   3.142   1.422 -1.6964  1.7968  2.1812
 5087TIP3   OH236895   2.599   4.618   1.270  0.0367 -0.3905 -0.1786
 5087TIP3    H136896   2.623   4.706   1.243  0.6412  0.3692  2.6551
 5087TIP3    H236897   2.512   4.628   1.309 -1.5764 -1.7570 -3.2138
 5088TIP3   OH236898   5.293   1.406   2.330  0.4446  0.4510 -0.6196
 5088TIP3    H136899   5.269   1.478   2.271 -0.6181  0.2814 -0.3969
 5088TIP3    H236900   5.210   1.374   2.364  1.0687  1.1915  1.7340
 5089TIP3   OH236901   3.874   2.387   1.709  0.2606  0.3464 -0.0627
 5089TIP3    H136902   3.940   2.351   1.650  0.9253 -0.0918  0.9578
 5089TIP3    H236903   3.794   2.339   1.688  0.3000  0.7477 -1.1649
 5090TIP3   OH236904   5.175   5.234   1.689 -0.7515  0.4673  0.0686
 5090TIP3    H136905   5.121   5.178   1.744 -1.6307 -0.1384 -1.3656
 5090TIP3    H236906   5.216   5.174   1.627  1.5031  0.9356  1.0633
 5091TIP3   OH236907   5.340   2.844   0.132 -0.1223  0.2221  0.0218
 5091TIP3    H136908   5.313   2.773   0.073  0.5075  0.9682 -1.1933
 5091TIP3    H236909   5.423   2.813   0.170  0.7601  0.7857 -1.4048
 5092TIP3   OH236910   3.886   1.080   0.713 -0.1481 -0.2864  0.1036
 5092TIP3    H136911   3.874   1.094   0.807 -2.0863  1.5915 -0.3819
 5092TIP3    H236912   3.957   1.140   0.689 -1.5752  1.3480 -0.1185
 5093TIP3   OH236913   5.841   0.810   1.685  0.6957 -0.3575 -0.0703
 5093TIP3    H136914   5.756   0.797   1.727  0.4420  0.2681 -0.3739
 5093TIP3    H236915   5.879   0.886   1.730  0.5674  0.1107 -0.7317
 5094TIP3   OH236916   5.481   2.242   7.779 -0.6812  0.2424  0.4221
 5094TIP3    H136917   5.529   2.171   7.822 -1.5969 -1.6780 -1.6168
 5094TIP3    H236918   5.399   2.248   7.827 -0.9396 -0.6322  0.0837
 5095TIP3   OH236919   4.075   2.918   1.949  0.1047 -0.1860  0.5860
 5095TIP3    H136920   4.041   2.944   2.035 -0.1329  0.2253  0.3724
 5095TIP3    H236921   4.126   2.839   1.966 -0.4382 -0.4491  1.0101
 5096TIP3   OH236922   0.654   2.855   2.122 -0.1424 -0.0962  0.1967
 5096TIP3    H136923   0.742   2.892   2.127 -0.3461  0.6696 -1.6357
 5096TIP3    H236924   0.596   2.924   2.154 -0.4274  0.8225 -2.2581
 5097TIP3   OH236925   5.073   3.265   0.444 -0.1326 -0.0184  0.3144
 5097TIP3    H136926   5.063   3.254   0.538  1.8200 -0.9500  0.4468
 5097TIP3    H236927   5.125   3.344   0.434  2.1171 -1.4620  0.1814
 5098TIP3   OH236928   4.404   2.201   1.084 -0.9593  0.2794  0.0455
 5098TIP3    H136929   4.409   2.277   1.142 -2.1223  0.3323  0.0757
 5098TIP3    H236930   4.326   2.153   1.113 -0.0289 -1.1326  0.2758
 5099TIP3   OH236931   3.943   1.931   1.027  0.4269  0.2223  0.5636
 5099TIP3    H136932   3.892   1.934   1.109  1.7049  0.5620  1.3558
 5099TIP3    H236933   3.956   1.838   1.010  1.3104  0.1781  1.4717
 5100TIP3   OH236934   4.918   4.904   0.256 -0.1681 -0.3146 -0.1538
 5100TIP3    H136935   4.931   4.874   0.346  1.5889  1.9972  0.3879
 5100TIP3    H236936   4.995   4.871   0.209  1.1531  2.1612  0.1822
 5101TIP3   OH236937   5.480   2.452   8.390  0.2795 -0.4454  0.4019
 5101TIP3    H136938   5.396   2.440   8.347  0.2353 -0.2944  0.4476
 5101TIP3    H236939   5.519   2.527   8.345 -0.3711  0.6042  1.5683
 5102TIP3   OH236940   2.751   3.350   7.169  0.1718 -0.2565  0.0918
 5102TIP3    H136941   2.762   3.265   7.127 -2.5314 -0.4929 -0.2783
 5102TIP3    H236942   2.662   3.347   7.205  0.7609  1.6919  1.7598
 5103TIP3   OH236943   4.328   3.074   2.010  0.9374  0.1707  0.0148
 5103TIP3    H136944   4.250   3.021   2.025  0.2607  0.7266 -1.5103
 5103TIP3    H236945   4.399   3.011   2.006  0.4067 -0.4421  0.1834
 5104TIP3   OH236946   3.176   4.827   2.237 -0.5769  0.3149  1.0353
 5104TIP3    H136947   3.206   4.895   2.176 -0.0753 -1.6943 -1.0247
 5104TIP3    H236948   3.086   4.808   2.209 -0.1377 -1.0470  0.4820
 5105TIP3   OH236949   5.205   3.126   1.480  0.3326  0.1863  0.2056
 5105TIP3    H136950   5.255   3.053   1.517 -1.9216 -1.6903 -0.3392
 5105TIP3    H236951   5.148   3.154   1.551 -0.2971  0.0317 -0.2398
 5106TIP3   OH236952   4.021   4.684   0.617 -0.0648 -0.6980 -0.4631
 5106TIP3    H136953   4.102   4.735   0.612  0.0806 -0.8710  0.0892
 5106TIP3    H236954   3.952   4.746   0.594  0.1868 -0.4451 -0.5393
 5107TIP3   OH236955   4.271   4.754   0.509 -0.5711  0.2597 -0.2378
 5107TIP3    H136956   4.247   4.674   0.463 -0.7792  0.9474 -1.3492
 5107TIP3    H236957   4.308   4.811   0.441  0.6211  0.6832  0.7416
 5108TIP3   OH236958   4.531   4.142   1.437  0.1740 -0.4514 -0.1379
 5108TIP3    H136959   4.585   4.170   1.363 -0.4238  0.2032 -0.3308
 5108TIP3    H236960   4.584   4.075   1.481 -0.2117 -2.1526 -2.1841
 5109TIP3   OH236961   4.211   1.612   0.819 -0.4699 -0.7553  0.5105
 5109TIP3    H136962   4.279   1.594   0.754 -0.2089 -1.5458  1.0073
 5109TIP3    H236963   4.257   1.656   0.890 -0.2560 -2.3544  1.3737
 5110TIP3   OH236964   3.535   4.260   1.697  0.0021  0.7788 -0.0051
 5110TIP3    H136965   3.474   4.188   1.679 -0.5111  1.0156  0.7901
 5110TIP3    H236966   3.542   4.306   1.613 -0.7891  0.6524 -0.1461
 5111TIP3   OH236967   5.932   4.797   7.236  0.6406 -0.0235 -0.1830
 5111TIP3    H136968   5.952   4.860   7.167  1.6500 -0.7296 -0.5441
 5111TIP3    H236969   6.004   4.734   7.233 -0.5670 -1.4292 -0.1045
 5112TIP3   OH236970   3.067   1.928   0.416 -0.2036 -0.4973 -0.1612
 5112TIP3    H136971   3.027   1.906   0.333 -1.3921 -2.2268  0.8561
 5112TIP3    H236972   3.117   1.851   0.441 -0.6509 -0.3736  1.1994
 5113TIP3   OH236973   2.782   5.263   0.355  0.2374  0.6610  0.0574
 5113TIP3    H136974   2.723   5.308   0.415 -1.2630  0.4676 -1.2484
 5113TIP3    H236975   2.808   5.330   0.292 -0.5046  0.1592 -0.7826
 5114TIP3   OH236976   4.576   4.648   8.184  0.4326  0.5147  0.1533
 5114TIP3    H136977   4.486   4.671   8.208 -0.5405 -2.6733 -0.3004
 5114TIP3    H236978   4.577   4.654   8.088  0.6563  0.4158  0.1506
 5115TIP3   OH236979   4.090   2.771   8.481  0.3132 -0.5386 -0.1279
 5115TIP3    H136980   4.109   2.705   8.548  0.2287 -0.9690 -0.5249
 5115TIP3    H236981   4.173   2.781   8.434  1.3227  2.1812  2.1331
 5116TIP3   OH236982   3.701   3.361   1.423  0.1260  0.6685 -0.0354
 5116TIP3    H136983   3.736   3.447   1.445  0.7142  0.7103 -1.0967
 5116TIP3    H236984   3.759   3.328   1.354 -1.7387  0.6083 -1.6122
 5117TIP3   OH236985   5.106   4.069   0.119 -0.4491 -0.8081  0.2950
 5117TIP3    H136986   5.185   4.096   0.166 -1.5621  0.3838  1.5269
 5117TIP3    H236987   5.056   4.150   0.109 -0.7998 -1.2546 -1.8976
 5118TIP3   OH236988   4.226   2.042   1.596 -0.5867  0.1213 -0.2912
 5118TIP3    H136989   4.313   2.074   1.570 -0.5518 -0.7365 -1.2373
 5118TIP3    H236990   4.179   2.030   1.514 -0.9195 -1.3438  0.1072
 5119TIP3   OH236991   2.664   1.814   1.243  0.5013  0.5390 -0.3448
 5119TIP3    H136992   2.730   1.831   1.176 -0.0738  2.2364 -0.5277
 5119TIP3    H236993   2.600   1.757   1.200 -0.6997  2.8967 -1.8511
 5120TIP3   OH236994   3.087   3.093   8.212 -0.6147 -0.0034 -0.5424
 5120TIP3    H136995   3.179   3.117   8.197 -0.2201 -1.6399 -0.8843
 5120TIP3    H236996   3.044   3.175   8.233  1.1314  0.6473  0.5941
 5121TIP3   OH236997   3.955   3.529   0.649  0.0694 -0.3230  0.4603
 5121TIP3    H136998   3.981   3.567   0.565 -2.1861 -0.1660 -0.2127
 5121TIP3    H236999   4.017   3.457   0.663  2.2610  1.4547  0.1001
 5122TIP3   OH237000   6.340   0.235   2.037 -0.7474  0.2440 -0.1046
 5122TIP3    H137001   6.429   0.200   2.031 -1.2329 -0.7681 -1.9650
 5122TIP3    H237002   6.341   0.313   1.982 -0.6812  0.9457  0.8914
 5123TIP3   OH237003   2.637   2.087   1.839 -0.3567  0.0686  0.2589
 5123TIP3    H137004   2.581   2.096   1.762  0.2662 -1.2758 -0.3546
 5123TIP3    H237005   2.608   2.158   1.897 -2.4685 -0.3844 -0.1869
 5124TIP3   OH237006   3.988   1.887   2.145 -0.4842  0.0234  0.6612
 5124TIP3    H137007   3.972   1.902   2.052 -1.1904 -0.0222  0.7735
 5124TIP3    H237008   4.066   1.831   2.147 -1.4448 -1.3657  0.0357
 5125TIP3   OH237009   4.019   1.831   1.476 -0.1442 -0.8424  0.2955
 5125TIP3    H137010   4.016   1.839   1.571  0.2052 -1.5949  0.3759
 5125TIP3    H237011   3.957   1.761   1.456  0.7243 -1.5715  0.0927
 5126TIP3   OH237012   4.888   1.914   2.265  0.0765 -0.0663  0.5429
 5126TIP3    H137013   4.840   1.833   2.244 -0.1817  0.0821  0.5596
 5126TIP3    H237014   4.822   1.983   2.260  0.4228  0.2307 -0.0864
 5127TIP3   OH237015   5.914   1.695   1.892 -0.2329 -0.2980 -0.4449
 5127TIP3    H137016   5.948   1.621   1.943  1.1638  1.2161  0.8557
 5127TIP3    H237017   5.820   1.696   1.912  0.1940 -0.1051  1.6528
 5128TIP3   OH237018   4.485   1.360   0.935 -0.5679  0.6666  0.0745
 5128TIP3    H137019   4.407   1.405   0.968  0.2594  1.2803  1.2432
 5128TIP3    H237020   4.500   1.289   0.997 -1.8127 -1.2098 -1.7120
 5129TIP3   OH237021   3.578   4.078   7.983  0.5532  0.2972 -0.4195
 5129TIP3    H137022   3.574   3.982   7.977  0.3368  0.3705 -1.6846
 5129TIP3    H237023   3.490   4.107   7.959  0.8938  0.8422 -1.0541
 5130TIP3   OH237024   3.515   2.640   6.580 -0.3836  0.3777 -0.7906
 5130TIP3    H137025   3.558   2.571   6.630 -1.1060  0.0878 -0.5622
 5130TIP3    H237026   3.504   2.604   6.493 -0.7232  0.2164 -0.6820
 5131TIP3   OH237027   2.243   5.989   0.141 -0.3840 -0.1668  0.3950
 5131TIP3    H137028   2.181   5.940   0.195 -0.5865  1.4823  1.6974
 5131TIP3    H237029   2.320   6.001   0.197  0.5695 -0.9391 -0.7056
 5132TIP3   OH237030   3.214   5.559   0.939 -0.0197 -0.3761 -0.4917
 5132TIP3    H137031   3.180   5.472   0.916 -0.5596 -0.5776  0.9976
 5132TIP3    H237032   3.136   5.616   0.937 -0.1070 -0.4191  0.8660
 5133TIP3   OH237033   3.537   4.296   7.592  0.4928 -0.2249 -0.5674
 5133TIP3    H137034   3.500   4.272   7.507  2.2663 -0.4683 -1.3037
 5133TIP3    H237035   3.609   4.356   7.570  0.2782  0.5649  0.8339
 5134TIP3   OH237036   6.242   4.006   0.724  0.2334  0.4747  1.0373
 5134TIP3    H137037   6.306   4.076   0.708 -0.6434  0.7854 -1.2882
 5134TIP3    H237038   6.159   4.042   0.696 -0.1799 -1.6316 -0.5862
 5135TIP3   OH237039   5.303   2.027   7.365  0.0686  0.0982 -0.5067
 5135TIP3    H137040   5.265   2.021   7.453 -1.7948  0.4935 -1.2526
 5135TIP3    H237041   5.344   2.114   7.362 -2.1981  1.1924 -0.8898
 5136TIP3   OH237042   6.286   4.156   7.663  0.2338 -0.1836  0.0923
 5136TIP3    H137043   6.217   4.163   7.596 -1.5213  0.5887  1.9237
 5136TIP3    H237044   6.266   4.073   7.708 -0.5580  0.8794  1.7430
 5137TIP3   OH237045   4.887   3.506   7.941 -1.2311 -0.1425  0.2681
 5137TIP3    H137046   4.898   3.599   7.958  1.8423 -0.8662  2.7217
 5137TIP3    H237047   4.974   3.477   7.912 -2.3031 -2.1329 -1.0769
 5138TIP3   OH237048   5.284   3.785   2.389 -0.6386  0.5345  0.2537
 5138TIP3    H137049   5.336   3.854   2.348 -1.6026  0.2245 -1.5148
 5138TIP3    H237050   5.345   3.714   2.404 -0.3459  0.5402 -0.9165
 5139TIP3   OH237051   4.475   3.807   0.473 -0.1564 -0.2397 -0.3664
 5139TIP3    H137052   4.502   3.718   0.453  0.4380 -0.4201  1.2212
 5139TIP3    H237053   4.401   3.797   0.533  0.5049  0.3366  0.5567
 5140TIP3   OH237054   5.553   2.202   7.475 -0.1281  0.1241  0.3716
 5140TIP3    H137055   5.492   2.190   7.548  0.8018 -1.7137  0.8699
 5140TIP3    H237056   5.613   2.128   7.482  1.3301  1.1616 -0.9313
 5141TIP3   OH237057   3.356   1.681   8.087  0.2928  0.2872 -0.0687
 5141TIP3    H137058   3.438   1.724   8.064 -0.0724  1.2109  0.3500
 5141TIP3    H237059   3.367   1.656   8.179  0.2777 -0.0026 -0.1448
 5142TIP3   OH237060   3.278   2.097   0.525  0.3718  0.1937  0.3447
 5142TIP3    H137061   3.331   2.119   0.448 -0.1288 -0.1905 -0.1175
 5142TIP3    H237062   3.196   2.064   0.488  0.0268  0.2600  1.0501
 5143TIP3   OH237063   5.405   1.771   0.338 -0.5094  0.4319  0.5438
 5143TIP3    H137064   5.481   1.810   0.381 -1.6235  2.4523  0.7580
 5143TIP3    H237065   5.417   1.677   0.349  3.2602  0.5532 -1.6561
 5144TIP3   OH237066   4.298   1.279   1.768  0.3929 -0.2038  0.2132
 5144TIP3    H137067   4.353   1.332   1.825  2.4314 -0.5503 -1.3759
 5144TIP3    H237068   4.331   1.190   1.780  1.8384 -0.0909 -2.5722
 5145TIP3   OH237069   5.026   4.089   7.343  0.6057 -0.7896 -0.4047
 5145TIP3    H137070   5.052   4.083   7.251  0.5407  1.5604 -0.6182
 5145TIP3    H237071   5.107   4.115   7.388  0.0257  0.6723 -0.1961
 5146TIP3   OH237072   3.514   1.437   6.932  0.5564 -0.4863  0.0257
 5146TIP3    H137073   3.442   1.377   6.918 -0.4306  0.4036  1.1628
 5146TIP3    H237074   3.592   1.382   6.932 -0.0873 -1.4176 -1.4911
 5147TIP3   OH237075   6.146   2.510   2.488  0.4929 -0.1566  0.2072
 5147TIP3    H137076   6.236   2.493   2.515  0.9868  0.1988 -1.1462
 5147TIP3    H237077   6.144   2.605   2.473 -0.1103 -0.1594  0.2879
 5148TIP3   OH237078   5.238   2.813   0.856 -1.2500 -0.2839 -0.1374
 5148TIP3    H137079   5.170   2.853   0.801 -0.1902  1.9009  0.0874
 5148TIP3    H237080   5.320   2.831   0.811 -0.5079  0.1214  1.3272
 5149TIP3   OH237081   3.967   1.684   0.884  0.1337  0.4720 -0.3519
 5149TIP3    H137082   4.060   1.662   0.881 -0.0416 -0.3431 -0.1521
 5149TIP3    H237083   3.938   1.675   0.793 -0.6084 -3.3138  0.1467
 5150TIP3   OH237084   5.970   2.261   1.065  0.2539 -0.3133 -0.5273
 5150TIP3    H137085   6.034   2.193   1.049 -0.3543 -0.8016 -0.9113
 5150TIP3    H237086   5.949   2.253   1.159 -0.4146 -1.1946 -0.7393
 5151TIP3   OH237087   3.056   3.095   6.853 -0.3388 -0.1089 -0.1041
 5151TIP3    H137088   3.104   3.164   6.807 -0.0248 -0.8243 -0.8689
 5151TIP3    H237089   3.031   3.034   6.785 -4.9116  1.6571 -0.1486
 5152TIP3   OH237090   2.847   2.774   7.748 -0.3964 -0.1870  0.4484
 5152TIP3    H137091   2.759   2.737   7.742 -0.5443  0.1359  0.5459
 5152TIP3    H237092   2.842   2.856   7.698 -0.0192 -0.4027  0.0567
 5153TIP3   OH237093   3.745   1.652   1.727  0.1939  0.9848  0.0126
 5153TIP3    H137094   3.700   1.568   1.728 -0.8010  1.5072 -0.0354
 5153TIP3    H237095   3.747   1.678   1.635  1.2709  0.6152 -0.0759
 5154TIP3   OH237096   5.873   1.906   1.166  0.0262 -0.2234 -0.2645
 5154TIP3    H137097   5.781   1.893   1.186 -0.0939  2.3273  1.0516
 5154TIP3    H237098   5.911   1.942   1.246  1.7649  0.4943 -1.3647
 5155TIP3   OH237099   2.917   2.079   8.485  0.2192 -0.1475 -0.3401
 5155TIP3    H137100   2.933   2.007   8.546 -0.0296 -0.3707 -0.5329
 5155TIP3    H237101   2.903   2.035   8.401 -2.7856 -0.0873  0.0608
 5156TIP3   OH237102   4.759   3.879   7.972 -0.7918 -0.3219 -0.0471
 5156TIP3    H137103   4.727   3.838   8.052  0.6975 -1.2631  0.0844
 5156TIP3    H237104   4.817   3.949   8.003 -0.2152 -0.6873 -0.2841
 5157TIP3   OH237105   3.463   2.169   2.295  0.3064  0.1384  0.5328
 5157TIP3    H137106   3.388   2.127   2.337  0.2410 -1.2039 -0.8581
 5157TIP3    H237107   3.534   2.161   2.359  0.0999 -1.4827  0.5928
 5158TIP3   OH237108   6.399   4.672   0.918  0.4884  0.3927 -0.1346
 5158TIP3    H137109   6.488   4.649   0.892  0.1720 -1.9780  0.6741
 5158TIP3    H237110   6.365   4.592   0.960 -1.3632  1.8611  1.2747
 5159TIP3   OH237111   3.412   5.027   2.380 -0.0537  0.2376  0.0395
 5159TIP3    H137112   3.343   5.050   2.317  2.7954  0.1784 -3.2299
 5159TIP3    H237113   3.438   5.111   2.418 -1.5843  0.3112  0.9631
 5160TIP3   OH237114   2.810   3.533   2.025 -0.5888 -0.2201  0.2084
 5160TIP3    H137115   2.817   3.628   2.018 -3.8443  0.1294  0.5842
 5160TIP3    H237116   2.767   3.518   2.109  0.5186 -2.0690  0.4747
 5161TIP3   OH237117   4.198   4.755   1.164 -0.2728  0.0622 -0.3070
 5161TIP3    H137118   4.206   4.689   1.095 -0.1143 -1.4655  1.1375
 5161TIP3    H237119   4.279   4.806   1.158  0.1359 -0.6236 -0.6967
 5162TIP3   OH237120   5.122   1.575   1.296 -0.0969  0.6753 -0.0439
 5162TIP3    H137121   5.074   1.534   1.369 -1.6165  2.3353 -0.0877
 5162TIP3    H237122   5.126   1.507   1.229  0.6476 -0.6262  1.2852
 5163TIP3   OH237123   3.377   5.201   0.085  0.3053 -0.7311 -0.2754
 5163TIP3    H137124   3.374   5.280   0.032  0.6310 -1.2710 -1.1077
 5163TIP3    H237125   3.403   5.231   0.172 -0.2378  0.1603 -0.4143
 5164TIP3   OH237126   4.426   2.801   0.605 -0.1639 -0.2210  0.0900
 5164TIP3    H137127   4.336   2.770   0.614 -0.0996 -1.0722 -1.8970
 5164TIP3    H237128   4.469   2.776   0.687 -1.5500 -0.4567  0.7475
 5165TIP3   OH237129   4.534   6.045   1.660 -0.1914  0.2148  0.1865
 5165TIP3    H137130   4.527   6.120   1.719  0.4719  0.4526 -0.0309
 5165TIP3    H237131   4.621   6.009   1.678  0.3580  0.7881 -1.2382
 5166TIP3   OH237132   2.631   5.667   2.364 -0.3476 -0.1284 -0.2753
 5166TIP3    H137133   2.644   5.575   2.387 -1.7608 -0.1010  0.6935
 5166TIP3    H237134   2.710   5.711   2.396  0.1755 -0.9459 -0.4284
 5167TIP3   OH237135   3.240   2.834   7.221 -0.1674  0.0471 -0.6050
 5167TIP3    H137136   3.203   2.809   7.305  0.4722  0.8058 -0.0948
 5167TIP3    H237137   3.306   2.900   7.242  0.0417  0.1948 -1.6906
 5168TIP3   OH237138   2.624   4.367   0.369  0.3865 -0.2858 -0.4172
 5168TIP3    H137139   2.537   4.397   0.344  1.1005  0.2945 -2.3025
 5168TIP3    H237140   2.616   4.342   0.461 -1.7862 -0.3557 -0.6156
 5169TIP3   OH237141   4.042   4.921   6.559  0.1428  0.2370  0.0294
 5169TIP3    H137142   4.132   4.931   6.528  0.2170 -0.8876 -0.1200
 5169TIP3    H237143   3.988   4.936   6.482  0.2287  0.1287 -0.0513
 5170TIP3   OH237144   4.560   1.854   0.139 -0.6330  0.0953 -0.5977
 5170TIP3    H137145   4.488   1.794   0.116 -0.2707 -0.1934 -0.9768
 5170TIP3    H237146   4.635   1.797   0.154 -0.4802  0.3984 -0.1944
 5171TIP3   OH237147   6.393   2.277   1.427  0.0042  0.7756 -0.5490
 5171TIP3    H137148   6.427   2.280   1.516  1.0894 -0.0107 -0.9239
 5171TIP3    H237149   6.469   2.293   1.371  0.1893 -2.7585 -1.4682
 5172TIP3   OH237150   4.118   6.560   0.795  0.5612 -0.6247 -0.1474
 5172TIP3    H137151   4.080   6.584   0.879 -0.4690  0.6209 -0.9508
 5172TIP3    H237152   4.063   6.488   0.763  0.9351 -1.0789  0.2080
 5173TIP3   OH237153   4.424   2.649   7.640 -0.3335  0.4866 -0.3008
 5173TIP3    H137154   4.394   2.740   7.639  0.8083  0.8919  1.3280
 5173TIP3    H237155   4.508   2.651   7.595 -0.3748  0.2022 -0.3944
 5174TIP3   OH237156   3.197   2.281   1.015 -0.0315  0.5167 -0.6411
 5174TIP3    H137157   3.203   2.326   1.100 -2.3878  1.1273 -0.7576
 5174TIP3    H237158   3.121   2.320   0.973 -1.1611 -2.4376 -1.4507
 5175TIP3   OH237159   3.749   2.432   0.405 -0.1673 -0.4221 -0.1069
 5175TIP3    H137160   3.790   2.347   0.421 -0.1474  0.0198  2.3793
 5175TIP3    H237161   3.719   2.428   0.314  0.0832 -2.9809 -0.0970
 5176TIP3   OH237162   4.345   1.074   1.381 -0.3385  0.0779 -0.3105
 5176TIP3    H137163   4.404   1.102   1.452 -1.1717 -1.1148  0.8805
 5176TIP3    H237164   4.348   0.978   1.385 -2.5585  0.0112 -0.0841
 5177TIP3   OH237165   3.178   3.152   7.631 -0.4956  0.0362 -0.5375
 5177TIP3    H137166   3.087   3.180   7.621  0.2667  2.7701 -0.2695
 5177TIP3    H237167   3.226   3.207   7.570  1.3549  0.7323  1.5047
 5178TIP3   OH237168   5.087   1.419   1.698 -0.2288  0.2316 -0.8129
 5178TIP3    H137169   5.065   1.507   1.729 -3.2988 -1.2425  1.4551
 5178TIP3    H237170   5.053   1.416   1.608 -3.7452  0.1209  0.4623
 5179TIP3   OH237171   4.551   5.623   6.776  0.2809  0.0153 -0.5467
 5179TIP3    H137172   4.479   5.660   6.827 -0.2023  0.6335 -1.6671
 5179TIP3    H237173   4.592   5.560   6.835 -1.4994 -0.7196 -0.0733
 5180TIP3   OH237174   5.609   1.537   0.166 -0.3965 -0.2520  0.2899
 5180TIP3    H137175   5.686   1.533   0.223 -0.1753  0.2413  0.0281
 5180TIP3    H237176   5.550   1.471   0.201 -0.9389  1.1437  2.0864
 5181TIP3   OH237177   3.560   1.977   1.378  0.0159 -0.0498  0.2025
 5181TIP3    H137178   3.570   1.887   1.345  1.1037 -0.0950  0.6415
 5181TIP3    H237179   3.476   1.975   1.425  0.5111 -1.1154  1.0824
 5182TIP3   OH237180   4.507   3.682   8.033  0.0250  0.4186  0.7268
 5182TIP3    H137181   4.591   3.671   8.076  0.0216  0.0464  0.6348
 5182TIP3    H237182   4.453   3.611   8.067  0.4386 -0.6974 -0.9193
 5183TIP3   OH237183   5.119   5.709   8.409 -0.0088  0.1395  0.1324
 5183TIP3    H137184   5.196   5.740   8.361 -0.2364  2.3493  1.1434
 5183TIP3    H237185   5.134   5.615   8.420  0.6674 -0.1936 -3.0694
 5184TIP3   OH237186   2.295   1.269   1.392  0.3810  0.4382  0.2545
 5184TIP3    H137187   2.295   1.250   1.486 -0.6048 -0.1371  0.1447
 5184TIP3    H237188   2.229   1.337   1.381  0.4193  0.4290 -0.0359
 5185TIP3   OH237189   2.788   2.553   1.398 -0.4060  0.0393 -0.0091
 5185TIP3    H137190   2.813   2.604   1.475 -0.1618 -0.2272  0.0864
 5185TIP3    H237191   2.771   2.465   1.431 -1.1571  0.1412 -0.1236
 5186TIP3   OH237192   5.642   4.384   7.480  0.1995 -0.0289  0.0132
 5186TIP3    H137193   5.608   4.388   7.570  0.3208  2.0615 -0.0181
 5186TIP3    H237194   5.585   4.442   7.430  1.9623  1.1563 -0.6611
 5187TIP3   OH237195   4.058   1.748   1.756 -0.0364  1.2221 -0.6215
 5187TIP3    H137196   4.147   1.738   1.722  0.3982 -0.1263  0.8687
 5187TIP3    H237197   4.055   1.839   1.785  1.0186  1.1391 -0.2194
 5188TIP3   OH237198   6.048   4.388   1.068 -0.2433  0.1277  0.3640
 5188TIP3    H137199   6.075   4.321   1.131 -1.2827 -0.3848  0.2787
 5188TIP3    H237200   5.955   4.404   1.088 -0.2656  0.8145 -0.2685
 5189TIP3   OH237201   4.733   2.141   1.364 -0.3135  0.5070  0.2069
 5189TIP3    H137202   4.701   2.056   1.392  1.2494 -0.5598 -1.1694
 5189TIP3    H237203   4.769   2.181   1.443  0.6206 -0.8883  0.4940
 5190TIP3   OH237204   6.671   2.054   2.205  0.2593  0.1754 -0.0002
 5190TIP3    H137205   6.657   2.010   2.289  0.0155  1.2292  0.5141
 5190TIP3    H237206   6.680   2.146   2.227 -0.4367  0.5403 -1.1872
 5191TIP3   OH237207   3.633   2.400   1.330 -0.1312 -0.0073 -0.2995
 5191TIP3    H137208   3.621   2.430   1.420 -1.2785 -0.0844 -0.4129
 5191TIP3    H237209   3.717   2.355   1.331 -0.5582 -0.8188  0.9559
 5192TIP3   OH237210   4.567   3.496   0.415  0.2180  0.5782 -0.1051
 5192TIP3    H137211   4.642   3.438   0.402 -1.7203 -1.7729 -1.3798
 5192TIP3    H237212   4.559   3.544   0.333 -0.9190 -0.7532 -0.8008
 5193TIP3   OH237213   6.893   2.724   1.871 -0.1168  0.2337  0.0926
 5193TIP3    H137214   6.919   2.709   1.962 -1.7433  0.5136  0.6194
 5193TIP3    H237215   6.865   2.816   1.869 -0.1086  0.2228 -0.6833
 5194TIP3   OH237216   4.478   2.730   0.139 -0.3796 -0.8085 -0.2234
 5194TIP3    H137217   4.468   2.771   0.053  0.1931 -2.7692 -1.2437
 5194TIP3    H237218   4.474   2.636   0.122  0.7210 -1.2509  1.7615
 5195TIP3   OH237219   4.225   1.008   1.053  0.2372 -0.0134 -0.1023
 5195TIP3    H137220   4.292   1.009   0.984  0.2236 -1.1526 -0.1369
 5195TIP3    H237221   4.220   1.099   1.082  0.9094  0.3116 -0.9634
 5196TIP3   OH237222   3.938   1.720   0.621 -0.1987  0.4684  0.2190
 5196TIP3    H137223   3.975   1.676   0.545 -1.1340  1.2128 -0.6760
 5196TIP3    H237224   3.844   1.723   0.604 -0.4138  0.6985  1.3765
 5197TIP3   OH237225   5.181   2.196   1.991  0.3116  0.3153  0.1101
 5197TIP3    H137226   5.226   2.227   2.069 -0.0184 -1.2811  0.9505
 5197TIP3    H237227   5.151   2.108   2.013 -2.0245  0.8023 -0.9006
 5198TIP3   OH237228   5.014   2.992   0.806 -0.0578  0.1767 -0.5240
 5198TIP3    H137229   4.932   2.969   0.762 -0.1208 -0.7144  0.0472
 5198TIP3    H237230   4.998   2.974   0.899  0.2774  1.4651 -0.2017
 5199TIP3   OH237231   4.798   1.832   1.341  0.0197  0.3960 -0.1571
 5199TIP3    H137232   4.712   1.845   1.382  0.6991  0.0471  1.4124
 5199TIP3    H237233   4.786   1.862   1.251 -1.2684  1.9863  0.5111
 5200TIP3   OH237234   0.657   1.095   1.574  0.4025  0.8664 -0.2015
 5200TIP3    H137235   0.633   1.187   1.583  0.1776  0.5948  2.0408
 5200TIP3    H237236   0.610   1.050   1.644  2.4238 -0.5947  0.2699
 5201TIP3   OH237237   4.885   4.895   1.715  0.1154  0.5110 -0.0536
 5201TIP3    H137238   4.948   4.824   1.704  0.0633  0.4376  0.1152
 5201TIP3    H237239   4.828   4.866   1.786  0.1074  0.7330  0.0320
 5202TIP3   OH237240   4.630   2.126   0.795 -0.4213  0.9132 -0.1651
 5202TIP3    H137241   4.563   2.059   0.803  1.4685 -1.0004 -0.0127
 5202TIP3    H237242   4.675   2.127   0.880  1.2234  0.5383 -1.0024
 5203TIP3   OH237243   6.025   4.069   1.023 -0.1400  0.6739  0.8039
 5203TIP3    H137244   6.006   3.984   0.983 -0.4805  0.6097  1.0909
 5203TIP3    H237245   5.963   4.129   0.981  0.6144  0.9317  0.0565
 5204TIP3   OH237246   5.985   4.677   0.661 -0.3924  0.1731 -0.7082
 5204TIP3    H137247   5.896   4.703   0.686 -0.6907  0.1968 -1.7427
 5204TIP3    H237248   6.003   4.598   0.711 -1.6238 -0.7532 -1.6903
 5205TIP3   OH237249   0.700   3.819   2.083  0.1596 -0.6474  0.5299
 5205TIP3    H137250   0.625   3.827   2.023 -0.9632 -3.3650  1.4707
 5205TIP3    H237251   0.736   3.732   2.063  2.7622  0.4106  0.4708
 5206TIP3   OH237252   1.161   2.356   1.571 -0.2042 -0.0455  0.4985
 5206TIP3    H137253   1.091   2.397   1.519  0.3719 -0.3210 -0.4956
 5206TIP3    H237254   1.142   2.262   1.566 -1.3687  0.0577  2.5556
 5207TIP3   OH237255   5.497   1.212   1.725  0.0385  0.3833 -0.6684
 5207TIP3    H137256   5.449   1.229   1.806 -1.9523  2.4537 -2.2203
 5207TIP3    H237257   5.583   1.252   1.738  0.0366 -0.0503  0.7265
 5208TIP3   OH237258   3.040   3.548   1.270 -0.0783  0.1245  0.1434
 5208TIP3    H137259   3.023   3.454   1.262 -3.2178  0.7724 -1.6020
 5208TIP3    H237260   2.964   3.582   1.318  1.3726  1.6831  1.3773
 5209TIP3   OH237261   5.175   2.700   7.374 -0.4147  0.3277  0.7362
 5209TIP3    H137262   5.262   2.661   7.365 -0.8276 -0.8206  1.6276
 5209TIP3    H237263   5.191   2.795   7.375  0.5990  0.2033 -1.3819
 5210TIP3   OH237264   6.586   3.724   2.296 -0.3359 -0.0959  0.6218
 5210TIP3    H137265   6.499   3.688   2.313  0.5175 -2.3348  0.3734
 5210TIP3    H237266   6.618   3.751   2.382 -1.8353  2.1693  0.5338
 5211TIP3   OH237267   6.145   2.896   0.903 -0.2511 -0.0472  0.4886
 5211TIP3    H137268   6.138   2.845   0.984 -0.9864  2.9125  2.3302
 5211TIP3    H237269   6.238   2.913   0.892 -0.1927 -0.1217  0.8888
 5212TIP3   OH237270   0.879   3.009   2.214  0.0431  0.2994 -0.0571
 5212TIP3    H137271   0.960   3.043   2.250 -0.0318  1.7036 -1.1660
 5212TIP3    H237272   0.830   3.087   2.186 -1.1012 -0.5980 -0.6086
 5213TIP3   OH237273   3.076   2.177   1.289  0.0625 -0.9497  0.1682
 5213TIP3    H137274   3.134   2.253   1.286 -1.1690 -0.0323 -1.1726
 5213TIP3    H237275   3.023   2.191   1.367  0.1064 -0.6315  0.1441
 5214TIP3   OH237276   6.669   1.543   1.884  0.1900 -0.1938  0.8306
 5214TIP3    H137277   6.687   1.449   1.882  1.7202  0.0664  1.4100
 5214TIP3    H237278   6.742   1.580   1.933  0.4596  1.4717 -0.7535
 5215TIP3   OH237279   5.436   1.518   2.080 -0.2461  0.3761  0.0045
 5215TIP3    H137280   5.373   1.584   2.110  0.8624  0.6154  1.8741
 5215TIP3    H237281   5.496   1.507   2.153 -0.9789 -3.4500  0.1050
 5216TIP3   OH237282   5.620   3.425   0.227 -0.0963 -0.4968 -0.0685
 5216TIP3    H137283   5.703   3.419   0.178  0.6867 -0.9168  1.2906
 5216TIP3    H237284   5.647   3.426   0.319 -1.5256  0.8879  0.3525
 5217TIP3   OH237285   6.263   1.914   7.385 -0.0971  0.2662  0.1329
 5217TIP3    H137286   6.271   1.970   7.308 -1.2430 -0.1543 -0.2917
 5217TIP3    H237287   6.277   1.974   7.459  0.8063  0.7039 -0.3851
 5218TIP3   OH237288   4.488   1.902   0.788 -0.2799 -0.8161 -0.7212
 5218TIP3    H137289   4.395   1.908   0.769  0.0003  1.4068 -1.5925
 5218TIP3    H237290   4.529   1.887   0.702  0.3485  0.8475 -0.7304
 5219TIP3   OH237291   4.977   1.742   0.303  0.1059 -0.7808 -0.1843
 5219TIP3    H137292   4.969   1.711   0.393  1.2018  1.3748  0.6980
 5219TIP3    H237293   4.979   1.837   0.311 -0.5533 -0.5479 -2.5735
 5220TIP3   OH237294   6.289   2.413   2.054 -0.0924  0.1397 -0.1541
 5220TIP3    H137295   6.322   2.477   2.117 -0.2620  0.2627 -0.1899
 5220TIP3    H237296   6.255   2.466   1.982  1.2343 -0.0371 -0.9101
 5221TIP3   OH237297   7.006   0.497   1.844  0.0691  0.4813  0.2126
 5221TIP3    H137298   7.039   0.459   1.763  0.4134  2.2599 -0.5183
 5221TIP3    H237299   7.066   0.570   1.862 -1.5730  1.7757  0.5972
 5222TIP3   OH237300   7.120   3.509   1.201  0.9177 -0.7429  0.1137
 5222TIP3    H137301   7.107   3.604   1.206  0.1567 -0.8017 -0.6852
 5222TIP3    H237302   7.208   3.496   1.236  0.4995  0.1112  1.5293
 5223TIP3   OH237303   5.374   2.319   1.802 -0.5725  0.2081  0.0393
 5223TIP3    H137304   5.285   2.299   1.831 -0.4081  0.3579  0.6527
 5223TIP3    H237305   5.397   2.400   1.847 -0.6003  0.8582 -1.1146
 5224TIP3   OH237306   5.816   1.509   1.653  0.3920  0.0274 -0.4758
 5224TIP3    H137307   5.731   1.541   1.621 -0.0180 -0.5366  0.0424
 5224TIP3    H237308   5.862   1.588   1.681 -0.1808  0.2791 -0.2317
 5225TIP3   OH237309   5.398   2.227   0.412 -0.4338  0.1573 -0.2076
 5225TIP3    H137310   5.328   2.235   0.346 -2.6080  0.9009  2.1160
 5225TIP3    H237311   5.411   2.316   0.444 -0.3734 -0.3893  1.3170
 5226TIP3   OH237312   6.314   2.216   2.420  0.4941  0.6210 -0.3655
 5226TIP3    H137313   6.279   2.290   2.469 -2.4715 -0.5453 -0.6151
 5226TIP3    H237314   6.251   2.202   2.349  0.5562 -2.6112  0.1362
 5227TIP3   OH237315   4.834   3.745   0.677  0.5679 -0.3288  0.4195
 5227TIP3    H137316   4.810   3.795   0.598 -0.4511  1.5804  1.8751
 5227TIP3    H237317   4.755   3.696   0.699  0.1349  0.7852  1.4246
 5228TIP3   OH237318   5.853   3.646   0.153 -0.1958 -0.0448 -0.0375
 5228TIP3    H137319   5.785   3.689   0.102 -0.0004  1.1478  0.6836
 5228TIP3    H237320   5.927   3.639   0.093 -1.1447 -1.9680 -1.0408
 5229TIP3   OH237321   6.490   7.270   0.949  0.5361  0.1030  1.0115
 5229TIP3    H137322   6.519   7.262   0.858 -0.0701 -0.2319  0.8435
 5229TIP3    H237323   6.539   7.202   0.996  0.1840 -0.3235  0.7678
 5230TIP3   OH237324   5.729   2.213   0.760  0.3278 -0.6465 -0.2108
 5230TIP3    H137325   5.695   2.286   0.812  0.1043  1.1076 -2.6916
 5230TIP3    H237326   5.666   2.143   0.773 -0.9782  0.5458  0.0564
 5231TIP3   OH237327   4.312   2.444   1.154 -0.6525 -0.2276 -0.2622
 5231TIP3    H137328   4.281   2.525   1.195  0.3374 -0.5102  1.0561
 5231TIP3    H237329   4.246   2.426   1.087 -2.7247 -0.1463  1.6719
 5232TIP3   OH237330   5.205   3.473   2.435  0.0521 -0.6649  0.6159
 5232TIP3    H137331   5.188   3.559   2.474 -1.7290 -1.2726  1.2452
 5232TIP3    H237332   5.258   3.492   2.358 -1.5504  1.1587 -0.0824
 5233TIP3   OH237333   6.891   4.427   1.892  0.1792 -0.2528 -0.4008
 5233TIP3    H137334   6.868   4.370   1.966  1.2598 -1.0066 -0.6330
 5233TIP3    H237335   6.890   4.515   1.928  0.3138 -0.5837  0.4268
 5234TIP3   OH237336   6.003   4.235   2.016  0.1360  0.2898 -0.1013
 5234TIP3    H137337   5.945   4.197   2.083 -2.3173  0.4476 -2.0702
 5234TIP3    H237338   6.090   4.233   2.056 -0.7606 -2.5797  1.8485
 5235TIP3   OH237339   4.176   0.803   0.891  0.0387  0.1022 -0.3707
 5235TIP3    H137340   4.176   0.850   0.974 -0.4107 -1.7785  0.7296
 5235TIP3    H237341   4.117   0.729   0.906 -0.5360  0.0777 -2.5724
 5236TIP3   OH237342   0.478   5.429   0.497 -0.2832  0.4926 -0.0037
 5236TIP3    H137343   0.573   5.425   0.483 -0.3461 -1.1669  0.0394
 5236TIP3    H237344   0.445   5.474   0.419  0.3346 -0.7043 -0.9723
 5237TIP3   OH237345   4.198   3.325   6.688  0.4944 -1.0004 -0.5059
 5237TIP3    H137346   4.156   3.408   6.662  0.9834 -0.3127  0.8216
 5237TIP3    H237347   4.135   3.258   6.661 -0.3426 -0.1382 -0.7731
 5238TIP3   OH237348   6.082   0.989   1.411 -0.1492 -0.2462  0.6300
 5238TIP3    H137349   6.111   0.986   1.320 -0.1443 -0.9252  0.6462
 5238TIP3    H237350   6.011   1.053   1.412  1.0906  1.1549  0.5182
 5239TIP3   OH237351   4.399   2.996   7.991 -0.6968 -0.9140  0.1256
 5239TIP3    H137352   4.395   3.013   8.085  1.5155  0.2357  0.0515
 5239TIP3    H237353   4.320   3.036   7.955  0.6067  2.5649  0.9771
 5240TIP3   OH237354   3.513   2.700   0.735  0.3666 -0.3182  0.3655
 5240TIP3    H137355   3.470   2.786   0.732 -0.2208 -0.6607 -2.0625
 5240TIP3    H237356   3.441   2.638   0.751  0.7057 -0.4398  1.4906
 5241TIP3   OH237357   5.566   2.389   0.916 -0.4959 -0.1505  0.4065
 5241TIP3    H137358   5.472   2.374   0.923 -0.7384  1.1519  0.1473
 5241TIP3    H237359   5.603   2.349   0.995 -1.1240 -1.7180 -0.0815
 5242TIP3   OH237360   6.676   1.274   1.860 -0.2959 -0.0382 -0.4901
 5242TIP3    H137361   6.597   1.255   1.911  0.2903  0.5014  0.6413
 5242TIP3    H237362   6.686   1.198   1.803 -0.6298 -0.9510  0.6270
 5243TIP3   OH237363   6.400   3.476   2.182 -0.1986 -0.2412 -0.3114
 5243TIP3    H137364   6.442   3.434   2.257  0.7107  2.7117  0.9046
 5243TIP3    H237365   6.307   3.472   2.201 -0.0979 -1.3278 -0.0351
 5244TIP3   OH237366   0.783   3.400   1.391 -0.3115  0.3537  0.3183
 5244TIP3    H137367   0.839   3.407   1.314 -0.8537  1.0169 -0.0191
 5244TIP3    H237368   0.818   3.325   1.439  0.3249  0.2294 -0.3269
 5245TIP3   OH237369   3.977   2.396   2.181 -0.1096 -0.0073 -0.4572
 5245TIP3    H137370   4.053   2.390   2.238 -0.4875  3.1042  0.4652
 5245TIP3    H237371   3.922   2.321   2.205  1.3691 -0.7138  0.7763
 5246TIP3   OH237372   4.203   2.099   1.252 -0.6284  0.5334 -0.3374
 5246TIP3    H137373   4.191   2.006   1.273 -0.9371  0.4295 -0.9622
 5246TIP3    H237374   4.114   2.133   1.244 -0.5419  1.2751  1.5515
 5247TIP3   OH237375   6.066   1.014   1.083  0.6283  0.3878 -0.3717
 5247TIP3    H137376   5.981   0.987   1.118  0.6536 -0.2798 -0.8154
 5247TIP3    H237377   6.045   1.057   1.000  0.5511  2.1439  0.5272
 5248TIP3   OH237378   3.657   0.004   1.350  0.3945  0.7847 -0.0757
 5248TIP3    H137379   3.721   0.033   1.414  0.4680  0.8717 -0.1883
 5248TIP3    H237380   3.587  -0.036   1.402  1.2009 -0.6029 -0.0135
 5249TIP3   OH237381   6.614   7.287   2.225  0.6023  0.2193 -0.2443
 5249TIP3    H137382   6.601   7.346   2.299 -0.9165  0.7061 -0.8822
 5249TIP3    H237383   6.625   7.201   2.264 -0.5162  0.4208  0.5314
 5250TIP3   OH237384   5.812   1.251   8.438 -0.6348 -0.6256 -0.1640
 5250TIP3    H137385   5.805   1.234   8.532 -3.7209  1.5978  0.0750
 5250TIP3    H237386   5.834   1.344   8.432  0.7838 -1.0321 -1.6610
 5251TIP3   OH237387   2.779   1.225   0.162 -0.3107  0.3573 -0.0654
 5251TIP3    H137388   2.787   1.180   0.246 -0.5743 -0.3853 -0.4377
 5251TIP3    H237389   2.767   1.155   0.098  0.3454  0.8903 -0.7836
 5252TIP3   OH237390   5.319   2.243   1.020  0.2352  0.2473  0.2344
 5252TIP3    H137391   5.340   2.217   1.109  0.6196  1.0852  0.4013
 5252TIP3    H237392   5.347   2.170   0.965  0.7802  0.0916  0.7258
 5253TIP3   OH237393   5.701   2.856   0.471 -0.5142 -0.0848  0.0408
 5253TIP3    H137394   5.688   2.818   0.384  2.7978 -1.4258  0.0491
 5253TIP3    H237395   5.767   2.799   0.512  0.4567  2.4650  2.1520
 5254TIP3   OH237396   5.675   3.912   1.102  0.1472  0.1133  0.2607
 5254TIP3    H137397   5.672   3.964   1.021  1.1132  0.4601  0.4395
 5254TIP3    H237398   5.628   3.831   1.080  0.7594  0.0279 -0.7752
 5255TIP3   OH237399   6.926   3.186   1.117  0.0703 -0.0249 -0.6756
 5255TIP3    H137400   6.996   3.162   1.179  1.0160  1.5349 -1.1137
 5255TIP3    H237401   6.849   3.198   1.171 -0.0690 -2.4540 -0.2541
 5256TIP3   OH237402   5.363   0.564   8.337 -0.1630 -0.0968  0.6454
 5256TIP3    H137403   5.341   0.644   8.385 -0.7188  0.3225 -0.3022
 5256TIP3    H237404   5.422   0.594   8.268  0.8540 -0.7394  1.2285
 5257TIP3   OH237405   0.356   4.563   1.075  0.7111  0.7664  0.1080
 5257TIP3    H137406   0.419   4.547   1.005 -0.0843 -0.2545 -0.3994
 5257TIP3    H237407   0.293   4.625   1.038  0.7975  0.9229  0.2241
 5258TIP3   OH237408   0.474   2.264   1.408  0.2811  0.0233  0.3917
 5258TIP3    H137409   0.407   2.232   1.348 -0.2163 -0.1060  1.0016
 5258TIP3    H237410   0.459   2.215   1.489  1.5883 -0.5288  0.2979
 5259TIP3   OH237411   6.692   3.944   7.709 -0.1916 -0.3190  0.0340
 5259TIP3    H137412   6.624   3.900   7.760  0.3263 -0.6790  0.4173
 5259TIP3    H237413   6.723   3.878   7.647 -0.7829  0.1013 -0.7252
 5260TIP3   OH237414   0.255   3.863   1.695 -0.1577  0.4900  0.0665
 5260TIP3    H137415   0.229   3.926   1.762 -0.0582  0.1489  0.4273
 5260TIP3    H237416   0.332   3.819   1.731 -0.5503 -0.2129  0.0466
 5261TIP3   OH237417   6.861   0.311   2.006 -0.8850 -0.3218 -0.2520
 5261TIP3    H137418   6.907   0.228   2.019  0.1889  0.3016  0.0129
 5261TIP3    H237419   6.917   0.361   1.947 -1.6057  0.1597 -0.5455
 5262TIP3   OH237420   6.935   2.330   1.969  0.1331  0.0172 -0.6091
 5262TIP3    H137421   6.862   2.268   1.970 -0.0710  0.2403 -1.2928
 5262TIP3    H237422   6.922   2.384   2.047  0.3686 -0.8612  0.0397
 5263TIP3   OH237423   4.830   0.245   0.103 -0.5400 -0.2617  0.6146
 5263TIP3    H137424   4.851   0.269   0.193 -0.0585 -1.0163  0.7131
 5263TIP3    H237425   4.834   0.149   0.102  2.3103 -0.1975 -0.8754
 5264TIP3   OH237426   4.604   1.928   1.493 -0.0812  0.4340  0.4829
 5264TIP3    H137427   4.536   1.995   1.483 -1.5751 -1.0414  0.5806
 5264TIP3    H237428   4.601   1.904   1.585  0.1848 -0.0316  0.3746
 5265TIP3   OH237429   4.657   2.830   7.266  0.3050  0.3513 -0.5021
 5265TIP3    H137430   4.672   2.872   7.181 -3.2578 -0.4976 -1.6466
 5265TIP3    H237431   4.631   2.741   7.243 -1.4120  0.3339  1.4559
 5266TIP3   OH237432   7.093   0.768   2.157  0.2563 -1.0128 -0.3165
 5266TIP3    H137433   7.176   0.788   2.200 -0.2571  0.3487  0.0464
 5266TIP3    H237434   7.118   0.745   2.068  0.9508  0.1504 -0.4287
 5267TIP3   OH237435   5.878   2.687   0.638  0.0293 -0.4177 -0.1367
 5267TIP3    H137436   5.874   2.772   0.681  2.5184 -0.6356  0.6581
 5267TIP3    H237437   5.926   2.631   0.700  2.6722 -1.0658 -2.6148
 5268TIP3   OH237438   5.671   4.194   2.043  0.0262 -0.6333 -0.4753
 5268TIP3    H137439   5.680   4.197   2.138  0.0306  0.3357 -0.4995
 5268TIP3    H237440   5.582   4.163   2.028 -0.2522 -0.0170 -0.1356
 5269TIP3   OH237441   6.457   5.375   7.531 -0.2248 -0.6413  0.1681
 5269TIP3    H137442   6.403   5.350   7.456 -1.6798 -2.5499  1.8018
 5269TIP3    H237443   6.438   5.468   7.545  1.6810  0.3248 -3.0842
 5270TIP3   OH237444   5.354   3.129   0.847  0.1696 -0.6780 -0.7576
 5270TIP3    H137445   5.385   3.087   0.767  0.8328  0.2822 -1.0129
 5270TIP3    H237446   5.263   3.154   0.827  0.5164  0.0688 -1.4168
 5271TIP3   OH237447   6.456   1.972   2.389 -0.2349  0.7378 -0.4483
 5271TIP3    H137448   6.426   2.062   2.393  0.2692  0.9983 -2.0863
 5271TIP3    H237449   6.513   1.962   2.466  1.5133  2.5063 -1.4714
 5272TIP3   OH237450   2.674   0.217   0.717 -0.2161  0.4046 -0.3219
 5272TIP3    H137451   2.631   0.187   0.637 -1.9505  3.5326 -0.6674
 5272TIP3    H237452   2.749   0.267   0.687 -0.4614  0.9772  0.0057
 5273TIP3   OH237453   5.649   1.788   1.971 -0.2337  0.0733  0.0209
 5273TIP3    H137454   5.689   1.869   1.939  0.2524  0.6394  1.9991
 5273TIP3    H237455   5.556   1.798   1.953 -0.0032  0.4601 -0.9967
 5274TIP3   OH237456   6.098   3.727   1.189 -0.2131  0.0557  0.4289
 5274TIP3    H137457   6.034   3.760   1.126  0.6221  0.8166 -0.0244
 5274TIP3    H237458   6.051   3.730   1.273 -0.9662  0.0582  0.0187
 5275TIP3   OH237459   0.150   4.168   0.397 -0.7728 -0.6110 -0.0193
 5275TIP3    H137460   0.219   4.230   0.372  0.0097 -1.8461 -0.9347
 5275TIP3    H237461   0.095   4.161   0.319 -0.8370 -1.0912  0.0683
 5276TIP3   OH237462   5.601   4.153   0.278  0.0195 -0.1823 -0.0668
 5276TIP3    H137463   5.591   4.125   0.369 -0.8029  0.5297  0.0623
 5276TIP3    H237464   5.643   4.239   0.284  0.3052 -0.3027 -0.3700
 5277TIP3   OH237465   5.050   1.059   1.463  0.2468 -0.2415  0.9799
 5277TIP3    H137466   5.109   1.133   1.444 -2.4016  2.1474  1.7656
 5277TIP3    H237467   5.006   1.042   1.380  2.5932 -2.6273  0.1549
 5278TIP3   OH237468   4.890   1.605   8.149 -0.2384  0.1248  0.6804
 5278TIP3    H137469   4.930   1.594   8.235  0.2277 -2.4390  0.1836
 5278TIP3    H237470   4.950   1.559   8.089 -0.9947  1.1388 -0.8826
 5279TIP3   OH237471   5.836   3.510   8.207  0.5116 -0.5048  0.0297
 5279TIP3    H137472   5.835   3.605   8.214  0.3089 -0.3042 -2.1478
 5279TIP3    H237473   5.814   3.493   8.115 -0.2247 -2.6726  0.5723
 5280TIP3   OH237474   6.417   4.718   1.199  0.5494  0.2511 -0.0030
 5280TIP3    H137475   6.481   4.734   1.268 -0.9298  1.3299  1.1634
 5280TIP3    H237476   6.464   4.735   1.117  2.0780 -0.1841  0.7698
 5281TIP3   OH237477   5.576   2.724   0.152  0.2162 -0.4554 -0.0235
 5281TIP3    H137478   5.632   2.647   0.164  1.1360  0.3128  0.6376
 5281TIP3    H237479   5.590   2.750   0.061  0.3581 -0.7227 -0.0787
 5282TIP3   OH237480   6.653   4.161   8.342 -0.6089 -0.0185 -0.1200
 5282TIP3    H137481   6.747   4.162   8.326 -0.1560 -0.3549  2.3304
 5282TIP3    H237482   6.619   4.097   8.279  0.9482 -0.6761 -0.3155
 5283TIP3   OH237483   0.933   4.124   0.932 -0.0663 -0.3161  0.7196
 5283TIP3    H137484   0.864   4.070   0.969 -0.4036  0.8042  1.7643
 5283TIP3    H237485   0.887   4.200   0.896  0.5417  0.0261  0.6592
 5284TIP3   OH237486   0.731   2.264   2.108  0.7059 -0.1814  0.0297
 5284TIP3    H137487   0.696   2.264   2.019  1.4878 -2.5839 -0.3352
 5284TIP3    H237488   0.820   2.296   2.099  0.3746  0.7674  0.1357
 5285TIP3   OH237489   6.141   2.806   2.493 -0.1899 -0.3264 -0.7383
 5285TIP3    H137490   6.110   2.819   2.403 -0.0850 -1.4408 -0.9463
 5285TIP3    H237491   6.131   2.892   2.535 -2.2220 -0.3082 -1.2068
 5286TIP3   OH237492   5.691   2.180   1.075  0.2245  0.1512 -0.1232
 5286TIP3    H137493   5.779   2.196   1.040  0.0235  2.6194  0.3939
 5286TIP3    H237494   5.706   2.139   1.160  0.8029 -2.1049 -1.3021
 5287TIP3   OH237495   6.342   3.341   0.992  0.1247  0.2370 -0.1434
 5287TIP3    H137496   6.340   3.346   0.897  1.4097 -1.0543 -0.2567
 5287TIP3    H237497   6.362   3.430   1.021 -0.1608  0.6109 -1.0783
 5288TIP3   OH237498   5.282   4.291   2.207  0.0442 -0.1582 -0.2405
 5288TIP3    H137499   5.334   4.243   2.271 -0.0022 -0.2021 -0.2362
 5288TIP3    H237500   5.195   4.297   2.246 -0.2804 -1.1771 -0.8056
 5289TIP3   OH237501   4.218   3.912   7.607  0.7967 -0.0054 -0.0333
 5289TIP3    H137502   4.298   3.896   7.557  0.7204  1.3597 -0.6041
 5289TIP3    H237503   4.220   3.847   7.677  2.0482 -0.4347 -0.4580
 5290TIP3   OH237504   6.159   1.474   1.188  0.1514 -0.1340 -0.4424
 5290TIP3    H137505   6.131   1.555   1.230  0.1478  0.4111 -1.4767
 5290TIP3    H237506   6.207   1.427   1.256 -1.5023 -0.1543  0.7422
 5291TIP3   OH237507   5.555   2.424   0.173 -0.0762  0.6611 -0.6201
 5291TIP3    H137508   5.536   2.401   0.082 -1.7322  0.1127 -0.1483
 5291TIP3    H237509   5.504   2.503   0.190 -1.0550 -0.1482  0.3072
 5292TIP3   OH237510   4.880   2.803   6.653  0.4926 -0.0994  0.2443
 5292TIP3    H137511   4.847   2.717   6.623  3.7629 -1.0242 -0.8490
 5292TIP3    H237512   4.811   2.835   6.711 -0.9228 -3.3685  0.5035
 5293TIP3   OH237513   4.839   6.867   8.274  0.0549  0.6408  0.4244
 5293TIP3    H137514   4.848   6.773   8.289  1.3260  0.8419  1.0363
 5293TIP3    H237515   4.839   6.905   8.362 -2.3259  1.0715  0.2512
 5294TIP3   OH237516   1.026   6.870   0.694  0.3738  0.3233 -0.7424
 5294TIP3    H137517   1.081   6.827   0.629  0.1621  0.1728 -0.8231
 5294TIP3    H237518   1.085   6.889   0.767  0.6587  0.7096 -1.0798
 5295TIP3   OH237519   4.417   0.552   8.304 -0.5066  0.3482 -0.2519
 5295TIP3    H137520   4.497   0.604   8.314  0.3484 -1.1622  0.9872
 5295TIP3    H237521   4.384   0.541   8.394 -2.1141  0.9532 -0.7545
 5296TIP3   OH237522   3.654   2.582   8.390  0.3693  0.4108  0.4602
 5296TIP3    H137523   3.713   2.656   8.406  1.7209 -0.1461 -1.7906
 5296TIP3    H237524   3.618   2.599   8.303 -2.6063  0.5704  1.6569
 5297TIP3   OH237525   5.942   1.954   1.437  0.0452 -0.2643  0.6387
 5297TIP3    H137526   6.029   1.994   1.430  0.5789 -1.3611  1.0160
 5297TIP3    H237527   5.926   1.945   1.531 -1.7856  2.7301  0.7072
 5298TIP3   OH237528   6.319   0.920   1.977 -0.4896  0.2363 -0.3718
 5298TIP3    H137529   6.228   0.920   2.007 -0.7268  1.6920 -1.0368
 5298TIP3    H237530   6.324   0.849   1.913 -0.0235 -2.7903  2.9032
 5299TIP3   OH237531   7.182   4.048   1.119  0.1261  0.0395  0.2734
 5299TIP3    H137532   7.138   4.063   1.036 -3.3445 -0.4787  1.9505
 5299TIP3    H237533   7.189   4.135   1.159 -2.5901 -0.2789  1.5230
 5300TIP3   OH237534   5.958   3.569   1.801  0.1482 -0.3789  0.2990
 5300TIP3    H137535   6.049   3.557   1.775  0.6201  0.7878  1.3903
 5300TIP3    H237536   5.911   3.579   1.718  1.1665  0.1367 -0.2237
 5301TIP3   OH237537   4.784   1.648   0.156 -0.3038 -0.0947  0.3794
 5301TIP3    H137538   4.827   1.694   0.228  0.4979 -1.5496  0.8537
 5301TIP3    H237539   4.849   1.584   0.126 -0.2875  1.1222 -2.2693
 5302TIP3   OH237540   6.858   4.602   8.374  0.2217 -0.1335 -0.1612
 5302TIP3    H137541   6.848   4.620   8.468 -1.3064 -1.5129 -0.0298
 5302TIP3    H237542   6.813   4.674   8.331  1.6921  0.9794  0.1309
 5303TIP3   OH237543   5.481   0.459   1.846  0.2564 -0.4274  0.5559
 5303TIP3    H137544   5.503   0.378   1.892  0.5512 -0.5657  0.1715
 5303TIP3    H237545   5.564   0.489   1.808 -0.0377 -0.4810 -0.1458
 5304TIP3   OH237546   6.401   3.582   0.356  0.6193 -0.2417 -0.0168
 5304TIP3    H137547   6.492   3.565   0.382  0.5081  0.7423  1.0572
 5304TIP3    H237548   6.380   3.666   0.398 -0.8274 -0.5347 -0.1481
 5305TIP3   OH237549   4.650   3.284   0.835 -0.0645  0.5407 -0.2814
 5305TIP3    H137550   4.691   3.248   0.756 -0.0659  0.0371 -0.0531
 5305TIP3    H237551   4.565   3.241   0.840  0.3424 -0.1792  0.5426
 5306TIP3   OH237552   6.034   3.215   2.438 -0.1217  0.2795 -0.2042
 5306TIP3    H137553   6.072   3.158   2.506  1.8305 -0.1377 -1.6051
 5306TIP3    H237554   5.946   3.236   2.471 -0.8980 -3.5276  0.3666
 5307TIP3   OH237555   7.074   6.293   1.191  0.0097 -0.4848 -0.2089
 5307TIP3    H137556   7.020   6.330   1.121 -0.7234  2.2889  1.7253
 5307TIP3    H237557   7.056   6.348   1.267  4.8930  0.0040  0.7775
 5308TIP3   OH237558   6.912   2.684   1.367 -0.1107 -0.0352 -0.1298
 5308TIP3    H137559   6.883   2.663   1.455 -1.0205 -1.1243 -0.6762
 5308TIP3    H237560   6.891   2.776   1.356  0.4932  0.2410  0.9777
 5309TIP3   OH237561   7.291   3.173   1.874  0.3458 -0.3192  0.0783
 5309TIP3    H137562   7.318   3.129   1.954  0.8512 -2.4964 -1.2599
 5309TIP3    H237563   7.257   3.103   1.818 -1.6864  1.4064 -0.9297
 5310TIP3   OH237564   5.512   0.704   1.487 -0.2010 -0.2415 -0.3265
 5310TIP3    H137565   5.455   0.696   1.410 -0.3795 -3.3407  0.0473
 5310TIP3    H237566   5.599   0.683   1.454  0.1935  1.1726 -0.2112
 5311TIP3   OH237567   5.720   3.241   1.528  0.2411 -0.3836 -0.0634
 5311TIP3    H137568   5.656   3.308   1.552  1.7322  1.4686 -1.1310
 5311TIP3    H237569   5.709   3.172   1.593 -1.0605  1.0753  1.2844
 5312TIP3   OH237570   5.579   3.253   1.103  0.4621 -0.5105 -0.3141
 5312TIP3    H137571   5.660   3.275   1.149  0.1354  0.9714 -0.4176
 5312TIP3    H237572   5.598   3.273   1.011  0.7732 -2.4734 -0.6848
 5313TIP3   OH237573   5.815   2.726   1.964 -0.1150  0.2264 -0.6072
 5313TIP3    H137574   5.721   2.711   1.954 -0.0888 -0.5664  0.3677
 5313TIP3    H237575   5.827   2.818   1.938 -1.3506  0.7238  0.5480
 5314TIP3   OH237576   4.335   4.436   1.132  0.0551 -0.0375  0.4816
 5314TIP3    H137577   4.366   4.351   1.099  0.5467 -0.3542  1.7278
 5314TIP3    H237578   4.272   4.465   1.066 -1.7284 -2.3754  1.0730
 5315TIP3   OH237579   5.892   6.694   1.127 -0.4675 -0.2407 -0.1883
 5315TIP3    H137580   5.888   6.785   1.096  2.3773  0.3405  0.9711
 5315TIP3    H237581   5.886   6.701   1.223 -0.7202 -1.3245 -0.1192
 5316TIP3   OH237582   5.756   4.023   1.858 -0.4441 -0.6648 -0.3269
 5316TIP3    H137583   5.802   4.080   1.796 -0.2192  0.2367  0.6517
 5316TIP3    H237584   5.739   4.078   1.934 -2.8555 -1.0874 -0.5197
 5317TIP3   OH237585   1.468   2.508   1.154 -0.6242 -0.0570  0.2320
 5317TIP3    H137586   1.423   2.590   1.132 -0.0244  0.3792  0.6137
 5317TIP3    H237587   1.561   2.529   1.145 -0.4470 -0.5037  1.0060
 5318TIP3   OH237588   7.060   2.414   1.327  0.1533 -0.3421  0.1463
 5318TIP3    H137589   7.000   2.409   1.253 -0.2624  0.3619  0.4287
 5318TIP3    H237590   7.053   2.504   1.358  0.6366 -0.5172  0.7837
 5319TIP3   OH237591   5.366   1.558   1.413  0.3955  0.7686 -0.1095
 5319TIP3    H137592   5.351   1.465   1.429  0.9380  0.8776  1.0746
 5319TIP3    H237593   5.286   1.588   1.370  0.2641 -0.2666 -0.5877
 5320TIP3   OH237594   5.132   3.882   2.839  0.3017  0.1041 -1.2738
 5320TIP3    H137595   5.049   3.914   2.804 -0.4599  1.6056  1.7822
 5320TIP3    H237596   5.181   3.962   2.860  1.2281 -0.7571 -0.1204
 5321TIP3   OH237597   6.680   2.958   1.580  0.1398  0.1665 -0.5312
 5321TIP3    H137598   6.621   2.900   1.532 -0.0913 -0.3928  0.4108
 5321TIP3    H237599   6.665   2.937   1.672  1.2019  0.6150 -0.2449
 5322TIP3   OH237600   6.030   2.444   2.210 -0.1878 -0.1986  0.4384
 5322TIP3    H137601   6.065   2.506   2.273  1.9486 -1.2174  0.2917
 5322TIP3    H237602   6.057   2.358   2.243  1.2731 -0.7266 -2.0402
 5323TIP3   OH237603   4.876   3.927   1.317 -0.3761  0.1974 -0.3334
 5323TIP3    H137604   4.832   3.847   1.288  0.5660 -0.8853  1.1542
 5323TIP3    H237605   4.817   3.998   1.292  0.4422 -0.6381 -4.9720
 5324TIP3   OH237606   5.889   2.299   2.566 -0.1232  0.4097 -1.5673
 5324TIP3    H137607   5.907   2.206   2.581 -1.3677  0.4294  0.0671
 5324TIP3    H237608   5.976   2.340   2.566  0.4167 -0.6977 -2.0637
 5325TIP3   OH237609   5.599   1.406   1.313  0.4677 -0.2487  0.3721
 5325TIP3    H137610   5.684   1.445   1.295  0.7517 -0.3220  1.4839
 5325TIP3    H237611   5.559   1.464   1.378  0.4337 -1.1849  1.2039
 5326TIP3   OH237612   6.685   3.705   1.121 -0.1255  0.3725  0.3394
 5326TIP3    H137613   6.630   3.703   1.044 -1.2851  1.4811  1.1171
 5326TIP3    H237614   6.761   3.758   1.095 -1.0951  1.7897  0.3094
 5327TIP3   OH237615   6.766   2.268   2.359  0.0319  0.0044 -0.0172
 5327TIP3    H137616   6.852   2.287   2.324  1.0006 -0.8539  1.8258
 5327TIP3    H237617   6.782   2.211   2.434 -2.1796 -0.7632 -0.0647
 5328TIP3   OH237618   4.869   2.585   1.397  0.7011 -0.4972  0.3082
 5328TIP3    H137619   4.933   2.598   1.466 -0.1219 -0.0815  1.0090
 5328TIP3    H237620   4.913   2.529   1.333  1.8042 -0.0891  0.7011
 5329TIP3   OH237621   5.610   1.080   2.157 -0.2516 -0.5287  0.3287
 5329TIP3    H137622   5.519   1.057   2.173 -1.0730  2.0407 -0.4484
 5329TIP3    H237623   5.638   1.021   2.088 -2.1729  0.4413 -1.3289
 5330TIP3   OH237624   6.810   4.540   0.443 -0.0255  0.4357  0.5045
 5330TIP3    H137625   6.812   4.537   0.539 -0.6139 -0.7026  0.4790
 5330TIP3    H237626   6.902   4.534   0.417  0.0246 -0.8561  0.9550
 5331TIP3   OH237627   6.852   3.842   0.750  0.1878 -0.2988  0.3921
 5331TIP3    H137628   6.777   3.898   0.730  0.9411  0.1806 -1.1834
 5331TIP3    H237629   6.855   3.839   0.845 -0.2816  1.7796  0.4971
 5332TIP3   OH237630   6.594   4.448   8.238  0.5155 -0.0987  0.0912
 5332TIP3    H137631   6.592   4.417   8.328 -2.2886  0.4126  0.2572
 5332TIP3    H237632   6.502   4.445   8.209  1.4957 -1.4860 -3.1729
 5333TIP3   OH237633   3.486   3.196   1.009 -0.3215 -0.5265  0.2547
 5333TIP3    H137634   3.476   3.101   1.005  1.0191 -0.6479 -0.4137
 5333TIP3    H237635   3.505   3.214   1.101  1.2521 -1.1098  0.0602
 5334TIP3   OH237636   6.450   3.815   0.500 -0.0980 -0.0014 -1.0174
 5334TIP3    H137637   6.405   3.878   0.556 -0.4565 -2.6061  1.7681
 5334TIP3    H237638   6.539   3.850   0.493 -0.0935  0.4790  1.0650
 5335TIP3   OH237639   1.151   4.659   0.647  0.3978  0.0132 -0.4215
 5335TIP3    H137640   1.210   4.617   0.585 -0.6943 -2.3387  0.0854
 5335TIP3    H237641   1.074   4.602   0.650  0.0676  0.4983  2.4357
 5336TIP3   OH237642   7.276   4.752   1.856  0.4930  0.5212 -0.6501
 5336TIP3    H137643   7.317   4.799   1.929 -0.6408  1.4335 -0.5758
 5336TIP3    H237644   7.350   4.726   1.800  1.4185 -0.7322  1.1152
 5337TIP3   OH237645   6.510   3.791   0.871 -0.3171  0.7369  0.1550
 5337TIP3    H137646   6.542   3.859   0.812 -0.5965 -0.0286 -0.9026
 5337TIP3    H237647   6.447   3.835   0.928 -0.6976  1.3136 -0.7022
 5338TIP3   OH237648   2.873   1.865   8.250 -0.1044 -0.1993  0.3443
 5338TIP3    H137649   2.848   1.827   8.334  0.5713 -0.6029  0.3712
 5338TIP3    H237650   2.958   1.824   8.230  0.9363  1.7304  0.6566
 5339TIP3   OH237651   6.016   1.696   1.298  0.3296 -0.0140 -0.1070
 5339TIP3    H137652   6.028   1.758   1.226 -2.8967 -0.5975 -1.2067
 5339TIP3    H237653   5.987   1.751   1.371  1.0386  0.2223  0.0057
 5340TIP3   OH237654   6.749   6.839   6.539 -0.1244  0.1973  0.1231
 5340TIP3    H137655   6.800   6.919   6.549 -0.9937  0.4716  2.9346
 5340TIP3    H237656   6.668   6.857   6.586 -1.8702 -1.0539 -2.3094
 5341TIP3   OH237657   6.526   2.855   2.201  0.1524  0.3484 -0.4342
 5341TIP3    H137658   6.614   2.879   2.174 -0.4516  1.0906 -1.8140
 5341TIP3    H237659   6.493   2.931   2.250  0.4172 -0.0902  0.4361
 5342TIP3   OH237660   6.659   2.578   1.870  0.2618  0.4475  0.0718
 5342TIP3    H137661   6.652   2.499   1.924  0.8156 -0.8419 -1.6837
 5342TIP3    H237662   6.750   2.605   1.877  0.1431  0.7677  0.4229
 5343TIP3   OH237663   0.485   1.752   1.634 -0.0254 -0.0578 -0.7006
 5343TIP3    H137664   0.414   1.806   1.600  0.0719 -0.6164 -1.8117
 5343TIP3    H237665   0.449   1.710   1.711 -0.7003  0.1616 -0.8969
 5344TIP3   OH237666   6.328   1.223   1.896 -0.1979 -0.2630 -0.6210
 5344TIP3    H137667   6.359   1.149   1.845  0.7256 -0.1402 -0.2577
 5344TIP3    H237668   6.269   1.185   1.961 -1.7143 -0.3671 -2.0325
 5345TIP3   OH237669   4.441   3.232   1.185 -0.3298 -0.3044  0.3320
 5345TIP3    H137670   4.402   3.189   1.261 -1.1528  0.5787  0.4230
 5345TIP3    H237671   4.367   3.249   1.126 -0.2226  2.0870  0.8528
 5346TIP3   OH237672   4.995   3.011   2.308  0.1629 -0.0940  0.1448
 5346TIP3    H137673   4.979   3.098   2.272 -2.5238  0.3014  2.1548
 5346TIP3    H237674   4.983   3.022   2.403 -2.1349 -3.0544  0.2487
 5347TIP3   OH237675   5.978   1.383   2.349  0.2478 -0.2794  0.4777
 5347TIP3    H137676   6.010   1.432   2.425  1.2716 -0.6338  0.2818
 5347TIP3    H237677   5.919   1.317   2.386  2.6444 -2.0873  1.2607
 5348TIP3   OH237678   4.263   2.049   0.515 -0.2616 -0.6256  0.6917
 5348TIP3    H137679   4.218   2.008   0.590 -2.2114  0.2387  0.0253
 5348TIP3    H237680   4.203   2.117   0.485  2.1295  1.5269  0.6181
 5349TIP3   OH237681   6.374   3.723   0.077 -0.6994  0.2886  0.0186
 5349TIP3    H137682   6.400   3.644   0.124  1.3348 -0.6006 -2.4896
 5349TIP3    H237683   6.452   3.779   0.078 -1.2704  1.1133 -0.5749
 5350TIP3   OH237684   3.459   2.232   1.183 -0.6429  0.6466 -0.1045
 5350TIP3    H137685   3.374   2.262   1.215 -0.3706  0.1017  1.1770
 5350TIP3    H237686   3.522   2.271   1.243 -0.1402 -0.6067  0.2103
 5351TIP3   OH237687   5.295   2.661   1.785  0.6375 -0.1879  0.1269
 5351TIP3    H137688   5.215   2.641   1.832 -0.0414 -0.1834 -0.9950
 5351TIP3    H237689   5.277   2.633   1.695  1.3387  1.2180 -0.4636
 5352TIP3   OH237690   4.804   5.323   0.124  0.2380 -0.4575  0.1837
 5352TIP3    H137691   4.805   5.416   0.148  1.2844 -0.6119  0.7681
 5352TIP3    H237692   4.715   5.307   0.092  0.3870  1.0072 -0.9709
 5353TIP3   OH237693   0.201   0.668   1.108  0.4687 -0.2086 -0.1097
 5353TIP3    H137694   0.280   0.716   1.083  0.0720 -0.0822 -1.1447
 5353TIP3    H237695   0.174   0.707   1.191 -0.7906  2.5143 -1.7467
 5354TIP3   OH237696   7.173   4.355   2.390  0.5084 -0.6831  0.4977
 5354TIP3    H137697   7.108   4.293   2.356  0.1288 -0.4370  0.7668
 5354TIP3    H237698   7.257   4.311   2.377  0.5110  0.0445 -2.1704
 5355TIP3   OH237699   4.684   3.769   1.819  0.0000  0.4191 -0.1112
 5355TIP3    H137700   4.694   3.863   1.836 -0.3047  0.1781  1.4062
 5355TIP3    H237701   4.752   3.728   1.871 -0.4551 -0.2729 -0.0608
 5356TIP3   OH237702   6.259   4.089   1.540  0.2995  0.6467  0.2425
 5356TIP3    H137703   6.321   4.160   1.556  0.9841  0.3176 -0.8389
 5356TIP3    H237704   6.173   4.129   1.548  0.6852  1.6794 -0.7163
 5357TIP3   OH237705   5.023   4.181   1.827  0.2663 -0.2722 -0.1298
 5357TIP3    H137706   5.015   4.275   1.841 -1.9951 -0.5420  0.6270
 5357TIP3    H237707   5.007   4.168   1.734 -1.2983 -0.0674  0.0974
 5358TIP3   OH237708   7.195   3.822   0.269 -0.0889 -1.0954 -0.3398
 5358TIP3    H137709   7.273   3.811   0.323 -0.5024 -0.9665  0.2818
 5358TIP3    H237710   7.125   3.779   0.318 -0.0385 -2.9078 -1.7855
 5359TIP3   OH237711   0.052   5.510   0.210 -0.2655  0.8172 -0.2425
 5359TIP3    H137712   0.012   5.450   0.274 -1.2016  0.8852 -0.7620
 5359TIP3    H237713   0.045   5.463   0.127 -0.8955  1.5980 -0.6315
 5360TIP3   OH237714   6.950   1.611   1.568  0.2291  0.3263 -0.3325
 5360TIP3    H137715   6.887   1.578   1.504  1.8677 -0.1443 -1.7608
 5360TIP3    H237716   6.920   1.700   1.588 -0.9151  0.0826 -0.9513
 5361TIP3   OH237717   7.199   4.281   0.820  0.3373 -0.5288  0.2057
 5361TIP3    H137718   7.121   4.336   0.825 -0.0680 -0.9772 -0.9092
 5361TIP3    H237719   7.165   4.192   0.809  0.9880 -0.9477  1.4455
 5362TIP3   OH237720   3.808   3.583   1.539 -0.3171 -0.2066  0.1028
 5362TIP3    H137721   3.761   3.640   1.600 -1.3639 -0.3277 -0.5806
 5362TIP3    H237722   3.895   3.623   1.532 -1.1773  1.6007 -0.7486
 5363TIP3   OH237723   6.013   0.987   1.837 -0.3685  0.6866  0.3581
 5363TIP3    H137724   5.940   1.048   1.846  0.4300  1.4003  2.1963
 5363TIP3    H237725   6.015   0.939   1.920  0.0840 -0.6571 -0.4051
 5364TIP3   OH237726   6.052   4.470   0.225 -0.0177 -0.4364 -0.1230
 5364TIP3    H137727   6.037   4.380   0.254 -0.6279 -0.0665  0.7410
 5364TIP3    H237728   6.048   4.466   0.130 -0.6896 -1.2056 -0.0641
 5365TIP3   OH237729   4.597   0.553   0.926  0.8135 -0.1047 -0.7424
 5365TIP3    H137730   4.510   0.582   0.899  0.4950  1.2331  1.6480
 5365TIP3    H237731   4.592   0.457   0.922 -0.7495 -0.0392 -0.6354
 5366TIP3   OH237732   6.384   0.240   8.009  0.0680 -0.2382 -0.2212
 5366TIP3    H137733   6.295   0.266   7.986  0.5645 -0.1855 -2.1204
 5366TIP3    H237734   6.394   0.269   8.100 -1.0669  1.7921 -0.7164
 5367TIP3   OH237735   6.553   0.303   1.535 -0.1478 -0.5358 -0.2331
 5367TIP3    H137736   6.623   0.254   1.492  0.0493 -0.4847  0.0264
 5367TIP3    H237737   6.510   0.351   1.464  2.2181  2.0894 -0.0028
 5368TIP3   OH237738   7.193   0.047   2.164 -0.2909 -0.1755  0.0410
 5368TIP3    H137739   7.103   0.018   2.153 -0.6602  0.6000  0.9908
 5368TIP3    H237740   7.203   0.120   2.102 -1.0496  1.3147  1.6424
 5369TIP3   OH237741   6.273   1.054   1.668 -0.2026 -0.1288 -0.2693
 5369TIP3    H137742   6.202   1.042   1.731 -1.1223  1.1493 -1.0544
 5369TIP3    H237743   6.263   0.981   1.607 -0.4846 -0.2743 -0.0484
 5370TIP3   OH237744   4.364   5.374   1.827  0.0587  0.6074  0.4179
 5370TIP3    H137745   4.322   5.423   1.756 -0.4634  1.2046  1.1315
 5370TIP3    H237746   4.438   5.331   1.785 -0.7142  0.3055 -0.6568
 5371TIP3   OH237747   5.172   0.100   7.350  0.3755  0.2044  0.2474
 5371TIP3    H137748   5.142   0.092   7.259 -2.8074 -1.3375  1.3519
 5371TIP3    H237749   5.205   0.013   7.373 -0.1111  0.2057  0.9777
 5372TIP3   OH237750   5.025   0.665   0.431  0.4904  0.4900 -0.3716
 5372TIP3    H137751   5.003   0.746   0.387  0.8958  1.3665  0.9905
 5372TIP3    H237752   5.112   0.681   0.468 -0.7616  0.6453  2.6769
 5373TIP3   OH237753   6.236   2.037   1.739  0.2931 -0.6481  0.4260
 5373TIP3    H137754   6.297   1.980   1.785  0.7009  0.4770  1.2986
 5373TIP3    H237755   6.180   2.073   1.808  0.4334  0.4791 -0.0391
 5374TIP3   OH237756   2.765   1.685   2.356 -0.1751 -0.6802 -0.2072
 5374TIP3    H137757   2.841   1.655   2.406 -0.3330  0.7367  0.9291
 5374TIP3    H237758   2.759   1.624   2.283 -0.4999 -3.3746  1.9906
 5375TIP3   OH237759   5.506   1.584   2.484  0.3544 -0.5278 -0.2129
 5375TIP3    H137760   5.601   1.589   2.472  0.1571 -0.2339 -1.8202
 5375TIP3    H237761   5.482   1.496   2.456 -0.0043 -0.1430 -1.1670
 5376TIP3   OH237762   6.319   3.611   1.068 -0.6174  0.1223  0.0775
 5376TIP3    H137763   6.329   3.695   1.023  2.6171  0.2321  0.9468
 5376TIP3    H237764   6.264   3.632   1.145 -2.0844  0.8647 -1.1320
 5377TIP3   OH237765   6.528   2.057   2.736  0.2646  0.3131 -0.4461
 5377TIP3    H137766   6.439   2.091   2.744  0.3407  0.6401 -0.9603
 5377TIP3    H237767   6.517   1.962   2.728  0.0626  0.2000  1.1557
 5378TIP3   OH237768   0.080   5.106   7.826  0.3854 -0.1919 -0.5431
 5378TIP3    H137769   0.075   5.200   7.807  0.4814 -0.0618  0.0828
 5378TIP3    H237770   0.076   5.064   7.740 -1.7813  0.3034 -0.7082
 5379TIP3   OH237771   6.536   3.248   0.616 -0.0441  0.0046 -0.1140
 5379TIP3    H137772   6.560   3.266   0.706 -0.5961 -0.8782  0.2234
 5379TIP3    H237773   6.568   3.323   0.566  0.8918  0.1535  0.7114
 5380TIP3   OH237774   0.609   4.564   1.784  0.3442  0.2353 -0.7322
 5380TIP3    H137775   0.639   4.484   1.826  1.4894  1.3124  0.5510
 5380TIP3    H237776   0.520   4.576   1.818  0.8487  0.4886  0.5409
 5381TIP3   OH237777   7.233   0.108   0.488  0.6760  0.5041 -0.0422
 5381TIP3    H137778   7.321   0.090   0.521  0.5625 -0.0978 -0.0600
 5381TIP3    H237779   7.225   0.203   0.491  1.0907  0.5187  0.5687
 5382TIP3   OH237780   7.290   5.808   0.480  0.3202 -0.2852  0.4761
 5382TIP3    H137781   7.350   5.743   0.517 -0.7435  0.2046  3.2094
 5382TIP3    H237782   7.280   5.873   0.550  0.0227  1.9334 -1.5680
 5383TIP3   OH237783   0.495   3.801   0.911 -0.2112 -0.2723  0.2943
 5383TIP3    H137784   0.426   3.736   0.919 -1.6092  1.2813  1.2649
 5383TIP3    H237785   0.510   3.831   1.001  2.2712 -1.1164  0.2133
 5384TIP3   OH237786   5.788   2.776   1.463  0.5667  0.2270  0.7310
 5384TIP3    H137787   5.801   2.713   1.533  0.9436  0.7375  1.1249
 5384TIP3    H237788   5.703   2.816   1.483 -0.6613 -1.5848 -0.6525
 5385TIP3   OH237789   5.518   5.446   0.572  0.0217  0.0316 -0.2034
 5385TIP3    H137790   5.492   5.532   0.538 -0.7679 -0.3771 -0.6358
 5385TIP3    H237791   5.606   5.433   0.537 -0.1813  0.2978 -0.8305
 5386TIP3   OH237792   0.070   7.052   0.466  0.1707  0.1153  0.3766
 5386TIP3    H137793   0.164   7.044   0.485  0.5943  1.4038 -1.0405
 5386TIP3    H237794   0.066   7.067   0.371 -1.4255  0.8438  0.5442
 5387TIP3   OH237795   2.223   5.916   0.574  0.7507  0.3636 -0.5832
 5387TIP3    H137796   2.278   5.902   0.497  1.1724  1.0275 -0.4012
 5387TIP3    H237797   2.190   6.005   0.565  0.7541  0.4256 -0.0209
 5388TIP3   OH237798   1.956   2.402   1.934 -0.2154  0.0927  0.0533
 5388TIP3    H137799   1.992   2.371   1.850 -1.3766 -1.6932  0.1798
 5388TIP3    H237800   2.000   2.485   1.949  3.0258 -1.4520 -0.3432
 5389TIP3   OH237801   0.893   5.429   2.400 -0.3137  0.2006 -0.6320
 5389TIP3    H137802   0.910   5.510   2.353  0.1405 -0.6022 -1.8658
 5389TIP3    H237803   0.819   5.389   2.355 -0.8473  0.1608  0.2670
 5390TIP3   OH237804   0.621   5.070   0.582 -0.1150 -0.8576 -0.3808
 5390TIP3    H137805   0.532   5.046   0.555 -0.3957  0.0192 -0.2449
 5390TIP3    H237806   0.609   5.145   0.640  0.6708 -1.1555  0.1626
 5391TIP3   OH237807   0.570   4.506   2.272  0.6772 -0.2138  0.7511
 5391TIP3    H137808   0.628   4.442   2.231  0.2503 -0.1421  0.0278
 5391TIP3    H237809   0.561   4.476   2.363  2.4103  0.1650  1.0719
 5392TIP3   OH237810   6.310   3.830   1.613  0.6160  0.1119  0.1147
 5392TIP3    H137811   6.317   3.918   1.577 -1.0671 -0.2245 -1.0602
 5392TIP3    H237812   6.384   3.783   1.574  0.4568  0.5080 -0.6675
 5393TIP3   OH237813   5.290   5.019   0.926 -0.2877  0.2557 -0.0481
 5393TIP3    H137814   5.239   5.039   1.005 -0.6912  1.7064 -0.6537
 5393TIP3    H237815   5.332   4.936   0.945 -1.4676 -0.0856  1.1734
 5394TIP3   OH237816   6.917   4.700   1.938 -0.7708 -0.1416 -0.0537
 5394TIP3    H137817   6.954   4.701   1.850 -0.1398 -2.7101  0.1575
 5394TIP3    H237818   6.990   4.722   1.996 -0.9280  0.4237 -0.0603
 5395TIP3   OH237819   6.323   4.461   0.660  0.6059  0.9205  0.2232
 5395TIP3    H137820   6.395   4.524   0.657 -0.0015  1.6632  0.7780
 5395TIP3    H237821   6.263   4.489   0.591  0.0424  1.3272  0.8653
 5396TIP3   OH237822   0.341   0.172   8.438  0.1163 -0.6480 -0.1920
 5396TIP3    H137823   0.306   0.087   8.464 -1.6476 -0.4729 -1.9122
 5396TIP3    H237824   0.343   0.169   8.343  1.9177  0.5255 -0.2173
 5397TIP3   OH237825   1.757   4.526   7.859  0.5885 -0.1427 -0.3131
 5397TIP3    H137826   1.798   4.612   7.854  1.5565 -0.5736  0.0677
 5397TIP3    H237827   1.693   4.534   7.929 -1.1366  0.9988 -1.9840
 5398TIP3   OH237828   0.172   6.163   1.662  0.5460  0.4677 -0.0989
 5398TIP3    H137829   0.104   6.174   1.729  0.6524  1.7096 -0.1866
 5398TIP3    H237830   0.129   6.185   1.580 -0.2360 -3.3358 -0.7773
 5399TIP3   OH237831   5.749   3.608   0.781  0.0713  0.4538  0.9193
 5399TIP3    H137832   5.744   3.688   0.728 -0.2583  0.3577  0.8050
 5399TIP3    H237833   5.819   3.557   0.740 -0.2986  0.3053  0.4777
 5400TIP3   OH237834   6.681   3.679   1.845  0.3203 -1.0697 -0.1401
 5400TIP3    H137835   6.652   3.635   1.765 -1.9433  1.5038 -0.8466
 5400TIP3    H237836   6.603   3.679   1.901  0.6868  0.7374  0.3954
 5401TIP3   OH237837   4.794   0.421   0.340  0.0713 -0.0203 -0.1606
 5401TIP3    H137838   4.700   0.437   0.343  0.0463 -0.2968  0.8561
 5401TIP3    H237839   4.818   0.401   0.431  1.1279  0.1619 -0.3885
 5402TIP3   OH237840   0.849   5.147   0.973 -0.4003 -0.4176  0.0856
 5402TIP3    H137841   0.851   5.130   1.067  2.0187 -3.2826 -0.3655
 5402TIP3    H237842   0.821   5.064   0.934  1.0922 -0.0818 -1.8214
 5403TIP3   OH237843   1.486   4.078   1.707  0.2420 -0.5341  0.1930
 5403TIP3    H137844   1.507   4.166   1.676 -2.4601  0.9847  2.4426
 5403TIP3    H237845   1.406   4.054   1.660  0.0474 -1.1088  0.8101
 5404TIP3   OH237846   1.831   2.555   1.532 -0.5513 -0.0099 -0.1576
 5404TIP3    H137847   1.919   2.575   1.565  0.4514 -2.2115 -1.3363
 5404TIP3    H237848   1.814   2.623   1.466  0.2572  0.4438  0.0918
 5405TIP3   OH237849   2.748   4.705   7.350  0.0865  0.2580 -0.0166
 5405TIP3    H137850   2.668   4.723   7.301 -0.5523 -0.9883  0.5543
 5405TIP3    H237851   2.717   4.668   7.433  1.2953 -1.6385 -0.3962
 5406TIP3   OH237852   3.163   3.789   8.077  0.6081 -0.2453  0.2646
 5406TIP3    H137853   3.130   3.700   8.083 -1.0244  0.2040 -1.4747
 5406TIP3    H237854   3.197   3.796   7.988 -0.5290  1.2489 -0.0765
 5407TIP3   OH237855   7.282   5.825   7.633 -0.1014  0.4205  0.2917
 5407TIP3    H137856   7.365   5.778   7.630 -0.5372 -0.2737 -1.7437
 5407TIP3    H237857   7.261   5.832   7.726  1.3109 -1.0353  0.7344
 5408TIP3   OH237858   0.880   4.181   1.606  0.6706  0.3394 -0.1353
 5408TIP3    H137859   0.933   4.242   1.555  1.0256 -0.2644 -0.4934
 5408TIP3    H237860   0.790   4.202   1.582  0.8971 -1.0406 -2.2959
 5409TIP3   OH237861   2.388   5.870   8.435 -0.4637 -0.6684 -0.7030
 5409TIP3    H137862   2.419   5.936   8.372 -0.3647 -1.5607 -1.6036
 5409TIP3    H237863   2.329   5.918   8.492  0.3216  0.4158 -0.7725
 5410TIP3   OH237864   6.285   4.813   0.392 -0.3509 -0.4371 -0.3594
 5410TIP3    H137865   6.251   4.727   0.415 -0.2397 -0.7812 -1.4551
 5410TIP3    H237866   6.280   4.817   0.296 -1.2260  1.1390 -0.2686
 5411TIP3   OH237867   1.745   2.551   1.141  0.1996 -0.4821  0.3034
 5411TIP3    H137868   1.764   2.551   1.048 -0.0426  1.5618  0.2457
 5411TIP3    H237869   1.773   2.637   1.172 -1.0104 -0.6129  1.8427
 5412TIP3   OH237870   3.760   2.820   8.291 -0.4955  0.1863 -0.0240
 5412TIP3    H137871   3.707   2.880   8.343 -1.2096  0.7810 -1.4184
 5412TIP3    H237872   3.769   2.862   8.206 -1.3910 -1.8357 -1.1815
 5413TIP3   OH237873   6.767   5.640   0.079  0.2283  0.2918  0.8422
 5413TIP3    H137874   6.772   5.734   0.057 -0.3483  0.5667  1.8641
 5413TIP3    H237875   6.684   5.631   0.126 -0.6851 -1.1121 -0.9853
 5414TIP3   OH237876   1.126   3.222   1.635 -0.1571  0.0112 -0.2958
 5414TIP3    H137877   1.122   3.266   1.550 -0.1442  0.3891 -0.1004
 5414TIP3    H237878   1.042   3.240   1.676 -0.5776 -1.0697 -0.6684
 5415TIP3   OH237879   7.047   4.722   7.636  0.1940 -0.2102 -0.4934
 5415TIP3    H137880   7.041   4.745   7.543  1.0654 -2.4664 -1.1339
 5415TIP3    H237881   6.957   4.708   7.663  0.0576 -1.1517 -1.4233
 5416TIP3   OH237882   1.899   5.074   0.455  0.2855  0.2152  0.0734
 5416TIP3    H137883   1.887   5.084   0.550  0.0065 -2.5159  0.3870
 5416TIP3    H237884   1.992   5.092   0.441  0.4761  0.0195  0.9964
 5417TIP3   OH237885   1.708   5.324   1.445  0.1228 -0.6150  0.5490
 5417TIP3    H137886   1.684   5.350   1.534  1.3228  1.0897  0.4078
 5417TIP3    H237887   1.794   5.283   1.454  0.9205  0.9087  0.0038
 5418TIP3   OH237888   0.905   6.503   1.656  0.1299 -0.9179 -0.3754
 5418TIP3    H137889   0.894   6.476   1.747  0.0703 -0.9830 -0.4021
 5418TIP3    H237890   0.982   6.455   1.626  1.5840  0.8773  0.3464
 5419TIP3   OH237891   0.275   6.762   1.651 -0.2195 -0.3643  0.3200
 5419TIP3    H137892   0.203   6.705   1.624 -0.6872  0.0243  0.7212
 5419TIP3    H237893   0.302   6.806   1.570  0.0035 -1.0025  0.0501
 5420TIP3   OH237894   6.767   4.331   1.589  0.3389 -0.3467  0.6623
 5420TIP3    H137895   6.710   4.270   1.544 -1.3478  1.0654  0.8321
 5420TIP3    H237896   6.855   4.308   1.559 -0.4991 -1.1774 -1.2342
 5421TIP3   OH237897   0.385   6.637   2.167  0.5105  0.0338 -0.5280
 5421TIP3    H137898   0.456   6.697   2.191 -0.4136  1.1565 -0.5936
 5421TIP3    H237899   0.373   6.650   2.073 -0.2103  0.2975 -0.3973
 5422TIP3   OH237900   5.729   4.391   1.836 -0.2191 -0.0804 -0.4741
 5422TIP3    H137901   5.725   4.327   1.907  1.9237  0.3810  0.1039
 5422TIP3    H237902   5.668   4.459   1.862 -0.5595 -0.6336  0.1914
 5423TIP3   OH237903   1.831   4.623   0.442  0.1207 -0.0404  0.3226
 5423TIP3    H137904   1.819   4.716   0.418 -0.6374 -0.6337 -1.7501
 5423TIP3    H237905   1.749   4.581   0.416 -0.1905 -1.0406  2.7820
 5424TIP3   OH237906   2.674   6.515   0.698  0.0696 -0.2414 -0.0853
 5424TIP3    H137907   2.595   6.518   0.752 -0.2189  1.3485 -0.5521
 5424TIP3    H237908   2.731   6.582   0.736  1.3229 -1.6039  0.4340
 5425TIP3   OH237909   1.220   6.848   0.904  0.7372 -0.4340  0.0745
 5425TIP3    H137910   1.315   6.862   0.912  0.5052  0.5593  1.2384
 5425TIP3    H237911   1.208   6.754   0.922  1.4478 -0.4547  0.4818
 5426TIP3   OH237912   1.287   5.624   7.494  0.0443  0.3773  0.4139
 5426TIP3    H137913   1.363   5.580   7.456  0.9782  0.7432  1.8089
 5426TIP3    H237914   1.216   5.559   7.488 -0.0298  0.6452 -2.4710
 5427TIP3   OH237915   1.568   5.642   1.651 -0.2964  0.2783 -0.2593
 5427TIP3    H137916   1.558   5.694   1.571  0.8586 -0.1247 -0.6721
 5427TIP3    H237917   1.569   5.707   1.721  0.0270  0.7347 -0.6784
 5428TIP3   OH237918   1.338   6.537   1.139 -0.7574  0.3674  0.2835
 5428TIP3    H137919   1.371   6.451   1.166 -1.7216 -0.1118 -0.0146
 5428TIP3    H237920   1.353   6.540   1.045 -1.3104  0.2432  0.1842
 5429TIP3   OH237921   6.954   4.172   0.301 -0.4652 -0.1687 -0.2124
 5429TIP3    H137922   6.993   4.231   0.365  0.5628 -1.6454  0.5726
 5429TIP3    H237923   7.025   4.154   0.239 -0.8352 -0.3846 -0.5784
 5430TIP3   OH237924   6.237   4.143   6.819 -0.3000 -0.6265 -0.4106
 5430TIP3    H137925   6.172   4.177   6.880  1.3331  0.9470  0.5178
 5430TIP3    H237926   6.227   4.196   6.741 -1.0995 -1.3703 -0.8271
 5431TIP3   OH237927   0.533   6.281   8.152 -0.4225 -0.0105  0.4383
 5431TIP3    H137928   0.586   6.360   8.136 -1.4722  0.8349  1.1134
 5431TIP3    H237929   0.588   6.210   8.118  0.5658  0.9867 -0.1394
 5432TIP3   OH237930   2.136   4.746   8.360  0.4220  0.4792 -0.4974
 5432TIP3    H137931   2.195   4.707   8.296 -0.3185  1.0790 -1.5499
 5432TIP3    H237932   2.194   4.794   8.420  1.1272 -0.2481 -0.5907
 5433TIP3   OH237933   2.392   6.093   1.285  0.4786  0.2006 -0.1254
 5433TIP3    H137934   2.434   6.048   1.358 -0.2113 -1.1174 -0.5239
 5433TIP3    H237935   2.445   6.069   1.209  0.8922  1.1477 -0.1363
 5434TIP3   OH237936   0.287   0.238   7.897 -0.2881  0.0672  0.2003
 5434TIP3    H137937   0.301   0.145   7.879  1.1870 -0.1484  2.2001
 5434TIP3    H237938   0.366   0.281   7.865 -1.7590  0.9232 -2.4243
 5435TIP3   OH237939   0.977   3.810   2.483 -0.0704 -0.2634  0.4176
 5435TIP3    H137940   0.985   3.724   2.441  1.3451  0.5877 -1.1170
 5435TIP3    H237941   0.901   3.851   2.442 -1.3034 -1.1185  1.8041
 5436TIP3   OH237942   6.532   3.668   1.569 -0.1898  0.0841 -0.7507
 5436TIP3    H137943   6.585   3.638   1.495  0.8351 -0.9455  0.3453
 5436TIP3    H237944   6.509   3.587   1.615  0.6773  0.7952  1.0051
 5437TIP3   OH237945   7.181   4.646   0.956  0.1750 -0.2056  0.1241
 5437TIP3    H137946   7.218   4.668   0.871 -0.1145 -0.9317 -0.1978
 5437TIP3    H237947   7.160   4.730   0.996 -1.6187  0.0859 -1.3893
 5438TIP3   OH237948   0.244   5.626   0.982 -0.0681  0.5092  0.0416
 5438TIP3    H137949   0.227   5.622   0.888  2.0761 -1.4367 -0.3143
 5438TIP3    H237950   0.164   5.595   1.023 -0.3506 -0.4885 -1.2419
 5439TIP3   OH237951   1.921   4.903   8.425 -0.3167 -0.0887  0.1802
 5439TIP3    H137952   1.985   4.973   8.442 -2.2814  1.4762  1.3124
 5439TIP3    H237953   1.853   4.917   8.490 -2.4384 -0.9630 -1.7936
 5440TIP3   OH237954   6.641   3.148   1.236 -0.1387 -0.1295 -0.9375
 5440TIP3    H137955   6.592   3.073   1.204 -0.1435 -1.0013  1.0590
 5440TIP3    H237956   6.594   3.176   1.314  1.3845  0.2680 -0.1359
 5441TIP3   OH237957   7.174   4.098   0.489 -0.0573 -0.7282 -0.5067
 5441TIP3    H137958   7.253   4.102   0.436 -0.8251 -2.1162 -1.7851
 5441TIP3    H237959   7.107   4.063   0.431 -2.0285  1.8226  0.1154
 5442TIP3   OH237960   2.194   4.890   2.035 -0.3686  0.4340 -0.3895
 5442TIP3    H137961   2.157   4.978   2.021 -3.9366 -0.7277  1.0545
 5442TIP3    H237962   2.143   4.833   1.978  0.2781 -1.0512  0.4948
 5443TIP3   OH237963   6.713   3.421   0.816 -0.0230  0.4972 -0.0332
 5443TIP3    H137964   6.791   3.366   0.813 -1.0895 -0.9679 -2.7634
 5443TIP3    H237965   6.645   3.365   0.852 -0.0331  1.5494  1.6554
 5444TIP3   OH237966   7.234   3.896   1.495 -0.2001 -0.3021 -0.4426
 5444TIP3    H137967   7.220   3.865   1.584 -1.7103  0.4947 -0.3766
 5444TIP3    H237968   7.315   3.854   1.466  0.9906  0.4227  1.7501
 5445TIP3   OH237969   6.629   5.949   0.389 -0.0226  0.1629  0.1928
 5445TIP3    H137970   6.692   5.912   0.451  2.2429  0.0480 -2.1100
 5445TIP3    H237971   6.646   6.043   0.391  2.6697 -0.1834 -2.9481
 5446TIP3   OH237972   0.511   4.988   1.601  0.0125  0.1919  0.2651
 5446TIP3    H137973   0.580   4.967   1.538 -1.8288  2.2431 -2.5943
 5446TIP3    H237974   0.544   5.064   1.649  0.9326 -0.6440  0.9715
 5447TIP3   OH237975   7.128   4.890   0.394 -0.3314 -0.3721 -0.4792
 5447TIP3    H137976   7.071   4.879   0.469  0.6096  0.7166  0.4257
 5447TIP3    H237977   7.204   4.834   0.412 -0.0876 -0.0845 -0.5946
 5448TIP3   OH237978   5.008   2.020   0.326  0.5006  0.0712  0.3796
 5448TIP3    H137979   4.926   2.043   0.368  0.5940  0.6623  0.2370
 5448TIP3    H237980   5.057   2.102   0.321  1.2316 -0.3305  0.7593
 5449TIP3   OH237981   0.491   4.898   1.987  0.4516  0.2564  0.1405
 5449TIP3    H137982   0.525   4.867   2.070 -0.5815  0.4711  0.6525
 5449TIP3    H237983   0.438   4.825   1.954  1.1484  0.0372 -0.5006
 5450TIP3   OH237984   5.951   5.628   1.611 -0.2402 -0.5087  0.0398
 5450TIP3    H137985   5.900   5.640   1.691  2.0026  0.1585  1.4141
 5450TIP3    H237986   5.971   5.535   1.609 -1.1748 -0.7067 -0.3061
 5451TIP3   OH237987   5.901   5.542   1.294 -0.6064  0.8727  0.3769
 5451TIP3    H137988   5.815   5.536   1.336 -0.8317  0.0487 -0.1954
 5451TIP3    H237989   5.940   5.455   1.307  0.5204  1.5358  1.4558
 5452TIP3   OH237990   6.291   4.286   0.130 -0.4831  0.0911  0.3826
 5452TIP3    H137991   6.336   4.336   0.198 -1.7337  1.1886  0.4211
 5452TIP3    H237992   6.346   4.297   0.052  0.8867 -1.0643  1.1564
 5453TIP3   OH237993   4.085   3.219   8.490  0.3232  0.4224 -0.4599
 5453TIP3    H137994   4.059   3.283   8.556 -0.5140 -0.7935  0.4075
 5453TIP3    H237995   4.038   3.139   8.513  2.5155 -0.9751 -0.6311
 5454TIP3   OH237996   1.043   3.415   1.987 -0.4178  0.1711 -0.2338
 5454TIP3    H137997   1.002   3.337   2.024 -0.5500  1.0229  1.4646
 5454TIP3    H237998   1.122   3.428   2.040 -0.5584  1.3500 -0.2930
 5455TIP3   OH237999   0.234   4.235   1.849 -0.1662 -0.4441  0.0788
 5455TIP3    H138000   0.323   4.226   1.815  0.4094  2.3928  0.7353
 5455TIP3    H238001   0.197   4.147   1.841  2.0843 -1.2853 -1.8668
 5456TIP3   OH238002   7.098   4.832   2.082 -0.0175 -0.3568  0.1049
 5456TIP3    H138003   7.061   4.915   2.053 -0.8379 -1.6563 -2.6831
 5456TIP3    H238004   7.190   4.851   2.098 -0.0296  0.9093 -1.2815
 5457TIP3   OH238005   4.883   5.248   0.678 -0.4419 -0.2861  0.4383
 5457TIP3    H138006   4.947   5.181   0.703 -0.8690 -1.1967 -0.8702
 5457TIP3    H238007   4.806   5.229   0.732 -0.6065 -0.9353 -0.0225
 5458TIP3   OH238008   6.357   5.348   0.723 -0.4386 -0.0361 -0.1053
 5458TIP3    H138009   6.277   5.300   0.744  0.6430 -1.7006  0.3434
 5458TIP3    H238010   6.390   5.377   0.808  0.1676 -0.5674 -0.1590
 5459TIP3   OH238011   1.542   5.223   0.002 -0.3095 -0.1820 -0.0291
 5459TIP3    H138012   1.624   5.230   0.051  0.2862  2.4601 -1.3107
 5459TIP3    H238013   1.549   5.140  -0.044  0.6576 -1.0361  1.6116
 5460TIP3   OH238014   0.694   6.032   8.100  0.1405 -0.0060 -0.1315
 5460TIP3    H138015   0.763   6.007   8.161  0.9092  0.5434 -0.7665
 5460TIP3    H238016   0.659   5.949   8.068  0.1563 -0.2904  0.5699
 5461TIP3   OH238017   3.973   7.046   1.028 -0.0512 -0.3411 -1.0043
 5461TIP3    H138018   4.022   7.106   0.971  2.3844  0.1644  1.5068
 5461TIP3    H238019   4.037   6.979   1.054 -1.2193 -0.8388  0.7086
 5462TIP3   OH238020   6.317   5.123   1.387 -0.1772 -0.8473  0.6641
 5462TIP3    H138021   6.270   5.062   1.330 -2.0301  0.8540  0.3146
 5462TIP3    H238022   6.256   5.139   1.459  0.7968 -0.3608  1.3860
 5463TIP3   OH238023   1.271   4.753   0.916 -0.4070  0.5584  0.1873
 5463TIP3    H138024   1.190   4.738   0.867 -0.4052  0.5846  0.1765
 5463TIP3    H238025   1.310   4.830   0.876 -1.0191  1.3219  1.0235
 5464TIP3   OH238026   5.461   4.791   7.702  0.1051 -0.5386 -1.0822
 5464TIP3    H138027   5.541   4.739   7.702 -0.5745 -1.5967 -1.8009
 5464TIP3    H238028   5.491   4.882   7.698  1.3569 -0.7177  2.3790
 5465TIP3   OH238029   0.148   6.518   1.901  0.6759 -0.5437 -0.0103
 5465TIP3    H138030   0.156   6.438   1.953  1.6723 -1.6338 -1.7764
 5465TIP3    H238031   0.123   6.586   1.964  0.4851 -2.1017  1.6281
 5466TIP3   OH238032   0.249   1.875   1.606  0.9011  0.5261 -0.4705
 5466TIP3    H138033   0.157   1.849   1.594  0.9977  0.3411 -0.8126
 5466TIP3    H238034   0.245   1.956   1.657  0.6225 -0.9403  1.9255
 5467TIP3   OH238035   7.270   3.221   1.413 -0.5769 -0.1323 -0.7984
 5467TIP3    H138036   7.269   3.315   1.430 -0.2142 -0.6192  2.0810
 5467TIP3    H238037   7.191   3.188   1.456  0.8270 -1.5396  0.7570
 5468TIP3   OH238038   2.363   3.542   0.898 -0.0296  0.2511 -0.3160
 5468TIP3    H138039   2.459   3.549   0.904 -0.0117 -0.8321  0.7864
 5468TIP3    H238040   2.332   3.631   0.915  0.6874  0.1301  1.7711
 5469TIP3   OH238041   1.858   6.193   1.250  0.2910 -0.3999  0.1348
 5469TIP3    H138042   1.948   6.160   1.244 -0.1628 -1.5380 -0.4890
 5469TIP3    H238043   1.825   6.158   1.333 -0.5214 -2.3868 -0.9951
 5470TIP3   OH238044   2.387   3.846   7.228 -0.0979  0.0723  0.6594
 5470TIP3    H138045   2.389   3.931   7.184 -0.6048 -0.9386 -1.3911
 5470TIP3    H238046   2.479   3.819   7.232 -0.0178  0.3286  0.5791
 5471TIP3   OH238047   0.588   4.164   0.733  0.9395 -0.5104  0.3180
 5471TIP3    H138048   0.605   4.077   0.696 -1.9376 -0.7882 -0.5081
 5471TIP3    H238049   0.568   4.148   0.825 -1.2512 -0.9899 -0.1996
 5472TIP3   OH238050   2.315   4.366   1.955 -0.6466  0.2374 -0.2547
 5472TIP3    H138051   2.306   4.405   2.042 -0.3009 -0.0776 -0.0802
 5472TIP3    H238052   2.290   4.437   1.895  0.4817  0.8873  0.0359
 5473TIP3   OH238053   0.379   5.027   0.907 -0.3473  0.0185  0.6077
 5473TIP3    H138054   0.373   5.117   0.939 -1.9722  0.1155  0.0606
 5473TIP3    H238055   0.289   5.001   0.889  0.2371 -1.2073 -0.7004
 5474TIP3   OH238056   6.612   5.002   0.838  0.2250  0.1260  0.3461
 5474TIP3    H138057   6.689   4.948   0.855  0.7786  0.8473  0.1195
 5474TIP3    H238058   6.635   5.054   0.761  0.4216  2.0624  1.6842
 5475TIP3   OH238059   1.144   4.899   7.332  0.6037 -0.1049 -0.4907
 5475TIP3    H138060   1.064   4.951   7.329  0.8589  0.4866  1.9143
 5475TIP3    H238061   1.208   4.949   7.281  0.0138  0.4492 -0.6864
 5476TIP3   OH238062   7.275   5.240   0.850  0.5079 -0.5029 -0.5163
 5476TIP3    H138063   7.235   5.266   0.934  0.6322  3.0013 -1.4539
 5476TIP3    H238064   7.366   5.269   0.857  0.0665  1.4894 -2.5139
 5477TIP3   OH238065   1.133   5.079   1.124  0.0253 -0.4464 -0.1293
 5477TIP3    H138066   1.216   5.113   1.155  0.1116 -0.4726 -0.3303
 5477TIP3    H238067   1.143   5.073   1.029 -0.4698  0.2722 -0.2317
 5478TIP3   OH238068   0.474   4.971   7.788 -0.2779 -0.1203  0.5335
 5478TIP3    H138069   0.383   4.954   7.765 -0.3850 -0.9333  1.4902
 5478TIP3    H238070   0.524   4.925   7.721 -0.5795 -3.6479  2.5734
 5479TIP3   OH238071   1.497   4.230   1.334  0.4108  0.5842  0.1116
 5479TIP3    H138072   1.501   4.303   1.273 -0.8487 -1.3457 -2.3519
 5479TIP3    H238073   1.408   4.234   1.370  0.6116  0.7499  0.5928
 5480TIP3   OH238074   0.054   3.783   0.701  0.2880 -0.4199 -0.0291
 5480TIP3    H138075  -0.040   3.768   0.693 -0.1972  1.9050  0.9670
 5480TIP3    H238076   0.094   3.713   0.649 -1.9070 -2.8938  1.4769
 5481TIP3   OH238077   1.599   4.680   1.099  0.0853 -0.1436  0.1163
 5481TIP3    H138078   1.692   4.664   1.112  0.0732 -1.3280 -1.0953
 5481TIP3    H238079   1.586   4.667   1.005 -0.9905  1.7036 -0.0204
 5482TIP3   OH238080   1.630   3.361   0.865  0.3162  0.5915 -0.4079
 5482TIP3    H138081   1.627   3.281   0.813 -0.1275  1.0572 -1.1145
 5482TIP3    H238082   1.632   3.432   0.800  1.9456  1.1241  0.1866
 5483TIP3   OH238083   6.965   2.577   1.628 -0.1550  0.0177 -0.5611
 5483TIP3    H138084   6.883   2.531   1.609 -0.6156  0.1583  1.0368
 5483TIP3    H238085   6.941   2.645   1.690  1.7273 -2.1586  2.6798
 5484TIP3   OH238086   7.054   5.973   0.847  0.7901  0.0387  0.0068
 5484TIP3    H138087   7.013   5.896   0.887  0.1890  0.7038  0.6714
 5484TIP3    H238088   7.002   6.047   0.878  1.9174  0.7973  0.1031
 5485TIP3   OH238089   6.817   4.662   7.405  0.1587  0.8545  0.4939
 5485TIP3    H138090   6.855   4.586   7.450  1.8235  1.2260 -0.2564
 5485TIP3    H238091   6.724   4.657   7.425  0.0642 -2.0370 -0.4519
 5486TIP3   OH238092   1.040   5.387   6.659 -0.3623 -0.4105 -0.3232
 5486TIP3    H138093   0.977   5.448   6.696  0.6624  0.7068 -0.3813
 5486TIP3    H238094   1.042   5.408   6.565  0.5108 -0.0434 -0.2296
 5487TIP3   OH238095   0.445   4.837   8.089  0.0518 -0.2186 -0.2915
 5487TIP3    H138096   0.419   4.899   8.021  1.8935  0.4565 -0.3925
 5487TIP3    H238097   0.368   4.781   8.100 -0.9259  0.8194 -1.6058
 5488TIP3   OH238098   0.364   4.455   1.331 -0.0700  0.3736 -0.5134
 5488TIP3    H138099   0.366   4.484   1.240  1.0804 -3.7080 -1.8679
 5488TIP3    H238100   0.452   4.473   1.363  0.9878 -2.4859 -1.6881
 5489TIP3   OH238101   0.713   4.081   7.305  0.1371 -0.4346 -0.0203
 5489TIP3    H138102   0.619   4.063   7.307 -0.7453  3.3992 -1.6919
 5489TIP3    H238103   0.719   4.175   7.285  4.2924 -0.1088  2.1200
 5490TIP3   OH238104   1.959   2.550   6.956  0.6255 -0.0919  0.0985
 5490TIP3    H138105   1.940   2.459   6.975 -1.0129  0.3220  0.5264
 5490TIP3    H238106   1.996   2.585   7.037 -1.0722  0.2305  0.7661
 5491TIP3   OH238107   0.023   3.019   2.108  0.0113  0.0638  0.9275
 5491TIP3    H138108   0.026   3.053   2.198  0.1483  1.4943  0.3954
 5491TIP3    H238109   0.023   2.924   2.119 -0.1552  0.2165  2.4506
 5492TIP3   OH238110   0.011   2.675   1.600 -0.3441  0.1127  0.1510
 5492TIP3    H138111  -0.073   2.711   1.571 -0.6644 -0.2912  0.5782
 5492TIP3    H238112   0.001   2.663   1.694 -0.1397 -0.8272  0.0623
 5493TIP3   OH238113   6.258   4.650   8.302  0.3396  0.2880  0.0451
 5493TIP3    H138114   6.322   4.714   8.270  0.9915  0.0280  0.8076
 5493TIP3    H238115   6.281   4.568   8.259 -0.8900  0.6832 -1.4290
 5494TIP3   OH238116   5.712   6.436   1.406 -0.3698  0.3924 -0.3247
 5494TIP3    H138117   5.765   6.469   1.478  0.8762 -2.1692 -0.0060
 5494TIP3    H238118   5.625   6.472   1.421  0.7492  2.9975  0.2958
 5495TIP3   OH238119   5.786   4.442   1.154  0.1941 -0.1206  0.3056
 5495TIP3    H138120   5.827   4.429   1.239 -0.6990 -0.1639  0.7408
 5495TIP3    H238121   5.700   4.400   1.162 -0.2349  0.6141 -0.3272
 5496TIP3   OH238122   1.273   5.961   0.173 -0.1496  0.5610 -0.1614
 5496TIP3    H138123   1.356   5.928   0.138  0.5868 -0.5296  2.5136
 5496TIP3    H238124   1.295   6.046   0.212 -0.9489  1.7270 -2.1655
 5497TIP3   OH238125   1.819   4.624   8.198 -0.3791  0.3332 -0.2365
 5497TIP3    H138126   1.799   4.546   8.249 -0.1885 -0.4046 -1.2593
 5497TIP3    H238127   1.781   4.606   8.112 -3.2783  2.7655  0.4414
 5498TIP3   OH238128   1.091   6.206   6.247  0.0606  0.1498  0.2257
 5498TIP3    H138129   1.054   6.188   6.161  2.7291  1.7214 -1.3133
 5498TIP3    H238130   1.095   6.302   6.252 -0.3872  0.0951  2.2617
 5499TIP3   OH238131   2.669   4.369   1.406 -0.9784  0.1069 -0.9033
 5499TIP3    H138132   2.604   4.437   1.391 -1.4311  0.1231  0.9628
 5499TIP3    H238133   2.743   4.415   1.445 -1.3941 -0.4698  0.6281
 5500TIP3   OH238134   1.154   4.381   1.174  0.0961 -0.1612 -0.4006
 5500TIP3    H138135   1.093   4.449   1.204  0.3939  0.5022 -1.2598
 5500TIP3    H238136   1.155   4.391   1.079  0.2578 -1.2856 -0.5190
 5501TIP3   OH238137   6.155   5.596   1.159 -0.1863 -0.3582 -0.1599
 5501TIP3    H138138   6.095   5.551   1.217 -0.9488  0.2575 -0.4708
 5501TIP3    H238139   6.173   5.679   1.202  1.0904 -0.8632  0.3311
 5502TIP3   OH238140   6.130   6.644   0.234 -0.0928  0.0421 -0.4072
 5502TIP3    H138141   6.162   6.569   0.285 -1.8818 -2.4917 -2.8485
 5502TIP3    H238142   6.198   6.660   0.169  1.5848  2.4408  1.8108
 5503TIP3   OH238143   7.278   5.374   1.993  0.5616 -0.3038 -0.2692
 5503TIP3    H138144   7.218   5.435   2.037  1.9753  2.5024 -2.0687
 5503TIP3    H238145   7.362   5.387   2.038  1.1501 -0.0649 -1.4231
 5504TIP3   OH238146   0.834   6.774   1.769 -0.6095  0.2800 -0.1376
 5504TIP3    H138147   0.752   6.724   1.763 -0.3913 -0.4456  2.3076
 5504TIP3    H238148   0.895   6.726   1.713 -1.4655 -0.0178 -0.8219
 5505TIP3   OH238149   0.004   6.732   7.837 -0.0653  0.6859 -0.2650
 5505TIP3    H138150  -0.057   6.768   7.902  1.4517  0.2006  1.4586
 5505TIP3    H238151   0.012   6.802   7.771 -0.4445  1.8108  0.8519
 5506TIP3   OH238152   4.933   4.917   1.105  0.2126  0.0195  0.0366
 5506TIP3    H138153   4.839   4.896   1.109  0.4150 -0.7926  0.6259
 5506TIP3    H238154   4.943   4.992   1.164  0.0102 -0.2066  0.3664
 5507TIP3   OH238155   0.728   4.993   7.079 -0.7207 -0.3359  0.0333
 5507TIP3    H138156   0.633   5.005   7.086 -0.8907 -0.5449 -1.6609
 5507TIP3    H238157   0.758   5.069   7.030 -0.3262 -1.3549 -1.3346
 5508TIP3   OH238158   1.398   3.886   1.397  0.0899  0.1806  0.2596
 5508TIP3    H138159   1.348   3.809   1.368 -0.4859  0.0424  1.5927
 5508TIP3    H238160   1.356   3.960   1.353 -0.9952  0.0117  1.0144
 5509TIP3   OH238161   1.185   1.786   1.746  0.2336  0.3459 -0.5608
 5509TIP3    H138162   1.170   1.865   1.799  0.0550 -1.4361  2.1426
 5509TIP3    H238163   1.109   1.781   1.688 -0.2751  1.5601 -0.0111
 5510TIP3   OH238164   1.689   5.589   1.085 -0.7840 -0.2107  0.0782
 5510TIP3    H138165   1.752   5.519   1.069  0.6593  1.0817  0.1104
 5510TIP3    H238166   1.641   5.560   1.163  0.6336 -0.5837  0.8240
 5511TIP3   OH238167   1.812   6.999   0.340  0.7325  0.2642 -0.6511
 5511TIP3    H138168   1.858   7.062   0.284 -0.8913  0.9485 -1.2291
 5511TIP3    H238169   1.803   7.044   0.424  0.9510  0.1982 -0.5912
 5512TIP3   OH238170   0.038   4.632   1.364 -0.2901 -0.2281  0.3252
 5512TIP3    H138171   0.118   4.676   1.335 -0.3353 -0.6181 -0.4024
 5512TIP3    H238172   0.046   4.630   1.460  0.2552  0.3275  0.2971
 5513TIP3   OH238173   6.860   6.530   7.613 -0.5102  0.2089  0.3452
 5513TIP3    H138174   6.879   6.599   7.549 -1.5942  0.2531  0.0510
 5513TIP3    H238175   6.765   6.532   7.622 -0.4536 -0.5058  1.1776
 5514TIP3   OH238176   5.830   4.154   1.232  0.1199 -0.6278 -0.0632
 5514TIP3    H138177   5.743   4.115   1.242  0.7403 -1.8830  0.6325
 5514TIP3    H238178   5.866   4.113   1.153  0.8240 -1.5982  0.7410
 5515TIP3   OH238179   1.433   4.242   0.423  0.2244  0.0232  0.1378
 5515TIP3    H138180   1.450   4.171   0.361  2.8624 -0.3215  1.1958
 5515TIP3    H238181   1.409   4.198   0.505 -3.3720  0.4790 -0.5722
 5516TIP3   OH238182   6.996   4.011   1.416  0.4470 -0.9428 -0.5121
 5516TIP3    H138183   7.087   4.000   1.443  0.5333 -1.4784 -1.0039
 5516TIP3    H238184   6.951   3.936   1.456 -0.1826  0.4803  1.5011
 5517TIP3   OH238185   1.239   4.598   1.428 -0.0362 -0.1559 -0.2589
 5517TIP3    H138186   1.333   4.589   1.417  0.0583  0.6151 -0.1296
 5517TIP3    H238187   1.214   4.669   1.368 -0.3091  0.5964  0.7348
 5518TIP3   OH238188   0.370   0.111   8.151  0.2457  0.3646  0.8777
 5518TIP3    H138189   0.349   0.019   8.135  1.1848  0.3800 -0.5322
 5518TIP3    H238190   0.333   0.157   8.075 -0.4207  1.1895  1.6849
 5519TIP3   OH238191   3.953   6.341   7.262 -0.2704  0.0149  0.3035
 5519TIP3    H138192   3.940   6.372   7.352  2.4926  1.7766  0.1726
 5519TIP3    H238193   3.904   6.404   7.208  0.2444  0.5249  0.4249
 5520TIP3   OH238194   1.199   4.415   1.997 -0.1511 -0.2731 -0.3000
 5520TIP3    H138195   1.141   4.397   2.071 -1.2444 -0.4146 -1.1905
 5520TIP3    H238196   1.142   4.448   1.928  0.9464  0.4592 -0.8888
 5521TIP3   OH238197   7.181   4.374   1.938  0.6977 -0.1529  0.0076
 5521TIP3    H138198   7.109   4.424   1.898  0.6736  0.2575  0.5620
 5521TIP3    H238199   7.137   4.303   1.985  0.7166 -0.5344 -0.5414
 5522TIP3   OH238200   1.046   3.995   2.920  0.0913 -0.4736 -0.0410
 5522TIP3    H138201   1.069   3.945   2.842  0.5755  0.6984 -0.6581
 5522TIP3    H238202   1.014   3.929   2.982 -1.2055 -1.3039 -1.5564
 5523TIP3   OH238203   7.205   4.004   1.879  0.2126  0.2140 -0.4250
 5523TIP3    H138204   7.185   4.062   1.806  1.0506  0.8517 -0.1563
 5523TIP3    H238205   7.136   4.021   1.944 -1.5131 -1.5733 -1.7316
 5524TIP3   OH238206   0.515   3.480   1.356 -0.2044 -0.0579  0.6874
 5524TIP3    H138207   0.502   3.432   1.274  1.4763  1.0869 -0.2942
 5524TIP3    H238208   0.609   3.469   1.375 -0.5967 -0.4055  2.5344
 5525TIP3   OH238209   6.744   3.052   2.159 -0.4155  0.3391 -0.5141
 5525TIP3    H138210   6.736   3.146   2.148 -0.4044  0.7248  2.2488
 5525TIP3    H238211   6.839   3.036   2.159 -0.3231  0.7244  1.5387
 5526TIP3   OH238212   1.324   3.125   1.804  0.2640 -0.0449 -0.3854
 5526TIP3    H138213   1.288   3.204   1.763  0.7357  1.2598  1.6737
 5526TIP3    H238214   1.256   3.095   1.864 -0.5183 -2.0951 -2.2025
 5527TIP3   OH238215   1.049   2.747   1.634 -0.1780 -0.0511  0.1749
 5527TIP3    H138216   0.979   2.740   1.570  0.0890 -0.3425 -0.0914
 5527TIP3    H238217   1.119   2.794   1.588 -0.4718  0.8790  0.6749
 5528TIP3   OH238218   2.945   4.950   1.488 -0.0478  0.4636  0.8099
 5528TIP3    H138219   2.888   4.998   1.428 -0.1180 -1.2032 -0.4940
 5528TIP3    H238220   2.898   4.950   1.571 -1.1827  0.5627  0.1829
 5529TIP3   OH238221   6.834   4.891   8.246 -0.1264 -0.8881 -0.5462
 5529TIP3    H138222   6.801   4.846   8.168 -1.4668 -1.3657  0.2802
 5529TIP3    H238223   6.770   4.960   8.262  1.1582  0.4124 -0.9626
 5530TIP3   OH238224   1.340   5.716   1.273 -0.0703 -0.0358  0.0016
 5530TIP3    H138225   1.380   5.803   1.277 -1.1324  0.5028 -0.6827
 5530TIP3    H238226   1.308   5.701   1.362  0.3433  0.1560  0.1879
 5531TIP3   OH238227   7.086   5.598   7.604  0.2119  1.0073 -0.6091
 5531TIP3    H138228   7.141   5.554   7.539  1.6364  2.8931 -0.7235
 5531TIP3    H238229   7.004   5.548   7.604  2.1533 -2.3172  0.0906
 5532TIP3   OH238230   1.945   5.197   1.505  0.5375  0.4062  0.3863
 5532TIP3    H138231   2.024   5.194   1.452  0.8642 -0.8976  0.9298
 5532TIP3    H238232   1.959   5.269   1.566  0.3741  1.5835 -0.9400
 5533TIP3   OH238233   1.156   6.991   1.923  0.3882  0.3123  0.1691
 5533TIP3    H138234   1.129   6.899   1.928  2.2679 -0.4452 -2.4891
 5533TIP3    H238235   1.083   7.039   1.962  0.0928 -2.3755  3.1820
 5534TIP3   OH238236   2.486   6.321   0.894 -0.1226 -0.2024 -0.2835
 5534TIP3    H138237   2.496   6.411   0.925  0.1630 -0.1504 -0.5128
 5534TIP3    H238238   2.392   6.309   0.884 -0.2325 -0.3355  0.9117
 5535TIP3   OH238239   0.227   3.498   1.982 -0.2982  0.0098 -0.0393
 5535TIP3    H138240   0.213   3.526   1.891  0.3342 -0.7073 -0.3549
 5535TIP3    H238241   0.222   3.403   1.979  1.7262 -0.1286  0.3350
 5536TIP3   OH238242   1.542   4.351   1.639 -0.6025  0.2278 -0.4230
 5536TIP3    H138243   1.592   4.363   1.558 -0.4885  1.2943 -0.2146
 5536TIP3    H238244   1.451   4.349   1.611 -0.6122  1.3728 -0.5247
 5537TIP3   OH238245   2.361   5.176   7.657 -0.3489  0.0232 -0.1168
 5537TIP3    H138246   2.338   5.150   7.568  0.1973  0.5268 -0.4114
 5537TIP3    H238247   2.278   5.184   7.703 -0.6354 -0.1712 -0.6009
 5538TIP3   OH238248   1.013   3.975   1.325 -0.2374 -0.3909 -0.2048
 5538TIP3    H138249   0.948   3.909   1.302 -2.3427  1.4582  0.1945
 5538TIP3    H238250   0.997   3.993   1.418 -0.3926  1.3665 -0.5397
 5539TIP3   OH238251   2.905   3.220   7.689 -0.1568  0.5762  0.5618
 5539TIP3    H138252   2.833   3.230   7.627  0.8170 -0.5186 -0.7673
 5539TIP3    H238253   2.878   3.271   7.765 -2.8708 -0.7757  0.5607
 5540TIP3   OH238254   0.583   4.719   1.163 -0.2264 -0.0662 -0.0257
 5540TIP3    H138255   0.505   4.770   1.182 -0.5714 -0.4416 -0.4153
 5540TIP3    H238256   0.550   4.636   1.128  0.3673  0.1750 -1.1987
 5541TIP3   OH238257   0.631   6.208   6.261  0.5483 -0.3707 -0.2858
 5541TIP3    H138258   0.565   6.182   6.325 -0.6540  1.3273 -0.7668
 5541TIP3    H238259   0.675   6.127   6.237 -0.6549 -1.3896  0.8508
 5542TIP3   OH238260   1.594   6.427   1.419 -0.2749  0.5318  0.5106
 5542TIP3    H138261   1.570   6.339   1.391  0.8981  0.6148 -0.8477
 5542TIP3    H238262   1.642   6.414   1.501  1.2595 -0.2613 -0.4854
 5543TIP3   OH238263   3.241   4.873   1.073 -0.2537  0.0331  0.0698
 5543TIP3    H138264   3.332   4.877   1.102 -0.2881  0.4589  0.1136
 5543TIP3    H238265   3.229   4.782   1.045  0.2743  0.0536 -0.2318
 5544TIP3   OH238266   3.380   2.917   0.680  0.5547  0.1715  0.4194
 5544TIP3    H138267   3.313   2.961   0.627  0.2740 -1.7971 -0.9294
 5544TIP3    H238268   3.348   2.924   0.770 -2.8174 -2.9028 -0.4206
 5545TIP3   OH238269   0.622   5.388   1.811  0.2968  0.2742 -0.4337
 5545TIP3    H138270   0.583   5.424   1.891  1.4415 -0.2833  0.3821
 5545TIP3    H238271   0.616   5.293   1.822 -0.4158  0.2016 -1.4457
 5546TIP3   OH238272   2.060   4.469   0.797 -0.2457 -0.9153  0.5084
 5546TIP3    H138273   2.063   4.563   0.809 -0.7100 -0.4753 -2.4247
 5546TIP3    H238274   1.974   4.443   0.831  0.1282 -0.3964  1.8707
 5547TIP3   OH238275   2.836   3.812   2.126 -0.1901 -0.5925  0.0709
 5547TIP3    H138276   2.832   3.906   2.108 -1.4162 -0.4837  0.9270
 5547TIP3    H238277   2.826   3.805   2.220  1.8446 -1.4709  0.2420
 5548TIP3   OH238278   6.409   4.349   1.945 -0.4532 -0.2330  0.1044
 5548TIP3    H138279   6.342   4.378   2.007 -0.1550 -0.8684  0.7220
 5548TIP3    H238280   6.434   4.429   1.898 -0.2768  0.3652  1.1982
 5549TIP3   OH238281   3.420   4.764   1.681  0.2357  0.4085 -0.5095
 5549TIP3    H138282   3.355   4.825   1.646  0.0114  0.0495 -0.7280
 5549TIP3    H238283   3.381   4.729   1.760  1.2055  2.0453  0.7151
 5550TIP3   OH238284   1.875   5.024   1.307  0.2896  0.0613  0.2373
 5550TIP3    H138285   1.932   5.097   1.284  1.0236 -0.2628  0.9833
 5550TIP3    H238286   1.850   5.040   1.398 -0.2137 -0.1780  0.1404
 5551TIP3   OH238287   0.261   4.312   0.748 -0.2967  0.1236 -0.3759
 5551TIP3    H138288   0.290   4.221   0.739  0.2770  0.1929  0.6253
 5551TIP3    H238289   0.176   4.314   0.706  0.9906 -0.1703 -3.0626
 5552TIP3   OH238290   6.453   5.474   2.061 -0.1228 -0.0904  0.0588
 5552TIP3    H138291   6.473   5.487   2.153 -1.2388 -0.7842  0.4045
 5552TIP3    H238292   6.509   5.536   2.015  1.9111 -1.1169  1.0848
 5553TIP3   OH238293   2.671   4.872   1.243 -0.1215 -0.1974 -0.3415
 5553TIP3    H138294   2.633   4.950   1.202 -1.3072  0.1473  1.3149
 5553TIP3    H238295   2.765   4.888   1.242 -0.2599  0.6211 -1.2736
 5554TIP3   OH238296   4.471   4.437   1.383  0.3770  0.5469 -0.9476
 5554TIP3    H138297   4.515   4.522   1.389 -1.1369  1.2717  0.1469
 5554TIP3    H238298   4.428   4.438   1.298  0.8647  0.6058 -1.1992
 5555TIP3   OH238299   5.052   3.639   0.251 -0.1320  0.3332 -0.0771
 5555TIP3    H138300   5.129   3.598   0.291  0.1758 -0.4753 -1.4722
 5555TIP3    H238301   5.087   3.713   0.201 -0.3714  0.5462  0.0680
 5556TIP3   OH238302   5.932   0.065   8.076 -0.3595  0.3884 -0.4458
 5556TIP3    H138303   5.953   0.012   8.152 -0.7169  1.3447  0.3325
 5556TIP3    H238304   6.017   0.083   8.035  0.0508  1.5917  0.8905
 5557TIP3   OH238305   6.831   3.306   2.352 -0.1221  0.0041 -0.6511
 5557TIP3    H138306   6.752   3.275   2.396  0.7551 -2.0515 -0.4634
 5557TIP3    H238307   6.882   3.348   2.421  0.2120 -1.1599 -0.1899
 5558TIP3   OH238308   5.523   5.088   1.339 -0.4608 -0.3002  0.4491
 5558TIP3    H138309   5.541   5.006   1.384 -0.9782 -1.4898 -1.4671
 5558TIP3    H238310   5.550   5.073   1.248 -1.8630  1.1598 -0.2395
 5559TIP3   OH238311   6.692   7.181   0.338  0.1190  0.3331  0.5385
 5559TIP3    H138312   6.759   7.186   0.271  0.9434  0.4323  1.3626
 5559TIP3    H238313   6.698   7.264   0.385 -0.9679  0.5853  0.2628
 5560TIP3   OH238314   0.526   4.180   0.386 -0.4718 -0.0796 -0.7714
 5560TIP3    H138315   0.460   4.247   0.401  0.2415  0.4248  0.1582
 5560TIP3    H238316   0.504   4.111   0.449  0.8297  0.7903  0.6550
 5561TIP3   OH238317   2.721   5.357   8.204  0.2530  0.0373  0.5435
 5561TIP3    H138318   2.693   5.424   8.141  1.5402  0.7882  0.7504
 5561TIP3    H238319   2.652   5.291   8.200 -1.0285  1.3542  0.3039
 5562TIP3   OH238320   1.122   4.138   0.214 -0.4194  0.1510  0.3748
 5562TIP3    H138321   1.030   4.124   0.189  0.8553 -2.4162 -3.3944
 5562TIP3    H238322   1.147   4.058   0.259 -0.2490  1.2182  2.2090
 5563TIP3   OH238323   0.537   6.635   0.546 -0.1689  0.5088  0.1634
 5563TIP3    H138324   0.490   6.698   0.602 -0.0880  1.6342 -1.0031
 5563TIP3    H238325   0.613   6.685   0.514 -0.3535 -0.0513 -1.1431
 5564TIP3   OH238326   6.158   5.193   1.608 -0.4140 -0.2294 -0.0003
 5564TIP3    H138327   6.188   5.202   1.699 -0.9511  1.9597 -0.0162
 5564TIP3    H238328   6.075   5.241   1.605 -0.8586 -1.0577 -1.4356
 5565TIP3   OH238329   1.473   4.820   1.460 -0.8105  0.0857 -0.3831
 5565TIP3    H138330   1.506   4.909   1.450 -3.0936  0.7050 -3.3233
 5565TIP3    H238331   1.406   4.826   1.528 -3.0609  1.3084 -2.6251
 5566TIP3   OH238332   2.743   5.143   1.397  0.2363 -0.3563 -0.2060
 5566TIP3    H138333   2.785   5.197   1.464 -1.5840  1.6927 -0.6186
 5566TIP3    H238334   2.653   5.133   1.428  0.0549 -1.5600 -1.0921
 5567TIP3   OH238335   6.820   6.418   0.520  0.0825  0.0193  0.0288
 5567TIP3    H138336   6.800   6.414   0.614  0.3319 -0.3249  0.0663
 5567TIP3    H238337   6.799   6.508   0.495 -0.0204  0.1008  0.4088
 5568TIP3   OH238338   0.350   0.069   7.581  0.5355  0.1216 -0.4647
 5568TIP3    H138339   0.254   0.063   7.581  0.4248  1.5704  0.2878
 5568TIP3    H238340   0.371   0.111   7.665  1.8363 -0.2206 -0.6066
 5569TIP3   OH238341   0.415   5.270   1.037 -0.4281  0.4833 -0.6452
 5569TIP3    H138342   0.468   5.329   1.090 -1.0516  0.4109  0.0704
 5569TIP3    H238343   0.332   5.264   1.084 -0.6587 -0.3179 -1.1460
 5570TIP3   OH238344   7.167   4.019   0.745  0.2488  0.1333 -0.0976
 5570TIP3    H138345   7.158   4.039   0.651 -1.8073 -1.2508 -0.2290
 5570TIP3    H238346   7.196   3.928   0.748  1.0464  0.4048  0.6221
 5571TIP3   OH238347   0.233   2.913   1.392 -0.4822 -0.2731  0.4661
 5571TIP3    H138348   0.279   2.828   1.394  0.5270  0.2707  0.7382
 5571TIP3    H238349   0.180   2.913   1.472 -2.0026 -1.4687 -0.5200
 5572TIP3   OH238350   1.338   5.588   8.498 -0.4851  0.6740 -0.0863
 5572TIP3    H138351   1.260   5.639   8.475  0.0372  1.7786  0.5558
 5572TIP3    H238352   1.336   5.513   8.438 -2.3100  0.4084  0.2547
 5573TIP3   OH238353   4.538   5.286   0.069  0.0634  0.3497  0.2335
 5573TIP3    H138354   4.560   5.193   0.063  2.3900  0.6314  3.2169
 5573TIP3    H238355   4.496   5.295   0.155  0.5572  2.1521  0.3081
 5574TIP3   OH238356   0.460   4.186   1.279 -0.4392 -0.0454 -0.1955
 5574TIP3    H138357   0.440   4.279   1.278  1.0099  0.3662  3.0095
 5574TIP3    H238358   0.375   4.143   1.294 -1.2772  0.6414 -2.7791
 5575TIP3   OH238359   1.029   4.626   7.911 -0.1781 -0.6283 -0.4693
 5575TIP3    H138360   1.038   4.574   7.831  1.1678  1.0560 -1.4544
 5575TIP3    H238361   0.984   4.706   7.882  0.1620 -0.0839  0.4861
 5576TIP3   OH238362   0.377   4.942   0.465 -0.0942  0.0425  0.1171
 5576TIP3    H138363   0.308   4.901   0.515  0.3238 -1.1268 -0.2511
 5576TIP3    H238364   0.333   5.010   0.413 -0.7093  0.3765  1.0736
 5577TIP3   OH238365   3.468   4.804   0.042 -0.1370 -0.8083 -0.2285
 5577TIP3    H138366   3.536   4.761  -0.011 -1.0673 -0.8315 -1.4200
 5577TIP3    H238367   3.413   4.732   0.074  1.2859 -0.9343  2.0450
 5578TIP3   OH238368   4.192   5.148   7.937  0.2410 -0.1047 -0.0912
 5578TIP3    H138369   4.216   5.222   7.881 -2.5318  1.0000  0.1070
 5578TIP3    H238370   4.113   5.111   7.897 -0.0319 -1.1962  1.3867
 5579TIP3   OH238371   4.797   5.908   8.106  0.0366 -0.0704  0.1343
 5579TIP3    H138372   4.848   5.848   8.051  0.1360 -0.9502  1.1612
 5579TIP3    H238373   4.816   5.879   8.195  0.8216  2.1007  0.6876
 5580TIP3   OH238374   7.110   2.823   1.501 -0.0254 -0.3105  0.0412
 5580TIP3    H138375   7.080   2.911   1.480  0.6306  0.2022  1.2690
 5580TIP3    H238376   7.069   2.767   1.434 -3.4320  0.4150  1.4697
 5581TIP3   OH238377   0.336   5.765   8.366 -0.5629 -0.3069 -0.9112
 5581TIP3    H138378   0.304   5.852   8.389  1.1542  0.5818 -1.8115
 5581TIP3    H238379   0.375   5.732   8.447 -3.0273 -1.1172  0.0074
 5582TIP3   OH238380   0.031   6.484   7.425 -0.6368  0.0695 -0.0434
 5582TIP3    H138381  -0.014   6.400   7.428 -0.6243 -0.0055 -1.4042
 5582TIP3    H238382   0.107   6.473   7.481 -1.1679 -0.5083  0.5663
 5583TIP3   OH238383   2.508   6.652   7.678 -0.1579 -0.1040  0.5610
 5583TIP3    H138384   2.498   6.587   7.748  1.9015  0.5341  1.4909
 5583TIP3    H238385   2.512   6.736   7.723 -1.9589  0.6220 -0.5806
 5584TIP3   OH238386   0.880   6.047   1.079 -0.1049  0.3053  0.0300
 5584TIP3    H138387   0.829   5.992   1.138  0.8648  0.0116  0.6041
 5584TIP3    H238388   0.815   6.086   1.020 -0.9351 -0.4238  0.4524
 5585TIP3   OH238389   0.525   7.055   6.683 -0.5365 -0.4237  0.7103
 5585TIP3    H138390   0.497   7.019   6.599  1.7568  1.6627 -1.0395
 5585TIP3    H238391   0.458   7.120   6.705 -0.4938 -0.0909 -0.1487
 5586TIP3   OH238392   1.114   4.802   1.906  0.0628 -0.4844  0.0899
 5586TIP3    H138393   1.164   4.854   1.844 -0.6385  0.1678  0.0609
 5586TIP3    H238394   1.137   4.838   1.992 -1.3459  0.6945 -0.0109
 5587TIP3   OH238395   2.489   5.175   1.471 -0.4113  0.0314 -0.0279
 5587TIP3    H138396   2.532   5.195   1.554  0.2096 -0.1529 -0.3022
 5587TIP3    H238397   2.443   5.256   1.448 -0.4441  0.1374  0.4095
 5588TIP3   OH238398   1.420   4.976   1.194 -0.7956 -0.0902  0.0391
 5588TIP3    H138399   1.456   4.950   1.279 -1.1800 -0.2979  0.1391
 5588TIP3    H238400   1.381   4.896   1.159  0.4920 -0.3271 -0.9161
 5589TIP3   OH238401   0.670   3.442   0.927  0.4900 -0.2393 -0.1714
 5589TIP3    H138402   0.645   3.392   1.005  0.1101 -0.1761 -0.2543
 5589TIP3    H238403   0.598   3.428   0.865  0.8074 -0.3185 -0.5265
 5590TIP3   OH238404   5.305   4.513   0.173 -0.1225  0.0208 -0.5171
 5590TIP3    H138405   5.374   4.534   0.110 -0.0843  1.6619  0.0269
 5590TIP3    H238406   5.250   4.591   0.174 -0.7548 -0.4298  0.6493
 5591TIP3   OH238407   2.130   5.661   0.343  0.2143  0.3313 -0.5091
 5591TIP3    H138408   2.213   5.649   0.388 -0.2933 -2.1964 -0.1863
 5591TIP3    H238409   2.079   5.583   0.364 -2.1314  1.6750 -0.9594
 5592TIP3   OH238410   0.225   5.204   0.330  0.0517  0.0430  0.0468
 5592TIP3    H138411   0.243   5.289   0.370  0.8071 -0.3968  0.6573
 5592TIP3    H238412   0.132   5.189   0.345 -0.3229  1.2327 -0.9822
 5593TIP3   OH238413   2.321   3.808   0.960  0.2827 -0.2100  0.4521
 5593TIP3    H138414   2.327   3.824   1.054  0.2772 -0.1366  0.4400
 5593TIP3    H238415   2.404   3.838   0.925  0.4542 -0.6429  0.4908
 5594TIP3   OH238416   2.280   0.019   2.147 -0.4607 -0.4255 -0.5447
 5594TIP3    H138417   2.188   0.046   2.147  0.0734  1.4858  0.5155
 5594TIP3    H238418   2.318   0.061   2.225  1.5378 -0.3531 -1.5173
 5595TIP3   OH238419   2.708   5.413   1.100  0.1104 -0.2876  0.5133
 5595TIP3    H138420   2.769   5.472   1.144 -0.3753  0.6976 -0.1197
 5595TIP3    H238421   2.728   5.423   1.007 -1.1658  0.2143  0.2885
 5596TIP3   OH238422   4.560   4.999   0.598  0.3447  0.4007  0.4417
 5596TIP3    H138423   4.487   5.041   0.553 -0.1603 -0.6711  0.2341
 5596TIP3    H238424   4.637   5.022   0.547 -0.0510  0.2828 -0.2043
 5597TIP3   OH238425   3.242   6.385   1.841 -0.1530  0.3123  0.2991
 5597TIP3    H138426   3.148   6.398   1.830 -0.2100 -0.0229  0.3755
 5597TIP3    H238427   3.265   6.433   1.920 -0.1803  0.7541  0.0418
 5598TIP3   OH238428   6.940   3.478   1.937  0.4423  0.1809 -0.0486
 5598TIP3    H138429   7.026   3.519   1.935  1.3066 -1.4869  1.8498
 5598TIP3    H238430   6.887   3.535   1.994  0.8668  0.1226  0.4052
 5599TIP3   OH238431   3.789   4.648   7.876  0.0949  0.0299  0.0206
 5599TIP3    H138432   3.873   4.629   7.834  0.4785  3.7673 -1.0430
 5599TIP3    H238433   3.732   4.576   7.847  2.8411 -2.5400  0.7195
 5600TIP3   OH238434   3.071   4.443   0.822  0.1947  0.3412 -0.7231
 5600TIP3    H138435   3.092   4.393   0.744  1.3084  0.2865 -0.3961
 5600TIP3    H238436   3.022   4.518   0.790  0.0673 -0.0269 -1.3997
 5601TIP3   OH238437   3.476   3.954   1.035 -0.1917  0.1020  0.1938
 5601TIP3    H138438   3.436   3.891   1.094 -1.5039  0.7387  0.0105
 5601TIP3    H238439   3.519   3.901   0.968 -2.0436 -0.5919 -0.4655
 5602TIP3   OH238440   5.528   3.454   0.613  0.4245  0.3976 -0.0838
 5602TIP3    H138441   5.584   3.527   0.587 -0.4065  0.4517 -1.7886
 5602TIP3    H238442   5.565   3.424   0.697  2.5482  0.8861 -0.8136
 5603TIP3   OH238443   1.585   4.545   0.858  0.3413  0.2479  0.5439
 5603TIP3    H138444   1.674   4.510   0.846  0.0312 -0.5745  0.5585
 5603TIP3    H238445   1.529   4.467   0.853 -0.2726  0.6144  1.7087
 5604TIP3   OH238446   2.165   4.834   7.741 -0.0677  0.1338  0.4642
 5604TIP3    H138447   2.118   4.872   7.668  2.2200  1.0051 -0.5948
 5604TIP3    H238448   2.149   4.740   7.734 -0.3549  0.2720 -0.7928
 5605TIP3   OH238449   1.249   5.927   0.712  0.2462  0.4384  0.6619
 5605TIP3    H138450   1.324   5.880   0.748  0.1028 -0.0625  0.3082
 5605TIP3    H238451   1.250   5.908   0.619  0.7687  1.9663  0.3484
 5606TIP3   OH238452   3.796   2.979   7.462 -0.1202  0.4927  0.6478
 5606TIP3    H138453   3.750   3.035   7.524  0.2478  2.2798 -0.6468
 5606TIP3    H238454   3.735   2.907   7.444 -2.2108  2.5250 -0.6121
 5607TIP3   OH238455   1.867   4.967   1.853  0.0710 -0.2531 -0.3201
 5607TIP3    H138456   1.928   5.022   1.903 -1.3085  0.2535  0.8474
 5607TIP3    H238457   1.782   4.981   1.896 -0.8484 -1.0104 -1.8662
 5608TIP3   OH238458   2.236   4.810   1.344 -0.5806 -0.2677 -0.6208
 5608TIP3    H138459   2.145   4.787   1.326 -0.3063  0.0520 -2.4434
 5608TIP3    H238460   2.283   4.789   1.264  1.2150 -1.7400  0.7828
 5609TIP3   OH238461   0.791   4.165   1.243  0.4098 -0.0354 -0.1317
 5609TIP3    H138462   0.703   4.148   1.276  0.5729  0.5808  0.6329
 5609TIP3    H238463   0.829   4.078   1.231 -0.1099 -0.2914  0.0536
 5610TIP3   OH238464   1.646   5.821   1.456  0.2394 -0.1413 -0.4419
 5610TIP3    H138465   1.711   5.833   1.388 -0.7548  0.2357 -1.3386
 5610TIP3    H238466   1.582   5.891   1.441  0.9724  1.1425  2.0290
 5611TIP3   OH238467   1.833   4.366   0.860 -0.4728  0.2532  0.5995
 5611TIP3    H138468   1.765   4.309   0.825  0.0618 -0.8024  1.2726
 5611TIP3    H238469   1.821   4.364   0.955  1.3100 -0.9829  0.8140
 5612TIP3   OH238470   3.142   2.533   0.412  0.5435 -0.4573  0.2970
 5612TIP3    H138471   3.124   2.494   0.326  3.1011 -1.6992  0.2954
 5612TIP3    H238472   3.214   2.482   0.448  1.3701  1.8102  2.0129
 5613TIP3   OH238473   5.110   5.600   0.316 -0.0946 -0.4032 -0.0558
 5613TIP3    H138474   5.079   5.553   0.393 -1.8282 -0.6248 -0.8511
 5613TIP3    H238475   5.140   5.531   0.257  0.1299 -0.3182 -0.0392
 5614TIP3   OH238476   3.244   4.777   0.432  0.2027 -0.6293 -0.2058
 5614TIP3    H138477   3.247   4.826   0.350  3.1734  2.3736  1.5818
 5614TIP3    H238478   3.321   4.720   0.429 -1.0153 -2.2968 -0.5098
 5615TIP3   OH238479   5.575   6.205   0.464  0.0149  0.8599 -0.1419
 5615TIP3    H138480   5.614   6.231   0.380 -0.5803 -1.1712 -1.0817
 5615TIP3    H238481   5.632   6.135   0.496 -1.6949 -0.8077 -0.5975
 5616TIP3   OH238482   4.821   3.899   7.713 -0.0261  0.0869 -0.1530
 5616TIP3    H138483   4.801   3.889   7.806  1.8643  0.5067  0.3237
 5616TIP3    H238484   4.795   3.816   7.674  0.8219 -0.7572  1.0507
 5617TIP3   OH238485   2.329   3.593   1.252  0.1205  0.0765 -0.4152
 5617TIP3    H138486   2.399   3.528   1.253 -0.8798 -1.0527 -1.2936
 5617TIP3    H238487   2.374   3.677   1.261  1.7127 -0.5387 -2.1013
 5618TIP3   OH238488   3.550   3.485   0.406 -0.3061  0.2846  0.0011
 5618TIP3    H138489   3.549   3.479   0.311 -0.2055  0.0416  0.0136
 5618TIP3    H238490   3.552   3.578   0.425  0.1601  0.3220 -0.2380
 5619TIP3   OH238491   3.861   6.891   7.535 -0.0692 -0.3497  0.9275
 5619TIP3    H138492   3.939   6.907   7.588 -0.9286  1.3982  1.7098
 5619TIP3    H238493   3.788   6.906   7.594 -1.0419  0.9124 -0.5371
 5620TIP3   OH238494   3.269   5.366   0.580 -0.0986  0.0456 -0.2644
 5620TIP3    H138495   3.234   5.397   0.496  0.4072 -0.0631 -0.5176
 5620TIP3    H238496   3.229   5.280   0.592  0.6424 -0.3965 -0.9109
 5621TIP3   OH238497   1.025   4.932   0.764  0.1270  0.2159  0.0984
 5621TIP3    H138498   1.070   4.867   0.709  0.3062 -0.5605  1.1499
 5621TIP3    H238499   1.095   4.986   0.799  0.0173  0.6728 -0.3880
 5622TIP3   OH238500   3.602   5.489   1.380 -0.2430 -0.4925  0.4866
 5622TIP3    H138501   3.547   5.463   1.455 -2.6639  3.7397  0.3719
 5622TIP3    H238502   3.549   5.469   1.303 -0.5194  1.0891  0.2461
 5623TIP3   OH238503   3.069   5.038   1.815  0.0089  0.4692 -0.6968
 5623TIP3    H138504   2.983   5.005   1.843 -0.8404  2.0910 -1.3284
 5623TIP3    H238505   3.064   5.133   1.827  2.2604  0.4511  0.6686
 5624TIP3   OH238506   1.906   0.119   1.231  0.2022 -0.1072 -0.0943
 5624TIP3    H138507   1.821   0.084   1.206 -0.3737 -0.5116  2.2977
 5624TIP3    H238508   1.887   0.204   1.271  0.9689 -0.0061  0.0761
 5625TIP3   OH238509   2.539   5.635   1.652  0.9978 -0.4732 -0.5383
 5625TIP3    H138510   2.601   5.704   1.673  1.0940 -0.4602 -0.8607
 5625TIP3    H238511   2.585   5.553   1.672  0.4514 -0.4150  0.9948
 5626TIP3   OH238512   2.713   3.879   8.264  0.4743 -0.2153 -0.0992
 5626TIP3    H138513   2.710   3.954   8.323  1.7946  0.0654 -0.3591
 5626TIP3    H238514   2.805   3.873   8.239  0.0922 -0.9044 -1.3889
 5627TIP3   OH238515   1.780   5.207   7.499 -0.4303 -0.2724 -0.3460
 5627TIP3    H138516   1.826   5.284   7.530 -1.6845  0.9268 -1.4019
 5627TIP3    H238517   1.721   5.184   7.571 -0.9839  0.5320 -0.5424
 5628TIP3   OH238518   4.175   4.659   1.987  0.3910 -0.3249  0.5281
 5628TIP3    H138519   4.171   4.579   1.934  0.3694 -0.3325  0.5411
 5628TIP3    H238520   4.117   4.642   2.061  0.0679 -0.1372  0.3140
 5629TIP3   OH238521   3.090   6.410   8.359  0.2212  0.2408 -0.1973
 5629TIP3    H138522   3.005   6.451   8.376 -0.0186 -0.1147 -0.5155
 5629TIP3    H238523   3.140   6.478   8.312 -0.1588  0.1867 -0.6890
 5630TIP3   OH238524   2.460   3.328   0.373 -0.1905 -0.3708 -0.0428
 5630TIP3    H138525   2.508   3.250   0.346  1.4402  0.4902  0.2897
 5630TIP3    H238526   2.440   3.313   0.466 -0.1105 -0.5109 -0.0489
 5631TIP3   OH238527   2.020   3.932   0.614 -0.5604  0.1898 -0.3168
 5631TIP3    H138528   2.060   4.014   0.587  1.4914  0.0023  2.0835
 5631TIP3    H238529   2.093   3.870   0.621 -1.7743 -1.2118  0.2929
 5632TIP3   OH238530   4.685   5.246   6.466 -0.1647  0.1645 -0.0918
 5632TIP3    H138531   4.729   5.214   6.545  2.4935  1.7915 -0.8411
 5632TIP3    H238532   4.696   5.176   6.402  1.6528  0.6335 -0.3440
 5633TIP3   OH238533   5.406   5.262   1.797 -0.2259  0.4376  0.1661
 5633TIP3    H138534   5.328   5.249   1.742  0.2086 -1.7043  0.0233
 5633TIP3    H238535   5.465   5.313   1.742 -1.1439  1.2515 -0.0810
 5634TIP3   OH238536   1.957   6.258   1.621 -0.0687  0.2868  0.2660
 5634TIP3    H138537   1.904   6.289   1.694  0.6276 -1.6980  1.6797
 5634TIP3    H238538   2.021   6.327   1.606 -1.0687  1.3013  0.6357
 5635TIP3   OH238539   2.983   6.045   2.511  0.2730 -0.1934  0.2397
 5635TIP3    H138540   2.901   6.091   2.530  0.9040  0.5057  1.2861
 5635TIP3    H238541   3.039   6.110   2.469  0.0494 -0.8639 -1.1206
 5636TIP3   OH238542   2.965   4.451   1.772 -0.0445  0.2982  0.3796
 5636TIP3    H138543   3.000   4.516   1.833  0.6946 -1.7008  2.1462
 5636TIP3    H238544   3.025   4.377   1.780 -1.9920 -1.3506 -0.1658
 5637TIP3   OH238545   3.295   0.305   1.414  0.2724  0.4735  0.2745
 5637TIP3    H138546   3.237   0.368   1.371 -0.4891 -0.2762  0.2033
 5637TIP3    H238547   3.239   0.259   1.476  0.1535 -2.1065 -1.6529
 5638TIP3   OH238548   4.127   7.154   0.150 -0.0604  0.1510 -0.3593
 5638TIP3    H138549   4.118   7.225   0.085  1.0125  0.7894  0.1739
 5638TIP3    H238550   4.221   7.141   0.157 -0.2160 -0.5478  0.4031
 5639TIP3   OH238551   1.440   5.215   1.755  0.1579  0.2901  0.3346
 5639TIP3    H138552   1.379   5.264   1.700  1.2035  0.1286 -0.9765
 5639TIP3    H238553   1.400   5.128   1.763  1.2500 -0.5049 -2.3297
 5640TIP3   OH238554   3.501   5.482   0.143  0.1659  0.3061 -0.4875
 5640TIP3    H138555   3.535   5.566   0.112  0.4266 -0.0042 -1.0441
 5640TIP3    H238556   3.578   5.435   0.175  0.0834  0.0982 -0.5929
 5641TIP3   OH238557   2.424   5.100   1.977  0.9828 -0.4300  0.7592
 5641TIP3    H138558   2.369   5.029   1.944 -0.9539  0.4398  2.0023
 5641TIP3    H238559   2.462   5.064   2.057  0.2222 -0.1962  1.2382
 5642TIP3   OH238560   6.319   3.940   0.990  0.0261 -0.2398  0.6287
 5642TIP3    H138561   6.293   3.945   0.898 -0.2889  0.0477  0.7324
 5642TIP3    H238562   6.257   3.997   1.035 -1.3939 -2.2832  1.3502
 5643TIP3   OH238563   1.338   2.768   1.079 -0.1342 -0.1752 -0.1502
 5643TIP3    H138564   1.258   2.748   1.126  0.5207 -0.2195  0.9513
 5643TIP3    H238565   1.358   2.859   1.101  0.5833 -0.4296  0.2573
 5644TIP3   OH238566   5.321   2.617   1.503  0.2712  0.2925 -0.0344
 5644TIP3    H138567   5.257   2.641   1.436 -1.1048  0.6425  1.3844
 5644TIP3    H238568   5.338   2.524   1.487 -1.2995 -0.0466  0.1141
 5645TIP3   OH238569   3.422   4.690   2.140 -0.1254 -0.4091  0.0179
 5645TIP3    H138570   3.431   4.603   2.178  2.7327 -0.8390 -1.5713
 5645TIP3    H238571   3.348   4.729   2.187  0.4233 -2.5956  2.7733
 5646TIP3   OH238572   4.141   5.596   7.085  0.4405 -0.3535 -0.2873
 5646TIP3    H138573   4.075   5.565   7.146  1.3243  1.0997  1.4801
 5646TIP3    H238574   4.197   5.520   7.070  0.8377 -0.4687  1.5936
 5647TIP3   OH238575   2.234   4.438   6.361  0.0769 -0.3572  0.1838
 5647TIP3    H138576   2.311   4.473   6.407 -0.2418 -0.0745  0.5077
 5647TIP3    H238577   2.175   4.513   6.353  0.9775  0.0945 -2.5190
 5648TIP3   OH238578   3.400   5.310   1.506  0.4277  0.4736  0.3532
 5648TIP3    H138579   3.309   5.282   1.517  0.0042  1.4577 -0.5310
 5648TIP3    H238580   3.451   5.249   1.560 -0.7554 -0.0640  0.8778
 5649TIP3   OH238581   0.900   2.975   1.368  0.0260 -0.1892 -0.3566
 5649TIP3    H138582   0.821   3.020   1.339  0.9305  2.1657  0.6728
 5649TIP3    H238583   0.955   2.970   1.291 -0.6259 -0.7601 -0.7921
 5650TIP3   OH238584   4.060   2.789   0.297 -0.6514 -0.1221 -0.3896
 5650TIP3    H138585   3.985   2.846   0.283 -1.0147 -0.0947  1.5876
 5650TIP3    H238586   4.135   2.848   0.300 -0.6534 -0.0561 -1.3212
 5651TIP3   OH238587   0.475   4.393   0.110 -0.0182 -0.1432 -0.2134
 5651TIP3    H138588   0.567   4.368   0.107 -0.5084 -1.8460 -2.0740
 5651TIP3    H238589   0.460   4.441   0.029 -0.6969  0.3491  0.1986
 5652TIP3   OH238590   4.253   4.540   0.362 -0.0985  0.1086  0.7564
 5652TIP3    H138591   4.274   4.449   0.379 -1.9056 -0.5707 -0.5708
 5652TIP3    H238592   4.297   4.560   0.279  0.1314  0.3828  0.9442
 5653TIP3   OH238593   2.339   5.104   0.582  0.4948  0.1471 -0.3563
 5653TIP3    H138594   2.372   5.114   0.492  3.1182 -0.8898  0.4511
 5653TIP3    H238595   2.324   5.194   0.612  1.2603  0.5766 -1.2346
 5654TIP3   OH238596   2.080   5.229   1.261 -0.1250  0.0163  0.1259
 5654TIP3    H138597   2.152   5.171   1.236 -0.6573 -0.3709 -0.5252
 5654TIP3    H238598   2.117   5.317   1.256  1.0327 -0.3077  2.2595
 5655TIP3   OH238599   0.393   6.137   7.690  0.0042  0.7329  0.4630
 5655TIP3    H138600   0.320   6.142   7.629  1.2404  2.3828 -0.9590
 5655TIP3    H238601   0.414   6.044   7.697 -0.8140  0.4523 -0.8326
 5656TIP3   OH238602   0.089   6.146   0.756  0.0139 -0.2083  0.1541
 5656TIP3    H138603   0.090   6.120   0.848 -0.3558  2.0311  0.8218
 5656TIP3    H238604   0.180   6.141   0.728 -0.0704 -2.3603  0.1883
 5657TIP3   OH238605   1.694   5.675   0.764 -0.1891 -0.4350  0.6563
 5657TIP3    H138606   1.749   5.696   0.688 -0.5620  1.2487  0.8362
 5657TIP3    H238607   1.757   5.649   0.832  0.2834  0.1025  0.4270
 5658TIP3   OH238608   3.362   7.208   0.931 -0.6508  0.0655 -0.0733
 5658TIP3    H138609   3.367   7.292   0.886  0.0418  0.3629  0.5379
 5658TIP3    H238610   3.363   7.230   1.024 -3.6681 -0.4491  0.1272
 5659TIP3   OH238611   1.879   3.645   1.570  0.2004 -0.2829  0.1476
 5659TIP3    H138612   1.822   3.606   1.504  0.3153 -0.4270  0.1319
 5659TIP3    H238613   1.845   3.733   1.583  0.3969 -0.1350 -0.3611
 5660TIP3   OH238614   1.816   4.422   7.574 -0.0400 -0.0420 -0.3324
 5660TIP3    H138615   1.882   4.352   7.567 -0.2982 -0.2558 -0.6334
 5660TIP3    H238616   1.817   4.445   7.667  0.7603  0.2514 -0.4121
 5661TIP3   OH238617   3.271   4.072   0.061 -0.3761  0.2119  0.8912
 5661TIP3    H138618   3.292   4.110  -0.024  1.8845 -0.6673  1.0065
 5661TIP3    H238619   3.356   4.044   0.096 -1.4657 -0.9622  2.6860
 5662TIP3   OH238620   3.472   3.531   7.150 -0.3063  0.4365  0.4612
 5662TIP3    H138621   3.411   3.537   7.223 -2.2293  1.6856 -1.2006
 5662TIP3    H238622   3.496   3.622   7.131 -1.2810  0.2814 -1.6339
 5663TIP3   OH238623   4.532   5.441   0.582 -0.4175 -0.1646 -0.3964
 5663TIP3    H138624   4.446   5.451   0.541 -0.0548 -0.6594 -1.2909
 5663TIP3    H238625   4.512   5.412   0.671 -1.1679 -0.8417 -0.7762
 5664TIP3   OH238626   2.501   3.511   1.695  0.0975 -0.3215 -0.1974
 5664TIP3    H138627   2.536   3.594   1.726  0.5163 -1.3496  2.1650
 5664TIP3    H238628   2.563   3.483   1.627  1.3869  0.0421  0.8229
 5665TIP3   OH238629   2.823   3.658   1.385 -0.6593 -0.3481  0.0788
 5665TIP3    H138630   2.803   3.742   1.345  0.2802 -0.0695  0.1741
 5665TIP3    H238631   2.817   3.673   1.479 -0.5470 -0.4001  0.0953
 5666TIP3   OH238632   2.458   2.496   8.473 -0.2271 -0.8257 -0.0308
 5666TIP3    H138633   2.363   2.482   8.479 -0.7730  1.9319 -1.3551
 5666TIP3    H238634   2.469   2.546   8.392  2.1145  0.9297  1.3258
 5667TIP3   OH238635   3.393   4.393   1.895  0.3010  0.2254 -0.4115
 5667TIP3    H138636   3.424   4.336   1.966  2.4578  1.3658 -0.3696
 5667TIP3    H238637   3.452   4.374   1.822  0.2569  1.5008 -0.7905
 5668TIP3   OH238638   1.042   3.785   0.780 -0.0879 -0.3918  0.0815
 5668TIP3    H138639   1.032   3.874   0.746 -2.2425 -1.5230 -2.3857
 5668TIP3    H238640   0.956   3.762   0.813  0.8238 -1.0703  2.0563
 5669TIP3   OH238641   4.569   3.702   2.112 -0.4796 -0.6391 -0.3984
 5669TIP3    H138642   4.598   3.727   2.024 -0.0225  0.0520 -0.0592
 5669TIP3    H238643   4.577   3.606   2.114 -1.5184 -0.7514 -1.4566
 5670TIP3   OH238644   3.068   3.647   0.737  0.4214  0.0542  0.2786
 5670TIP3    H138645   3.055   3.732   0.695  0.6924 -0.2290 -0.3930
 5670TIP3    H238646   3.162   3.638   0.746  0.3149  0.8480  2.5257
 5671TIP3   OH238647   3.815   4.749   1.978  0.3069 -0.1904  0.4096
 5671TIP3    H138648   3.744   4.790   2.029  2.7048  3.3933  1.0942
 5671TIP3    H238649   3.773   4.722   1.896 -1.9573  1.3991  0.9800
 5672TIP3   OH238650   4.304   5.359   7.089  0.4225 -0.1029  0.1228
 5672TIP3    H138651   4.398   5.348   7.100  0.1564 -2.5364  0.1333
 5672TIP3    H238652   4.283   5.312   7.008 -0.8918 -0.1950  0.4968
 5673TIP3   OH238653   1.264   6.207   1.370 -0.3801  0.2356 -0.8236
 5673TIP3    H138654   1.176   6.192   1.336 -1.6848 -1.2925  3.0472
 5673TIP3    H238655   1.252   6.260   1.448  2.1495  0.0691 -0.2605
 5674TIP3   OH238656   1.749   3.984   7.046  0.3204  0.1199  0.6380
 5674TIP3    H138657   1.689   3.993   7.120  0.6953 -0.2328  0.9859
 5674TIP3    H238658   1.766   4.074   7.018  0.4500  0.2733  1.1984
 5675TIP3   OH238659   2.633   4.812   2.209  0.4897 -0.7732 -0.2119
 5675TIP3    H138660   2.562   4.875   2.214 -1.4773 -2.9510  0.3360
 5675TIP3    H238661   2.605   4.749   2.142  0.3533 -3.4485  2.2580
 5676TIP3   OH238662   2.639   5.472   0.553  0.3533 -0.2623  0.0295
 5676TIP3    H138663   2.678   5.551   0.516 -1.4846  1.2900  1.3248
 5676TIP3    H238664   2.659   5.478   0.647  1.2066 -1.9407 -0.0292
 5677TIP3   OH238665   2.413   5.708   2.153  0.2439 -0.1901  0.6079
 5677TIP3    H138666   2.381   5.620   2.133  1.7101 -0.5060 -0.4598
 5677TIP3    H238667   2.453   5.700   2.240 -1.9691  0.0662  1.6815
 5678TIP3   OH238668   4.784   3.915   0.444 -0.2643  0.2808 -0.0503
 5678TIP3    H138669   4.840   3.980   0.402  0.1926 -0.9549 -1.3798
 5678TIP3    H238670   4.722   3.888   0.376 -0.1168 -1.0536  0.3370
 5679TIP3   OH238671   3.373   4.959   7.789 -0.6208  0.1505  0.0089
 5679TIP3    H138672   3.340   4.966   7.879  2.0516  1.7440  0.9387
 5679TIP3    H238673   3.451   4.904   7.797 -0.0338  0.7808 -1.2240
 5680TIP3   OH238674   4.498   4.981   8.276  0.0186 -0.1028  0.2762
 5680TIP3    H138675   4.500   4.889   8.300 -2.3140 -0.0660  0.7138
 5680TIP3    H238676   4.590   5.003   8.256  0.4761 -2.6970 -0.6517
 5681TIP3   OH238677   4.063   3.931   2.017 -0.1924 -0.0610 -0.0327
 5681TIP3    H138678   4.000   4.002   2.009 -1.7721 -1.4046  0.3695
 5681TIP3    H238679   4.064   3.889   1.931 -0.1684 -0.3139  0.0910
 5682TIP3   OH238680   0.115   5.906   7.228 -0.4443  0.0501  0.0395
 5682TIP3    H138681   0.035   5.868   7.190  0.3539 -2.0409  0.3410
 5682TIP3    H238682   0.174   5.916   7.154 -0.9969  1.6890 -0.1994
 5683TIP3   OH238683   3.811   4.254   1.738  0.1147  0.0828  0.1643
 5683TIP3    H138684   3.837   4.318   1.672  0.5901  0.3713  0.6188
 5683TIP3    H238685   3.715   4.253   1.734  0.1012  0.8803  0.1967
 5684TIP3   OH238686   3.723   5.339   1.580  0.0042 -0.1155 -0.1455
 5684TIP3    H138687   3.705   5.402   1.510  1.5356 -1.4017 -1.7449
 5684TIP3    H238688   3.818   5.332   1.582 -0.0426 -0.3537  1.8694
 5685TIP3   OH238689   1.510   5.742   2.317  0.6728 -0.2788 -0.0512
 5685TIP3    H138690   1.468   5.675   2.371 -0.1323 -2.1028 -2.8339
 5685TIP3    H238691   1.438   5.797   2.287  1.2252  1.2978  1.4482
 5686TIP3   OH238692   2.902   6.614   8.452 -0.4475 -0.4774  0.2555
 5686TIP3    H138693   2.848   6.690   8.429  1.0447  0.5451  0.0636
 5686TIP3    H238694   2.991   6.647   8.454  0.3332 -2.4296 -0.6843
 5687TIP3   OH238695   3.485   6.225   1.816  0.0727 -0.0917  0.3033
 5687TIP3    H138696   3.517   6.251   1.730  1.1450 -1.3663  0.2947
 5687TIP3    H238697   3.403   6.179   1.798  0.7627 -1.1757 -0.1353
 5688TIP3   OH238698   2.437   5.673   8.074  0.0412 -0.9654  0.3224
 5688TIP3    H138699   2.423   5.768   8.075  0.8731 -0.8326 -0.0850
 5688TIP3    H238700   2.364   5.639   8.022  1.0332 -0.3172 -1.5418
 5689TIP3   OH238701   0.982   5.977   1.933  0.3005 -0.3253 -0.2816
 5689TIP3    H138702   1.001   5.906   1.996  0.6384 -1.3686 -1.5302
 5689TIP3    H238703   0.891   5.964   1.909 -0.4908  1.4370  1.6634
 5690TIP3   OH238704   3.622   4.812   7.044 -0.1559  0.1221 -0.2531
 5690TIP3    H138705   3.717   4.808   7.049 -0.1226  0.5934 -0.5307
 5690TIP3    H238706   3.601   4.778   6.957 -0.0438  3.1213 -1.4823
 5691TIP3   OH238707   3.230   5.069   1.319  0.1620  1.0655 -0.5759
 5691TIP3    H138708   3.264   4.997   1.267  0.0547  0.7261 -0.1771
 5691TIP3    H238709   3.277   5.146   1.287  3.2902  0.2327  1.7582
 5692TIP3   OH238710   2.366   6.572   0.659 -0.4152  0.1807 -0.3258
 5692TIP3    H138711   2.388   6.523   0.580  2.2770  0.4764  0.1843
 5692TIP3    H238712   2.275   6.550   0.677  0.0783 -2.9045 -1.3621
 5693TIP3   OH238713   0.840   5.114   2.169  0.0620  0.4099  0.3135
 5693TIP3    H138714   0.762   5.170   2.170 -1.0623 -1.0536 -1.6361
 5693TIP3    H238715   0.873   5.121   2.079  0.4675 -1.3020  0.3261
 5694TIP3   OH238716   4.104   5.204   2.121 -0.1471 -0.1985  0.0230
 5694TIP3    H138717   4.033   5.229   2.180 -0.0746  2.5142 -0.9668
 5694TIP3    H238718   4.183   5.236   2.164  0.0460  0.4784 -0.8065
 5695TIP3   OH238719   3.885   4.422   0.005 -0.2432  0.7383 -0.1239
 5695TIP3    H138720   3.899   4.391   0.094 -0.4376  0.3088 -0.2407
 5695TIP3    H238721   3.972   4.421  -0.035 -0.1803  0.7802  0.0122
 5696TIP3   OH238722   4.407   3.145   0.816 -0.3249 -0.2800 -0.5909
 5696TIP3    H138723   4.381   3.058   0.848 -0.1633 -0.2211 -0.2942
 5696TIP3    H238724   4.355   3.206   0.868  0.5757 -0.1513  0.1845
 5697TIP3   OH238725   3.269   4.514   1.314  0.3336 -0.7406  0.3240
 5697TIP3    H138726   3.217   4.573   1.368 -0.2917  0.9646 -2.0523
 5697TIP3    H238727   3.355   4.554   1.309  0.4069 -0.9186  0.1197
 5698TIP3   OH238728   2.416   4.326   1.019  0.0146  0.4191 -0.7159
 5698TIP3    H138729   2.499   4.357   0.983 -0.4578  1.6124 -0.8109
 5698TIP3    H238730   2.364   4.406   1.030 -0.5362 -0.1377  0.8294
 5699TIP3   OH238731   1.907   4.518   1.927  0.2490  0.2919 -0.2909
 5699TIP3    H138732   1.901   4.567   2.008  1.1056  1.1311 -0.7287
 5699TIP3    H238733   1.891   4.427   1.952  0.5971  0.5369  0.8236
 5700TIP3   OH238734   2.573   5.170   1.739  0.5658 -0.2128 -0.0830
 5700TIP3    H138735   2.581   5.265   1.738  2.2132 -0.3339 -0.1011
 5700TIP3    H238736   2.512   5.151   1.810 -1.7788  0.9814 -1.7530
 5701TIP3   OH238737   3.540   3.807   8.296 -0.3885 -0.5871  0.2935
 5701TIP3    H138738   3.495   3.873   8.244  1.4382  0.2146 -0.3079
 5701TIP3    H238739   3.546   3.731   8.239  1.8661  0.3821 -0.8531
 5702TIP3   OH238740   2.793   4.463   8.079  0.3381  0.2682  0.4535
 5702TIP3    H138741   2.730   4.493   8.014  0.6042  1.1551  0.6038
 5702TIP3    H238742   2.875   4.456   8.031  0.3087 -0.0803  0.4537
 5703TIP3   OH238743   2.595   3.757   1.802 -0.4148 -0.3190  0.2844
 5703TIP3    H138744   2.598   3.850   1.779  1.2560 -0.7797 -1.5021
 5703TIP3    H238745   2.605   3.755   1.897 -0.9530  1.3342  0.3903
 5704TIP3   OH238746   3.313   4.157   1.012  0.3481  0.2268  0.4305
 5704TIP3    H138747   3.392   4.103   1.014  0.1101 -0.1519 -0.3072
 5704TIP3    H238748   3.293   4.174   1.104  1.1005  0.0431  0.6264
 5705TIP3   OH238749   3.463   6.175   0.333  0.2685  0.0175 -0.1538
 5705TIP3    H138750   3.395   6.218   0.384  1.1456  1.1393  0.0930
 5705TIP3    H238751   3.531   6.153   0.397  0.7257  0.1174 -0.6021
 5706TIP3   OH238752   2.738   4.734   0.270 -0.3881  0.3483 -0.2426
 5706TIP3    H138753   2.717   4.732   0.364 -0.2614 -1.3982 -0.2408
 5706TIP3    H238754   2.782   4.819   0.257 -0.5629  0.6796  1.2374
 5707TIP3   OH238755   3.229   3.533   0.507 -0.4127  0.6516  0.0894
 5707TIP3    H138756   3.135   3.514   0.503 -0.4188  0.8221 -0.6326
 5707TIP3    H238757   3.253   3.552   0.417  0.5649 -0.5809  0.0731
 5708TIP3   OH238758   4.886   6.172   8.079 -0.0519 -0.1082 -0.0122
 5708TIP3    H138759   4.975   6.145   8.056  0.7739  0.0704  2.7812
 5708TIP3    H238760   4.842   6.091   8.104 -0.2562 -0.0186 -0.0783
 5709TIP3   OH238761   0.421   3.699   1.467 -0.0468 -0.3343 -0.1416
 5709TIP3    H138762   0.483   3.761   1.429  0.3375 -0.7111 -0.1411
 5709TIP3    H238763   0.423   3.624   1.408 -1.2205  0.0378 -0.6613
 5710TIP3   OH238764   3.119   5.765   1.639  0.1244 -0.1554  0.1964
 5710TIP3    H138765   3.068   5.822   1.696  1.5786 -0.0300  1.4049
 5710TIP3    H238766   3.192   5.736   1.694  1.1957 -0.5463 -1.4115
 5711TIP3   OH238767   1.645   5.391   1.727 -0.3005  0.3025  0.5933
 5711TIP3    H138768   1.609   5.479   1.723 -1.8942 -0.3538  0.1598
 5711TIP3    H238769   1.571   5.336   1.754  0.3905 -1.0492 -0.2370
 5712TIP3   OH238770   2.633   5.460   2.030  0.0665 -0.0554 -0.1185
 5712TIP3    H138771   2.639   5.471   2.125 -0.5113  2.2810 -0.3291
 5712TIP3    H238772   2.541   5.438   2.015 -0.5435  2.5319 -0.3766
 5713TIP3   OH238773   2.167   5.794   0.818  0.5701 -0.1646 -0.1064
 5713TIP3    H138774   2.167   5.820   0.726 -3.3158  0.0554 -0.1278
 5713TIP3    H238775   2.166   5.877   0.867 -0.9239 -0.2443  0.0293
 5714TIP3   OH238776   3.338   3.797   2.091 -0.5089  0.0904 -0.0124
 5714TIP3    H138777   3.371   3.753   2.013  0.0957  0.1287  0.2179
 5714TIP3    H238778   3.403   3.866   2.109 -1.4938  1.1463 -0.4333
 5715TIP3   OH238779   3.220   4.807   8.372  0.0059  0.4073  0.0182
 5715TIP3    H138780   3.171   4.748   8.428 -2.8698  1.4362 -1.2907
 5715TIP3    H238781   3.278   4.750   8.321  0.8493 -0.7507  2.1955
 5716TIP3   OH238782   1.388   5.330   1.002 -0.5221  0.3561  0.1231
 5716TIP3    H138783   1.440   5.306   1.078 -1.2614 -0.5258  0.3666
 5716TIP3    H238784   1.337   5.406   1.030 -0.5793  0.2075  0.4193
 5717TIP3   OH238785   3.170   4.259   7.196 -0.3460 -0.3790  0.0731
 5717TIP3    H138786   3.175   4.344   7.153  0.9621 -0.9369 -0.9136
 5717TIP3    H238787   3.256   4.248   7.238 -1.3102 -0.1962  2.1572
 5718TIP3   OH238788   3.184   3.088   1.954 -0.2767  0.5246  0.3234
 5718TIP3    H138789   3.211   3.130   1.873 -0.9448  0.8503  0.2672
 5718TIP3    H238790   3.251   3.113   2.018  0.3337  0.1367 -0.1642
 5719TIP3   OH238791   3.571   5.845   1.857  0.1668  0.1173 -0.1389
 5719TIP3    H138792   3.651   5.802   1.824 -0.0760 -0.3607 -0.1086
 5719TIP3    H238793   3.516   5.855   1.779  0.5796  1.1526 -0.2942
 5720TIP3   OH238794   3.008   5.302   0.895  0.1001 -0.1029 -0.4873
 5720TIP3    H138795   3.042   5.271   0.979 -0.7542 -0.2303 -0.1799
 5720TIP3    H238796   3.049   5.246   0.830 -0.3297 -0.9474 -0.0414
 5721TIP3   OH238797   2.071   5.016   8.213  0.0275  0.3363 -0.5572
 5721TIP3    H138798   2.129   5.053   8.279 -0.0969  1.4378 -1.0497
 5721TIP3    H238799   2.093   5.062   8.132 -1.5566  0.8170 -0.7362
 5722TIP3   OH238800   1.976   2.945   1.440  0.4694  0.1857 -0.0960
 5722TIP3    H138801   1.969   3.035   1.409  1.2943  0.3195  0.1011
 5722TIP3    H238802   2.027   2.951   1.520 -1.7637 -0.1429  1.3998
 5723TIP3   OH238803   2.560   4.779   7.116 -0.0228 -0.7118  0.5097
 5723TIP3    H138804   2.498   4.708   7.101 -0.9920 -0.2412  2.1375
 5723TIP3    H238805   2.535   4.815   7.201  2.0122 -0.0271  0.8548
 5724TIP3   OH238806   2.793   4.779   2.463  1.0226 -0.3210  0.0606
 5724TIP3    H138807   2.829   4.690   2.464  1.8771  0.0220  0.4516
 5724TIP3    H238808   2.740   4.782   2.384  0.0640 -1.5370  0.6419
 5725TIP3   OH238809   2.396   3.546   0.195  0.0363 -0.0300 -0.2711
 5725TIP3    H138810   2.424   3.459   0.225  0.9908  0.7053  1.0400
 5725TIP3    H238811   2.426   3.551   0.104  0.5066 -0.8365 -0.1661
 5726TIP3   OH238812   0.499   4.130   1.012  0.3261  0.3318  0.3853
 5726TIP3    H138813   0.483   4.156   1.103 -0.7714  0.4471  0.1684
 5726TIP3    H238814   0.412   4.111   0.977  0.7658  0.0737 -0.5776
 5727TIP3   OH238815   4.127   4.457   0.719 -0.2868 -0.2954 -0.2995
 5727TIP3    H138816   4.181   4.423   0.649 -0.4192 -4.0751  1.3139
 5727TIP3    H238817   4.087   4.536   0.683  1.3028 -0.9763 -3.6886
 5728TIP3   OH238818   2.560   5.722   1.194 -0.1735  0.4908  0.2600
 5728TIP3    H138819   2.466   5.706   1.196 -0.0683 -0.0222  1.5222
 5728TIP3    H238820   2.574   5.791   1.259  0.3007  0.6767 -0.0363
 5729TIP3   OH238821   2.245   4.438   2.227 -0.2479  0.0001  0.3041
 5729TIP3    H138822   2.317   4.432   2.290  0.6431 -0.3433 -0.7360
 5729TIP3    H238823   2.194   4.358   2.240 -1.0077  0.6866  1.7020
 5730TIP3   OH238824   2.886   4.533   2.491  0.4967  0.3207  0.4368
 5730TIP3    H138825   2.950   4.511   2.559 -1.3008  1.1038  2.4556
 5730TIP3    H238826   2.824   4.460   2.492 -0.8214  1.4182  1.2916
 5731TIP3   OH238827   3.123   3.951   1.997  0.5865  0.5352 -0.1939
 5731TIP3    H138828   3.169   3.922   2.075 -1.0111 -0.0067  0.5603
 5731TIP3    H238829   3.171   3.911   1.924  1.2091 -0.1399  0.5860
 5732TIP3   OH238830   2.264   3.072   1.854 -0.5339  0.0267  0.0685
 5732TIP3    H138831   2.222   3.109   1.932 -0.1710 -2.1370  1.3507
 5732TIP3    H238832   2.346   3.120   1.846 -0.5988  0.3047  0.9898
 5733TIP3   OH238833   1.439   4.213   0.978 -0.5652 -0.4837 -0.3381
 5733TIP3    H138834   1.397   4.229   1.063  0.3978  2.2604 -0.3415
 5733TIP3    H238835   1.397   4.275   0.919  1.3594  0.1957 -1.0126
 5734TIP3   OH238836   3.982   4.649   2.161  0.2205  0.4004  0.5314
 5734TIP3    H138837   3.911   4.641   2.224 -0.2293 -1.4329 -0.1796
 5734TIP3    H238838   3.940   4.680   2.081 -0.0558 -2.1288 -0.3346
 5735TIP3   OH238839   3.468   3.607   1.638 -0.4383  0.4548 -0.1436
 5735TIP3    H138840   3.497   3.690   1.600 -1.8985  0.7887 -0.5491
 5735TIP3    H238841   3.420   3.564   1.567 -1.1461  0.0189  0.5898
 5736TIP3   OH238842   4.572   4.200   2.905 -0.4077  0.3385  0.0694
 5736TIP3    H138843   4.622   4.204   2.824  2.1025  2.8694  1.6605
 5736TIP3    H238844   4.489   4.243   2.883  0.3341  1.2270 -1.0970
 5737TIP3   OH238845   1.235   6.119   7.670  0.1853 -0.3106  0.0150
 5737TIP3    H138846   1.176   6.194   7.680  2.3865  1.2731  1.3929
 5737TIP3    H238847   1.232   6.099   7.577 -0.4867  1.4646 -0.3676
 5738TIP3   OH238848   3.016   4.792   7.937 -0.6385  0.3998 -0.2060
 5738TIP3    H138849   2.999   4.781   8.030  0.7758 -0.6107 -0.0593
 5738TIP3    H238850   3.062   4.876   7.930  0.2091 -0.0352  0.1302
 5739TIP3   OH238851   1.117   5.340   1.230  0.7006 -0.2032 -0.4435
 5739TIP3    H138852   1.025   5.319   1.214  0.3843  1.3279 -0.7092
 5739TIP3    H238853   1.144   5.388   1.152  2.0696 -1.6434 -0.8888
 5740TIP3   OH238854   4.975   6.051   0.280  0.2578  0.3495  0.7616
 5740TIP3    H138855   5.009   5.967   0.252 -5.9352 -1.9105 -0.8173
 5740TIP3    H238856   4.981   6.107   0.203  1.5924  0.4156  0.9096
 5741TIP3   OH238857   1.827   5.740   0.520 -0.0810 -0.7494 -0.5517
 5741TIP3    H138858   1.761   5.785   0.468  0.3473  0.8668  0.2491
 5741TIP3    H238859   1.910   5.781   0.494  0.5939 -2.6524 -1.4435
 5742TIP3   OH238860   2.878   4.076   1.944 -0.3113  0.5633 -0.2152
 5742TIP3    H138861   2.849   4.099   2.032  0.9810  1.2321  0.0486
 5742TIP3    H238862   2.971   4.059   1.953 -0.3434 -0.2349 -1.2977
 5743TIP3   OH238863   2.756   6.488   1.831  0.2171 -0.2506  0.3049
 5743TIP3    H138864   2.753   6.447   1.918 -0.6220  0.1224  0.4550
 5743TIP3    H238865   2.668   6.523   1.818  0.4061 -0.1106 -0.6061
 5744TIP3   OH238866   4.164   6.849   1.081 -0.1604  0.5210  0.0652
 5744TIP3    H138867   4.156   6.755   1.064  1.7162  0.7434 -2.2734
 5744TIP3    H238868   4.217   6.854   1.161 -0.4516 -0.3943  0.3233
 5745TIP3   OH238869   3.000   4.614   8.461  0.6931 -0.4180  0.0433
 5745TIP3    H138870   3.031   4.540   8.513  1.1383 -0.8481 -0.8144
 5745TIP3    H238871   2.905   4.602   8.456  0.7728 -0.9960 -0.1735
 5746TIP3   OH238872   3.162   6.280   2.388  0.8048 -0.2737  0.0103
 5746TIP3    H138873   3.155   6.372   2.414  2.1119 -0.5097  1.3339
 5746TIP3    H238874   3.182   6.283   2.295  0.7985  0.8029  0.0332
 5747TIP3   OH238875   3.452   7.290   1.529 -0.1970 -0.6918 -0.2810
 5747TIP3    H138876   3.473   7.288   1.622 -1.2865  1.1824  0.0364
 5747TIP3    H238877   3.357   7.283   1.525 -0.2375  0.1569 -1.1780
 5748TIP3   OH238878   4.042   4.753   7.596 -0.0935  0.3743 -0.2073
 5748TIP3    H138879   4.054   4.683   7.660 -1.4449 -0.0110 -0.3656
 5748TIP3    H238880   4.089   4.723   7.518 -1.0393 -0.5600 -0.4228
 5749TIP3   OH238881   3.850   4.127   7.962  0.2975 -0.1024 -0.4000
 5749TIP3    H138882   3.754   4.134   7.955  0.3930 -0.2717 -2.2483
 5749TIP3    H238883   3.879   4.216   7.977 -0.1019  0.0899 -0.7422
 5750TIP3   OH238884   2.335   0.075   8.456  0.2651  0.1477 -0.5512
 5750TIP3    H138885   2.246   0.043   8.439 -0.3905  1.0767  1.0607
 5750TIP3    H238886   2.392   0.006   8.421 -1.0667 -0.2209 -2.0641
 5751TIP3   OH238887   2.777   3.224   1.284 -0.0407  0.0313  0.1416
 5751TIP3    H138888   2.743   3.259   1.202 -0.7105 -0.3798  0.2377
 5751TIP3    H238889   2.703   3.228   1.344 -0.7026 -3.1614 -0.3350
 5752TIP3   OH238890   3.201   5.070   2.077 -1.1397  0.2495  0.1700
 5752TIP3    H138891   3.146   5.148   2.070 -2.9897 -0.9703  0.7514
 5752TIP3    H238892   3.208   5.038   1.987 -2.2035 -0.1159  0.2029
 5753TIP3   OH238893   4.634   4.377   2.451 -0.2985  0.2338 -0.3530
 5753TIP3    H138894   4.541   4.396   2.462 -0.6129 -1.1772 -0.5039
 5753TIP3    H238895   4.662   4.344   2.536  0.6306  2.8313  0.4022
 5754TIP3   OH238896   4.725   2.465   8.196  0.0649  0.2195 -0.5384
 5754TIP3    H138897   4.638   2.431   8.174  0.0584 -1.3957  1.8150
 5754TIP3    H238898   4.781   2.388   8.202  1.2869  1.1002 -0.4049
 5755TIP3   OH238899   1.949   5.693   2.286 -0.2159 -0.3017 -0.1954
 5755TIP3    H138900   2.009   5.695   2.361 -0.0587  1.7392 -0.3620
 5755TIP3    H238901   1.876   5.749   2.312 -2.0888 -2.7100 -0.0215
 5756TIP3   OH238902   3.511   5.757   0.335  0.0130 -0.1253 -0.1347
 5756TIP3    H138903   3.508   5.727   0.244  0.4065  0.4546 -0.3451
 5756TIP3    H238904   3.582   5.822   0.336  0.7891 -0.9621  0.8325
 5757TIP3   OH238905   3.556   3.779   0.368 -0.3093 -0.4130  0.1308
 5757TIP3    H138906   3.639   3.811   0.404  1.2859 -2.2846 -1.7791
 5757TIP3    H238907   3.546   3.826   0.285 -0.8346 -0.6434  0.0628
 5758TIP3   OH238908   4.055   5.034   0.696  0.3269  0.2315  0.4431
 5758TIP3    H138909   4.109   5.111   0.714 -0.2943  0.9391 -0.6498
 5758TIP3    H238910   4.008   5.017   0.778 -0.0909  1.4636  0.4604
 5759TIP3   OH238911   3.302   2.642   1.694 -0.3452 -0.2935  0.1876
 5759TIP3    H138912   3.264   2.657   1.607 -1.3200 -1.1590  0.4497
 5759TIP3    H238913   3.261   2.707   1.750 -0.6277 -0.5213  0.2464
 5760TIP3   OH238914   0.917   4.484   8.346 -0.5260  0.2530  0.4369
 5760TIP3    H138915   1.007   4.477   8.378 -0.3269 -2.6381 -0.5688
 5760TIP3    H238916   0.921   4.547   8.274  0.9114 -0.5568 -0.2166
 5761TIP3   OH238917   2.794   5.004   0.236  0.6771 -0.3149  0.1619
 5761TIP3    H138918   2.840   5.029   0.155 -1.4722 -0.4835 -1.1552
 5761TIP3    H238919   2.793   5.084   0.288  1.9868 -0.1707 -0.0079
 5762TIP3   OH238920   4.964   4.164   1.073 -0.9863  0.1330 -0.2915
 5762TIP3    H138921   4.939   4.075   1.046 -1.0550 -0.1029  0.5271
 5762TIP3    H238922   4.946   4.218   0.996 -3.9586 -0.0396  0.2046
 5763TIP3   OH238923   5.806   5.084   8.112 -0.6719  0.7266 -0.6484
 5763TIP3    H138924   5.807   4.988   8.119 -3.0783  0.6587 -0.8538
 5763TIP3    H238925   5.720   5.109   8.144 -0.0204  2.8494 -0.5218
 5764TIP3   OH238926   0.142   4.063   0.675  0.7156 -0.5214  0.2360
 5764TIP3    H138927   0.094   3.982   0.660  0.0848 -0.1554  0.2364
 5764TIP3    H238928   0.153   4.100   0.587 -1.9113  1.0212  0.4848
 5765TIP3   OH238929   2.378   6.445   8.006 -0.5975 -0.5331  0.2540
 5765TIP3    H138930   2.468   6.454   7.975  0.0234 -0.1687  2.0681
 5765TIP3    H238931   2.384   6.389   8.084 -1.9900 -0.8320  0.1695
 5766TIP3   OH238932   1.620   4.959   8.376  0.5263  0.3438 -0.2960
 5766TIP3    H138933   1.684   4.917   8.319 -0.4651  0.1341 -1.2876
 5766TIP3    H238934   1.622   4.908   8.457  1.3582  0.1396 -0.4376
 5767TIP3   OH238935   2.153   6.221   1.259  0.4748  0.0150 -0.4188
 5767TIP3    H138936   2.239   6.193   1.291  1.5841  3.5067 -0.0894
 5767TIP3    H238937   2.170   6.305   1.217 -2.7069  0.4738 -0.9050
 5768TIP3   OH238938   2.461   4.726   1.712 -0.4941 -0.2825  0.4717
 5768TIP3    H138939   2.538   4.684   1.673  0.1058  1.4032 -0.2129
 5768TIP3    H238940   2.447   4.805   1.659 -2.6581 -0.5288  0.6375
 5769TIP3   OH238941   2.364   4.960   0.867 -0.4139 -0.9856  0.4715
 5769TIP3    H138942   2.457   4.980   0.872 -0.6257 -0.0043  0.6197
 5769TIP3    H238943   2.342   4.972   0.774 -1.4986  4.0464  1.2256
 5770TIP3   OH238944   2.967   6.374   2.083  0.8188  0.0048  0.1633
 5770TIP3    H138945   3.053   6.331   2.082  0.6534 -0.3258 -1.0497
 5770TIP3    H238946   2.905   6.302   2.081  0.5161  0.1914 -5.2099
 5771TIP3   OH238947   4.600   1.515   8.181  0.4379 -0.6685  0.7770
 5771TIP3    H138948   4.692   1.540   8.177  0.3365 -0.5726 -1.9659
 5771TIP3    H238949   4.597   1.428   8.141 -0.8043 -0.2208 -0.1471
 5772TIP3   OH238950   0.947   5.534   1.040  0.6333 -0.7912  0.1702
 5772TIP3    H138951   0.967   5.479   0.964 -0.7385 -0.8887 -0.1390
 5772TIP3    H238952   0.922   5.472   1.108 -0.0043 -0.5991  0.1105
 5773TIP3   OH238953   1.311   3.436   1.207 -0.1640 -0.2735 -0.5889
 5773TIP3    H138954   1.331   3.529   1.219 -1.6709  0.3514 -2.7156
 5773TIP3    H238955   1.332   3.418   1.116 -0.7313 -1.7969 -0.4294
 5774TIP3   OH238956   2.904   5.788   2.395 -0.7590  0.9926 -0.2563
 5774TIP3    H138957   2.948   5.859   2.443  0.5098  2.1927 -3.0441
 5774TIP3    H238958   2.966   5.715   2.398 -0.6895  1.0599 -0.0525
 5775TIP3   OH238959   2.965   5.652   0.878 -0.8732 -0.8068 -0.2369
 5775TIP3    H138960   2.975   5.680   0.787 -2.0761  0.4459  0.0029
 5775TIP3    H238961   2.886   5.696   0.908  1.0340  1.1085  2.2559
 5776TIP3   OH238962   2.870   5.950   2.165  0.0245  0.4180  0.2802
 5776TIP3    H138963   2.822   6.020   2.209  0.4610  0.7912  0.1628
 5776TIP3    H238964   2.875   5.880   2.230 -0.2138  0.5817  0.4764
 5777TIP3   OH238965   2.582   4.509   2.144 -0.4859  0.4373 -0.5323
 5777TIP3    H138966   2.536   4.554   2.214  0.7682 -0.4062  0.8717
 5777TIP3    H238967   2.597   4.421   2.178  2.5172  0.8151 -0.7313
 5778TIP3   OH238968   3.334   4.955   0.239 -0.0783 -0.5254 -0.4076
 5778TIP3    H138969   3.382   5.027   0.280  0.4104 -0.6555 -0.7555
 5778TIP3    H238970   3.398   4.884   0.232 -0.6373 -1.0901  0.1936
 5779TIP3   OH238971   3.883   6.991   1.890 -0.1510  0.3429 -0.4421
 5779TIP3    H138972   3.900   6.991   1.796  1.7616 -0.0113 -0.1244
 5779TIP3    H238973   3.926   7.070   1.922 -1.7675  1.0629 -0.0182
 5780TIP3   OH238974   6.916   4.132   8.276  0.3730 -0.3776  0.5689
 5780TIP3    H138975   6.924   4.119   8.181 -2.4874  0.1547  0.2119
 5780TIP3    H238976   6.970   4.208   8.295 -0.9059  0.9739 -1.0631
 5781TIP3   OH238977   3.932   3.007   0.849  0.5635 -0.6293 -0.1542
 5781TIP3    H138978   4.016   3.011   0.805  0.4261  3.4151 -0.2750
 5781TIP3    H238979   3.870   2.977   0.782  1.0002  1.7839 -1.6990
 5782TIP3   OH238980   4.460   2.405   8.078  0.1924  0.4357  0.3554
 5782TIP3    H138981   4.372   2.398   8.115  0.1881  0.6012  0.3774
 5782TIP3    H238982   4.447   2.401   7.983  0.1766  0.3084  0.3627
 5783TIP3   OH238983   1.917   3.846   2.180  0.1064  0.2033  0.2108
 5783TIP3    H138984   1.928   3.860   2.274  1.0064  0.6848  0.0399
 5783TIP3    H238985   1.852   3.912   2.154  0.4633  0.6138  0.3510
 5784TIP3   OH238986   3.849   2.636   1.307 -0.6908 -0.0278 -0.4135
 5784TIP3    H138987   3.806   2.689   1.374 -0.6880  1.1041 -1.2894
 5784TIP3    H238988   3.786   2.631   1.235  0.0964  0.5250 -1.1632
 5785TIP3   OH238989   2.931   3.000   1.115  0.5917 -0.3998  0.3163
 5785TIP3    H138990   2.994   3.072   1.124 -0.1875  0.1689  1.2800
 5785TIP3    H238991   2.878   3.023   1.039  0.8062 -0.3131  0.1922
 5786TIP3   OH238992   3.766   3.756   1.757 -0.1496  0.0159 -0.5357
 5786TIP3    H138993   3.715   3.807   1.694 -0.0970  1.3065  0.4401
 5786TIP3    H238994   3.743   3.793   1.843  2.4966  0.7292 -0.0750
 5787TIP3   OH238995   1.705   4.600   6.702 -0.1405  0.3230  0.1220
 5787TIP3    H138996   1.637   4.538   6.678  1.1036 -0.7088 -0.8378
 5787TIP3    H238997   1.715   4.591   6.796 -1.4708  0.6547  0.3103
 5788TIP3   OH238998   3.038   4.172   0.095  0.3722  0.2667 -0.5402
 5788TIP3    H138999   3.130   4.145   0.091  0.0277 -0.7026 -2.2632
 5788TIP3    H239000   3.041   4.267   0.085  1.0397  0.0026 -3.2129
 5789TIP3   OH239001   0.823   5.443   8.395  0.4400  0.3460 -0.1311
 5789TIP3    H139002   0.797   5.464   8.306  1.5488 -1.1882 -0.8417
 5789TIP3    H239003   0.879   5.516   8.422  0.4749  0.5857 -0.8608
 5790TIP3   OH239004   3.632   2.127   6.761  0.9366  0.0532  0.1364
 5790TIP3    H139005   3.701   2.135   6.828 -1.4159 -0.3604  2.6982
 5790TIP3    H239006   3.605   2.036   6.765  0.6832  0.0624 -1.2939
 5791TIP3   OH239007   2.871   4.703   0.956 -0.2740 -0.1953  0.0510
 5791TIP3    H139008   2.883   4.737   0.868  2.0787  0.5688  0.6228
 5791TIP3    H239009   2.884   4.779   1.013 -0.9558 -0.8423  1.0893
 5792TIP3   OH239010   2.372   4.024   0.703  0.5782  0.1558  0.3263
 5792TIP3    H139011   2.341   4.109   0.736  1.2801  0.8289 -0.7123
 5792TIP3    H239012   2.353   4.027   0.610  1.1906 -0.5765  0.1798
 5793TIP3   OH239013   3.525   2.948   1.606 -0.1827 -0.0712  0.0779
 5793TIP3    H139014   3.434   2.930   1.582 -0.2926  2.4779 -1.6414
 5793TIP3    H239015   3.519   3.006   1.682  0.0397 -0.4569  0.3956
 5794TIP3   OH239016   1.269   2.794   1.921  0.8436  1.1487  0.3856
 5794TIP3    H139017   1.364   2.811   1.924  1.0890  0.4362 -2.5849
 5794TIP3    H239018   1.235   2.858   1.860 -0.0862 -0.7559 -1.1379
 5795TIP3   OH239019   2.939   6.593   7.656  0.1065 -0.0963  0.0004
 5795TIP3    H139020   2.864   6.536   7.673  1.9378 -2.8816 -0.9483
 5795TIP3    H239021   2.912   6.646   7.580 -0.6339 -1.5965 -0.7965
 5796TIP3   OH239022   3.716   3.818   2.060  0.3365 -0.2290 -0.3307
 5796TIP3    H139023   3.738   3.784   2.147  2.0771  0.6146 -0.4181
 5796TIP3    H239024   3.656   3.891   2.078  3.4783  2.3092  0.4818
 5797TIP3   OH239025   1.210   6.068   2.340  0.3607 -0.6143 -0.4877
 5797TIP3    H139026   1.241   5.995   2.286 -0.1705 -1.3346  0.1802
 5797TIP3    H239027   1.289   6.115   2.364  0.7108 -0.9946 -0.8791
 5798TIP3   OH239028   6.445   4.482   1.375  0.4887 -0.0028  0.7861
 5798TIP3    H139029   6.421   4.523   1.292 -0.5875 -1.2995  0.4439
 5798TIP3    H239030   6.373   4.503   1.434  0.3270 -0.6922  0.8413
 5799TIP3   OH239031   4.996   6.143   0.739 -0.1646  0.1181 -0.3205
 5799TIP3    H139032   5.075   6.115   0.694 -0.8653 -0.5085 -1.1926
 5799TIP3    H239033   4.925   6.119   0.679 -0.9136  2.0080 -0.2175
 5800TIP3   OH239034   3.620   2.402   0.700 -0.1811  0.2436  0.0780
 5800TIP3    H139035   3.641   2.488   0.735 -0.2483  0.6207 -0.7843
 5800TIP3    H239036   3.679   2.392   0.625  0.2863 -0.7397  0.5652
 5801TIP3   OH239037   5.609   3.690   2.067 -0.0612 -0.5060  0.0166
 5801TIP3    H139038   5.535   3.744   2.094  0.3865 -0.1237  0.4916
 5801TIP3    H239039   5.591   3.603   2.102 -0.0995 -0.3215  0.4477
 5802TIP3   OH239040   5.373   4.015   8.433  0.0046  0.1597 -0.4956
 5802TIP3    H139041   5.410   4.102   8.448  1.0939 -0.3065 -0.3958
 5802TIP3    H239042   5.392   3.967   8.513  1.2845 -0.7961 -1.3510
 5803TIP3   OH239043   3.287   4.437   0.387  0.2934  0.1063 -0.4854
 5803TIP3    H139044   3.339   4.363   0.419  0.2765  1.3383  2.4972
 5803TIP3    H239045   3.352   4.498   0.352  0.8401  1.1133  2.1578
 5804TIP3   OH239046   4.442   5.425   8.349 -0.1832 -0.1766  0.2256
 5804TIP3    H139047   4.457   5.384   8.434 -1.3827 -0.3806  0.3536
 5804TIP3    H239048   4.528   5.428   8.308  0.2038 -1.2229  0.9375
 5805TIP3   OH239049   4.677   0.519   1.751 -0.0697  0.8774 -0.3904
 5805TIP3    H139050   4.599   0.464   1.750  1.2855 -1.0939 -0.9702
 5805TIP3    H239051   4.693   0.541   1.660  1.1147 -0.3075 -0.4829
 5806TIP3   OH239052   4.441   3.762   1.717  0.1164  0.1651  0.0394
 5806TIP3    H139053   4.474   3.731   1.632  0.1391 -0.9604  0.4524
 5806TIP3    H239054   4.520   3.774   1.770  0.2286  2.4179 -0.5917
 5807TIP3   OH239055   5.472   2.468   2.019 -0.2545 -0.0232  0.4171
 5807TIP3    H139056   5.498   2.519   2.096 -0.0886  0.6291 -0.0631
 5807TIP3    H239057   5.427   2.392   2.055 -0.2150  0.2964  1.1618
 5808TIP3   OH239058   2.510   4.156   1.972  0.1505  0.5256 -0.3412
 5808TIP3    H139059   2.493   4.251   1.969  0.4642  0.5583 -1.5254
 5808TIP3    H239060   2.550   4.141   2.057 -3.7195  0.7923  1.6148
 5809TIP3   OH239061   3.260   3.982   7.413  0.0470  0.2020  0.2756
 5809TIP3    H139062   3.203   3.960   7.340 -0.6552 -0.2244  0.9452
 5809TIP3    H239063   3.254   3.907   7.472 -0.4243  1.1091  1.4018
 5810TIP3   OH239064   2.122   4.223   1.124  0.6351 -0.1963  0.0304
 5810TIP3    H139065   2.066   4.174   1.064  0.7114  0.4532 -0.5828
 5810TIP3    H239066   2.191   4.162   1.148  0.2861 -0.6415 -0.0960
 5811TIP3   OH239067   5.421   2.799   7.755 -0.1999  0.2253  0.3187
 5811TIP3    H139068   5.437   2.802   7.661  2.6381 -1.5264  0.6715
 5811TIP3    H239069   5.397   2.708   7.773 -0.2555  0.4327  1.3477
 5812TIP3   OH239070   5.186   6.330   0.936  0.0243 -0.2787 -0.4139
 5812TIP3    H139071   5.250   6.267   0.903  0.3899  0.5672 -1.3259
 5812TIP3    H239072   5.235   6.388   0.993 -0.4923 -1.3569  1.1835
 5813TIP3   OH239073   4.248   3.645   0.232  0.6325  0.3618 -0.1577
 5813TIP3    H139074   4.339   3.646   0.203  1.1635 -0.0935  1.4547
 5813TIP3    H239075   4.235   3.730   0.273  0.8906 -0.2703  1.2625
 5814TIP3   OH239076   4.078   5.733   1.729  0.0731 -0.4580 -0.1100
 5814TIP3    H139077   4.106   5.787   1.655  0.5849 -2.8902 -1.7390
 5814TIP3    H239078   4.120   5.648   1.714 -1.5183 -1.6292  1.8726
 5815TIP3   OH239079   3.936   0.339   8.192 -0.7248 -0.3880 -1.0116
 5815TIP3    H139080   4.015   0.313   8.239  0.2517  1.5831 -1.4958
 5815TIP3    H239081   3.875   0.365   8.261 -0.3480 -0.3355 -0.6963
 5816TIP3   OH239082   4.477   3.469   1.910  0.1454  0.3135  0.0404
 5816TIP3    H139083   4.529   3.510   1.840 -0.7275  0.4391 -0.5334
 5816TIP3    H239084   4.539   3.411   1.954  0.5130 -0.3267 -1.2978
 5817TIP3   OH239085   4.482   1.535   8.435 -0.0624 -0.0990 -0.0768
 5817TIP3    H139086   4.542   1.556   8.364 -1.0819  1.1470 -0.5798
 5817TIP3    H239087   4.497   1.442   8.452  0.8743 -0.1756 -1.2628
 5818TIP3   OH239088   4.522   6.605   8.276  0.1219  0.1339 -0.1451
 5818TIP3    H139089   4.474   6.564   8.348 -1.0121  2.5062  0.5039
 5818TIP3    H239090   4.614   6.590   8.298 -0.2237  0.1995  1.4647
 5819TIP3   OH239091   3.816   5.750   1.777 -0.0235  0.2620  0.6621
 5819TIP3    H139092   3.792   5.717   1.690 -2.7616  0.3888  1.3287
 5819TIP3    H239093   3.911   5.756   1.774  0.0517 -1.2105 -1.7991
 5820TIP3   OH239094   6.135   4.245   8.121 -0.1770 -0.1521 -0.0691
 5820TIP3    H139095   6.086   4.251   8.203  0.5437 -2.5559  0.5582
 5820TIP3    H239096   6.078   4.289   8.057 -1.7736 -0.2471  1.2422
 5821TIP3   OH239097   5.566   5.431   1.161  0.4818  0.1693 -0.0767
 5821TIP3    H139098   5.482   5.472   1.179  0.3038 -0.3553  0.3053
 5821TIP3    H239099   5.571   5.427   1.065 -0.1106 -0.1677 -0.0949
 5822TIP3   OH239100   5.041   5.058   1.842  0.1421  0.1334 -0.3304
 5822TIP3    H139101   5.105   5.005   1.889  1.0823  0.6118 -1.0507
 5822TIP3    H239102   4.987   4.994   1.794  0.6333 -0.2287 -0.3992
 5823TIP3   OH239103   4.292   5.035   0.945 -0.7125  0.2308 -0.1785
 5823TIP3    H139104   4.327   5.018   0.858 -0.9786 -0.0293 -0.2355
 5823TIP3    H239105   4.244   4.955   0.968  0.2197 -0.1133  0.6285
 5824TIP3   OH239106   5.126   6.227   0.417 -0.1966 -0.4479  0.1081
 5824TIP3    H139107   5.084   6.154   0.371  2.6071 -1.4388 -0.9402
 5824TIP3    H239108   5.070   6.303   0.397 -0.1155 -1.2236 -3.3588
 5825TIP3   OH239109   3.287   6.668   0.156  0.0821  0.4176 -0.2124
 5825TIP3    H139110   3.230   6.684   0.231 -0.0251  1.5574 -0.5275
 5825TIP3    H239111   3.228   6.674   0.080  0.3355  0.0810 -0.4359
 5826TIP3   OH239112   6.025   5.485   7.690 -0.0101  0.5323 -0.1604
 5826TIP3    H139113   6.087   5.527   7.630  1.0143  1.0864  1.2595
 5826TIP3    H239114   6.047   5.520   7.776 -0.7122 -1.1177  0.7202
 5827TIP3   OH239115   5.405   4.404   7.311 -0.3125  0.4066  0.0684
 5827TIP3    H139116   5.456   4.366   7.239 -2.0251  0.2896 -1.1019
 5827TIP3    H239117   5.419   4.498   7.303  0.7181  0.2979  0.5220
 5828TIP3   OH239118   2.835   4.831   1.900  0.2865 -0.3282 -0.1306
 5828TIP3    H139119   2.786   4.748   1.906 -1.0288  0.4450  0.0668
 5828TIP3    H239120   2.813   4.865   1.813 -0.4447  0.5804  0.4043
 5829TIP3   OH239121   7.020   4.860   0.697 -0.6674  0.3756  0.2195
 5829TIP3    H139122   7.041   4.953   0.703 -0.9156  0.4617 -0.2593
 5829TIP3    H239123   6.942   4.850   0.752 -0.2796  0.3332  0.7699
 5830TIP3   OH239124   4.496   5.653   1.068 -0.0264 -0.3444  0.3265
 5830TIP3    H139125   4.512   5.563   1.097  1.0869 -0.4187 -0.4718
 5830TIP3    H239126   4.418   5.680   1.116  0.0920 -1.4596  1.1771
 5831TIP3   OH239127   4.470   3.739   1.388 -0.2305 -0.0530 -0.1496
 5831TIP3    H139128   4.424   3.658   1.366  0.0040 -0.2382  0.0495
 5831TIP3    H239129   4.401   3.798   1.420 -0.2418 -0.5183  0.6745
 5832TIP3   OH239130   2.698   7.248   8.032  0.0654  0.2432 -0.5091
 5832TIP3    H139131   2.719   7.310   7.962  1.1559  1.1921  0.6468
 5832TIP3    H239132   2.695   7.163   7.988  1.6955  0.7004 -1.5301
 5833TIP3   OH239133   4.886   5.441   2.320 -0.0426 -0.4271 -0.1303
 5833TIP3    H139134   4.888   5.367   2.380 -0.1739  0.4558  0.9816
 5833TIP3    H239135   4.951   5.502   2.354 -1.7468  1.1024  0.4557
 5834TIP3   OH239136   4.096   2.272   0.511 -0.5782 -0.3966  0.3131
 5834TIP3    H139137   4.104   2.280   0.416  0.4423 -1.1073  0.3273
 5834TIP3    H239138   4.078   2.361   0.541  1.6165  0.2969 -0.3302
 5835TIP3   OH239139   5.029   4.295   2.315  0.0531 -0.2428 -0.3052
 5835TIP3    H139140   4.958   4.357   2.331  1.0143  0.8751 -0.2679
 5835TIP3    H239141   5.001   4.214   2.356 -0.6648  0.5442  0.7643
 5836TIP3   OH239142   5.166   6.469   1.523 -0.0931 -0.4214 -0.4515
 5836TIP3    H139143   5.249   6.441   1.484 -1.2508 -3.9961 -0.6053
 5836TIP3    H239144   5.192   6.521   1.599  2.2420  0.2013 -1.6275
 5837TIP3   OH239145   3.706   4.294   7.295 -0.0459 -0.4960 -0.1268
 5837TIP3    H139146   3.736   4.362   7.235 -0.5351 -0.0454  0.1348
 5837TIP3    H239147   3.734   4.212   7.254 -0.4390 -0.1927 -1.0156
 5838TIP3   OH239148   5.116   4.956   2.360 -0.4183 -0.0309  0.3842
 5838TIP3    H139149   5.021   4.946   2.361 -0.2748 -1.8256 -1.1422
 5838TIP3    H239150   5.146   4.896   2.292  1.6459  1.9911 -0.5775
 5839TIP3   OH239151   5.567   5.540   1.733 -0.1579  0.5672 -0.5541
 5839TIP3    H139152   5.649   5.491   1.721 -0.8951 -1.0577  0.9525
 5839TIP3    H239153   5.550   5.578   1.647  1.4104 -0.2670 -1.2671
 5840TIP3   OH239154   4.073   5.418   2.646  0.6518 -0.6161 -0.2647
 5840TIP3    H139155   3.998   5.473   2.623  0.6819  0.0913  1.2955
 5840TIP3    H239156   4.045   5.329   2.625 -1.3101 -0.5759  1.9873
 5841TIP3   OH239157   5.526   4.322   1.627  0.1391 -0.2970  0.2770
 5841TIP3    H139158   5.594   4.333   1.694  0.7261 -3.0066  0.1779
 5841TIP3    H239159   5.525   4.406   1.580  1.6932  0.6376  1.8500
 5842TIP3   OH239160   4.528   5.387   1.157 -0.2246 -0.4652  0.2266
 5842TIP3    H139161   4.577   5.326   1.104 -0.5311 -1.2585  0.8433
 5842TIP3    H239162   4.436   5.363   1.143 -0.2610 -1.4497  2.0051
 5843TIP3   OH239163   6.838   6.050   6.705  0.2907  0.1001 -0.5554
 5843TIP3    H139164   6.797   5.995   6.638 -0.2158  1.0398 -1.0264
 5843TIP3    H239165   6.932   6.040   6.690  0.2574 -2.0227  0.4984
 5844TIP3   OH239166   4.827   4.496   2.310  0.5133  0.0824 -0.0669
 5844TIP3    H139167   4.783   4.578   2.287  1.5694  0.7862  0.3877
 5844TIP3    H239168   4.763   4.448   2.362 -0.4846  0.1563 -1.1947
 5845TIP3   OH239169   3.223   5.817   2.080  0.8621 -0.5098 -0.2162
 5845TIP3    H139170   3.269   5.757   2.138  2.5299  0.9599  0.0304
 5845TIP3    H239171   3.258   5.904   2.103 -0.2236  0.3554 -1.7483
 5846TIP3   OH239172   6.422   4.819   1.590 -0.4584  0.2590  1.0813
 5846TIP3    H139173   6.353   4.834   1.655 -0.8566  0.3864  0.6335
 5846TIP3    H239174   6.401   4.880   1.519 -1.9736 -2.2689 -0.6985
 5847TIP3   OH239175   3.833   4.629   2.371  0.3032 -0.0143  0.2582
 5847TIP3    H139176   3.757   4.687   2.381  1.1892  1.5322 -1.5523
 5847TIP3    H239177   3.908   4.685   2.393  1.1979 -0.3689 -1.8316
 5848TIP3   OH239178   4.932   5.303   6.996 -0.2992 -0.4087  0.1277
 5848TIP3    H139179   4.878   5.314   7.074 -1.1345  0.4860 -0.5741
 5848TIP3    H239180   4.908   5.217   6.962 -1.4695  0.0869 -0.3230
 5849TIP3   OH239181   3.921   7.303   1.646 -0.3604 -0.0808 -0.6665
 5849TIP3    H139182   3.871   7.377   1.679 -0.1800 -0.9732  1.6647
 5849TIP3    H239183   4.011   7.320   1.673  0.0672 -0.0643 -2.0547
 5850TIP3   OH239184   5.146   5.016   6.671 -0.5806 -0.1771  0.9181
 5850TIP3    H139185   5.146   5.103   6.632 -0.2774  0.8611  3.1556
 5850TIP3    H239186   5.054   4.997   6.689 -0.8220 -1.0697 -1.1191
 5851TIP3   OH239187   5.091   6.004   7.006  0.3176 -0.5050 -0.2073
 5851TIP3    H139188   5.076   6.091   6.971  0.4816 -0.1440  0.6058
 5851TIP3    H239189   5.132   5.956   6.934  0.2091  0.0807 -0.6620
 5852TIP3   OH239190   5.325   3.525   2.189 -0.2316  0.3371 -0.6158
 5852TIP3    H139191   5.420   3.513   2.186 -0.2531  0.2385 -0.9190
 5852TIP3    H239192   5.308   3.595   2.126 -0.2723  0.9232  0.0456
 5853TIP3   OH239193   3.288   4.656   1.902 -0.3310 -0.3305  0.4473
 5853TIP3    H139194   3.321   4.566   1.911  0.7253 -0.2160 -1.9237
 5853TIP3    H239195   3.340   4.706   1.964  0.2706 -1.0753  0.5575
 5854TIP3   OH239196   4.222   2.486   8.178 -0.3595 -0.0002 -0.1519
 5854TIP3    H139197   4.295   2.546   8.163 -1.1453  0.7436 -1.0527
 5854TIP3    H239198   4.182   2.518   8.259 -1.1010  1.0482 -0.9099
 5855TIP3   OH239199   4.849   4.426   2.065  0.6261 -0.1622  0.3463
 5855TIP3    H139200   4.923   4.369   2.084  1.4692  0.4060 -1.2115
 5855TIP3    H239201   4.830   4.469   2.149  0.4732 -2.1010  1.3515
 5856TIP3   OH239202   5.362   3.776   0.888  0.3529  0.4215 -0.1959
 5856TIP3    H139203   5.289   3.779   0.951 -0.2538  2.3044 -0.9494
 5856TIP3    H239204   5.439   3.762   0.943 -0.1031  2.5735  1.0932
 5857TIP3   OH239205   5.747   4.149   1.560  0.0633 -0.5933  0.1113
 5857TIP3    H139206   5.737   4.069   1.508  1.7919  0.0922 -1.3138
 5857TIP3    H239207   5.682   4.209   1.524 -1.0366 -1.2288  0.9898
 5858TIP3   OH239208   4.783   2.385   1.066 -0.0901  0.1840  0.6380
 5858TIP3    H139209   4.750   2.297   1.051  1.4457 -0.0227 -1.7713
 5858TIP3    H239210   4.877   2.374   1.079  0.5444  1.6676 -2.2703
 5859TIP3   OH239211   3.331   6.319   1.479  0.2315  0.3243  0.1603
 5859TIP3    H139212   3.399   6.266   1.437 -0.3838 -1.2088  1.0481
 5859TIP3    H239213   3.261   6.257   1.498 -1.0018  1.6967  0.1877
 5860TIP3   OH239214   3.874   5.701   8.214 -0.2333  0.3704  0.5153
 5860TIP3    H139215   3.895   5.671   8.303  0.9951 -1.9945 -0.5240
 5860TIP3    H239216   3.797   5.650   8.190  0.6552 -0.5312 -0.5065
 5861TIP3   OH239217   2.999   5.500   7.285  0.3915 -0.4486  0.0927
 5861TIP3    H139218   3.009   5.512   7.190  0.2608 -0.5639  0.0635
 5861TIP3    H239219   2.923   5.553   7.307  0.4130 -0.4349  0.1317
 5862TIP3   OH239220   5.141   4.482   2.021  0.3267  0.1604 -0.4591
 5862TIP3    H139221   5.197   4.414   2.057  0.0474  1.1075  1.8413
 5862TIP3    H239222   5.168   4.562   2.066 -1.1069  1.1024 -1.2252
 5863TIP3   OH239223   3.384   5.241   1.187  0.0724  0.0705 -0.2012
 5863TIP3    H139224   3.415   5.331   1.189 -1.4048  0.5728  3.5482
 5863TIP3    H239225   3.334   5.234   1.106  1.9248  1.9958 -1.5279
 5864TIP3   OH239226   1.966   5.403   1.686  0.2998 -0.2719 -0.4229
 5864TIP3    H139227   2.008   5.489   1.688  2.8472 -1.4647  1.1362
 5864TIP3    H239228   1.947   5.384   1.778 -1.3395 -0.8707 -0.8775
 5865TIP3   OH239229   3.870   5.801   2.269  0.2480  0.3878 -0.6954
 5865TIP3    H139230   3.797   5.862   2.262  0.0533  0.5246  1.8642
 5865TIP3    H239231   3.872   5.755   2.185 -2.3276  0.8756 -1.0534
 5866TIP3   OH239232   3.660   3.281   1.723 -0.0549  0.4590 -0.0280
 5866TIP3    H139233   3.636   3.294   1.631 -0.2258 -1.4901 -0.2720
 5866TIP3    H239234   3.599   3.214   1.755  0.6721  0.3702  1.2186
 5867TIP3   OH239235   2.788   2.608   0.547  0.7750 -0.3305  0.1068
 5867TIP3    H139236   2.728   2.553   0.497  1.7640 -0.3745 -1.0448
 5867TIP3    H239237   2.806   2.558   0.627 -0.3829 -0.4999  0.2626
 5868TIP3   OH239238   5.272   3.470   0.479 -0.6445 -0.4069  0.7030
 5868TIP3    H139239   5.226   3.520   0.546 -1.4924 -1.1076  0.6485
 5868TIP3    H239240   5.358   3.452   0.517 -0.2896  1.1599  0.6823
 5869TIP3   OH239241   5.046   5.046   1.482 -0.5963  0.2166 -0.5359
 5869TIP3    H139242   5.001   5.105   1.421 -0.3633  0.3190 -0.6089
 5869TIP3    H239243   4.976   5.012   1.538 -0.7440  0.4907 -0.5527
 5870TIP3   OH239244   4.315   5.100   0.509 -0.2918 -0.4213 -0.0976
 5870TIP3    H139245   4.304   5.185   0.550 -0.5849 -0.5058 -0.0008
 5870TIP3    H239246   4.226   5.074   0.484 -0.2223 -0.7801  0.0331
 5871TIP3   OH239247   4.094   4.410   1.290 -0.0960 -0.1250  0.2676
 5871TIP3    H139248   4.130   4.412   1.201 -3.1692  1.7842 -1.0358
 5871TIP3    H239249   4.049   4.326   1.296 -1.4258  0.4903 -0.6966
 5872TIP3   OH239250   4.579   4.663   0.868 -0.1421  0.3743  0.2719
 5872TIP3    H139251   4.537   4.731   0.814 -0.7876  0.0707  0.3891
 5872TIP3    H239252   4.663   4.648   0.825  0.1374  1.4576  0.4105
 5873TIP3   OH239253   4.444   6.237   1.850  0.0280 -0.1180  0.1417
 5873TIP3    H139254   4.367   6.203   1.896 -0.5874 -0.2683 -0.9803
 5873TIP3    H239255   4.490   6.289   1.916 -1.3068  0.3953  0.7000
 5874TIP3   OH239256   4.703   4.404   1.034 -0.0954 -0.2451  0.3300
 5874TIP3    H139257   4.637   4.470   1.013  0.6869  0.2160 -0.7155
 5874TIP3    H239258   4.689   4.335   0.970 -0.0017 -0.4700  0.5485
 5875TIP3   OH239259   4.175   5.467   2.410  0.3412  0.0042  0.2085
 5875TIP3    H139260   4.204   5.558   2.403  1.0822 -0.1621  1.0458
 5875TIP3    H239261   4.151   5.456   2.501 -1.0177 -0.2723 -0.1734
 5876TIP3   OH239262   4.146   4.627   1.416  0.5016  0.7011  0.0023
 5876TIP3    H139263   4.122   4.555   1.358 -2.0307  1.6381 -0.1924
 5876TIP3    H239264   4.177   4.696   1.357 -2.3719  1.7709 -0.3656
 5877TIP3   OH239265   4.407   3.135   0.544  0.7240  0.1688  0.2219
 5877TIP3    H139266   4.429   3.112   0.634 -0.2202  1.0190  0.6712
 5877TIP3    H239267   4.348   3.065   0.515 -0.0806  0.6359  0.7277
 5878TIP3   OH239268   4.917   5.172   1.271 -0.0954 -0.6609 -0.4908
 5878TIP3    H139269   4.938   5.265   1.283  1.1969 -1.0439  0.2018
 5878TIP3    H239270   4.821   5.169   1.281 -0.1504  0.5830 -0.4510
 5879TIP3   OH239271   4.523   4.764   8.473 -1.2341  0.5718 -0.1004
 5879TIP3    H139272   4.548   4.808   8.554 -0.9533  0.6389 -0.2210
 5879TIP3    H239273   4.600   4.712   8.449 -1.9575 -0.8685  0.6481
 5880TIP3   OH239274   5.969   4.774   2.061 -0.1300  0.0268  0.4291
 5880TIP3    H139275   5.967   4.682   2.037  1.6680 -0.0012  0.3696
 5880TIP3    H239276   5.893   4.785   2.119 -1.0412 -1.2083 -0.4998
 5881TIP3   OH239277   5.294   3.738   2.002 -0.2612  0.3385  0.0317
 5881TIP3    H139278   5.241   3.797   1.948  2.6382  2.6041 -0.4441
 5881TIP3    H239279   5.317   3.666   1.943  0.0725  1.0799 -0.7350
 5882TIP3   OH239280   3.779   6.217   1.316  0.3798  0.6642  0.8294
 5882TIP3    H139281   3.824   6.134   1.334  0.7977  0.4962 -0.9296
 5882TIP3    H239282   3.845   6.284   1.329  1.3532  0.3841 -2.2568
 5883TIP3   OH239283   4.569   4.552   1.661 -0.3362  0.2938 -0.0324
 5883TIP3    H139284   4.594   4.580   1.573 -0.2338 -1.5620 -0.6106
 5883TIP3    H239285   4.486   4.598   1.678  0.0798  1.3252 -0.7363
 5884TIP3   OH239286   3.883   5.636   2.031  0.4383 -0.0361  0.3792
 5884TIP3    H139287   3.906   5.543   2.032  0.8750  0.0686  0.5060
 5884TIP3    H239288   3.848   5.651   1.943  0.1433 -0.3734  0.4398
 5885TIP3   OH239289   6.781   0.460   7.057 -0.1076 -0.1115 -0.1592
 5885TIP3    H139290   6.768   0.368   7.036 -3.5333 -0.1030  1.6053
 5885TIP3    H239291   6.716   0.506   7.003  0.7272  1.1613 -0.0918
 5886TIP3   OH239292   3.341   5.426   8.403  0.0917 -0.3344 -0.0537
 5886TIP3    H139293   3.306   5.458   8.320 -1.6020  1.0757  1.1815
 5886TIP3    H239294   3.430   5.462   8.407 -1.5876  3.9349  1.0817
 5887TIP3   OH239295   4.720   6.339   2.011  0.2931 -0.4062 -0.4222
 5887TIP3    H139296   4.724   6.336   1.916  1.5944  0.3062 -0.3932
 5887TIP3    H239297   4.811   6.334   2.040  0.0524  1.2849  0.7118
 5888TIP3   OH239298   4.964   4.099   1.583 -0.2826  0.1746 -0.3425
 5888TIP3    H139299   4.958   4.121   1.490  0.9752 -1.1914 -0.7712
 5888TIP3    H239300   4.923   4.013   1.590  0.5027 -0.1646  0.1861
 5889TIP3   OH239301   5.414   1.635   0.626  0.0054 -0.3167  0.4236
 5889TIP3    H139302   5.344   1.584   0.584  0.6642 -2.0591  1.3714
 5889TIP3    H239303   5.379   1.657   0.712  0.0094  0.1822  0.2964
 5890TIP3   OH239304   6.140   6.088   0.029  0.0692 -0.2355  0.0051
 5890TIP3    H139305   6.070   6.022   0.026 -0.2317  0.1275 -1.0564
 5890TIP3    H239306   6.113   6.148   0.099 -0.5208 -0.2727 -0.1868
 5891TIP3   OH239307   4.238   6.551   7.670  0.3348  0.1018  0.7151
 5891TIP3    H139308   4.236   6.457   7.653  0.3397 -0.1720  2.2211
 5891TIP3    H239309   4.264   6.589   7.586 -0.9622 -1.1267 -0.2676
 5892TIP3   OH239310   5.830   3.588   1.568 -0.5794 -0.5401  0.0620
 5892TIP3    H139311   5.771   3.514   1.573 -1.9381  0.3140 -2.6069
 5892TIP3    H239312   5.777   3.663   1.594 -0.2223  0.0184 -0.8165
 5893TIP3   OH239313   3.525   3.228   0.739  0.2182 -0.0529  0.1432
 5893TIP3    H139314   3.568   3.314   0.742  0.3813 -0.1839  2.2343
 5893TIP3    H239315   3.505   3.209   0.830 -0.0866 -2.1170 -0.3499
 5894TIP3   OH239316   5.341   4.245   0.890  0.5549  0.0401 -0.0656
 5894TIP3    H139317   5.290   4.194   0.828 -0.0846 -0.4872  0.8836
 5894TIP3    H239318   5.282   4.314   0.919  0.0818 -1.0858  1.6879
 5895TIP3   OH239319   4.722   2.384   7.683  0.4128 -0.0179 -0.7635
 5895TIP3    H139320   4.691   2.318   7.620 -2.5618 -0.6148  1.2392
 5895TIP3    H239321   4.807   2.350   7.712  0.1021 -1.6706 -1.6892
 5896TIP3   OH239322   5.196   4.369   1.580  0.1361 -0.8117  0.5669
 5896TIP3    H139323   5.147   4.417   1.646  0.1500  0.3818 -0.2688
 5896TIP3    H239324   5.135   4.358   1.507  0.6211 -0.7034  0.1423
 5897TIP3   OH239325   3.308   5.906   0.897  0.1157 -0.5498  0.8396
 5897TIP3    H139326   3.331   5.829   0.845 -0.7497 -1.8472  2.3347
 5897TIP3    H239327   3.352   5.892   0.980  0.0739  0.6674  1.0702
 5898TIP3   OH239328   3.336   5.705   1.310  0.3725  0.0992 -0.2662
 5898TIP3    H139329   3.278   5.630   1.297  2.1208 -1.2075 -0.7305
 5898TIP3    H239330   3.279   5.774   1.344 -1.1470 -1.6314  0.7707
 5899TIP3   OH239331   4.973   3.287   8.151  0.3461  0.2202 -0.1954
 5899TIP3    H139332   5.019   3.353   8.203 -0.4366  0.9352 -0.4044
 5899TIP3    H239333   4.935   3.336   8.078 -1.3935 -0.2413  0.3835
 5900TIP3   OH239334   4.813   3.348   0.385 -0.3339 -0.4524 -0.1529
 5900TIP3    H139335   4.800   3.275   0.446 -2.0030 -0.0406  0.0012
 5900TIP3    H239336   4.905   3.372   0.396 -0.6275 -0.3552  2.2320
 5901TIP3   OH239337   5.989   5.400   1.983 -0.2739  0.0677 -0.1035
 5901TIP3    H139338   6.001   5.389   2.077  1.1349 -1.2800 -0.4151
 5901TIP3    H239339   6.037   5.326   1.944 -1.8150 -0.0620 -1.8218
 5902TIP3   OH239340   5.251   4.011   1.873  0.7985 -0.1519 -0.9085
 5902TIP3    H139341   5.276   4.027   1.782  0.9541 -0.1267 -0.8610
 5902TIP3    H239342   5.180   4.073   1.890  3.8220  3.0709  0.4098
 5903TIP3   OH239343   4.307   6.045   2.270  0.3503  0.4717 -0.1502
 5903TIP3    H139344   4.397   6.054   2.237 -0.3109  0.6285 -1.9961
 5903TIP3    H239345   4.260   6.118   2.231 -0.6362  0.2588  0.6204
 5904TIP3   OH239346   4.075   3.590   1.639  0.0382 -0.6943  0.1696
 5904TIP3    H139347   4.158   3.545   1.655  0.2025 -0.7722 -0.8717
 5904TIP3    H239348   4.008   3.526   1.665  0.2935 -0.8623  0.4212
 5905TIP3   OH239349   3.746   5.905   7.227  0.1587  0.1633 -0.3394
 5905TIP3    H139350   3.748   5.845   7.301 -0.5902 -0.4140 -0.7821
 5905TIP3    H239351   3.798   5.863   7.159  1.3672  0.9801  0.0656
 5906TIP3   OH239352   3.386   5.016   0.664 -0.3516  0.4102 -0.3976
 5906TIP3    H139353   3.462   5.039   0.611  1.6707  0.9328  2.6572
 5906TIP3    H239354   3.411   4.935   0.708 -2.2727 -0.3946 -0.7491
 5907TIP3   OH239355   5.578   2.712   1.826 -0.5551  0.1638 -0.6887
 5907TIP3    H139356   5.486   2.689   1.828 -1.0881  2.1389 -1.6079
 5907TIP3    H239357   5.581   2.798   1.784  1.8631 -0.6863 -2.3619
 5908TIP3   OH239358   4.695   1.684   2.006  0.6928 -0.0067  0.1513
 5908TIP3    H139359   4.785   1.650   2.013  0.0476 -1.2154  3.0676
 5908TIP3    H239360   4.706   1.771   1.968  2.9924 -0.6336 -0.7376
 5909TIP3   OH239361   5.133   4.511   7.962  0.0214  0.7079 -0.3043
 5909TIP3    H139362   5.093   4.596   7.943 -0.2194  0.4903 -0.7694
 5909TIP3    H239363   5.076   4.447   7.919  1.5820  0.4641 -2.1006
 5910TIP3   OH239364   4.272   4.615   0.922  0.2387 -0.1010 -0.3449
 5910TIP3    H139365   4.218   4.624   0.844  0.9232 -1.7172 -1.0357
 5910TIP3    H239366   4.362   4.629   0.891  0.2938  2.2399  0.7261
 5911TIP3   OH239367   3.998   5.295   1.621 -0.1964  0.1049 -0.4362
 5911TIP3    H139368   4.064   5.268   1.557 -0.4656 -1.9091  0.0766
 5911TIP3    H239369   4.047   5.342   1.688  0.5292 -0.2373 -0.7202
 5912TIP3   OH239370   4.565   5.454   1.427  0.1184  0.3022 -0.0284
 5912TIP3    H139371   4.550   5.430   1.335  1.8332 -0.4781 -0.1164
 5912TIP3    H239372   4.482   5.434   1.471  0.4600 -2.7756 -0.7170
 5913TIP3   OH239373   3.721   5.241   1.160 -0.0845  0.2001  0.1435
 5913TIP3    H139374   3.656   5.290   1.110  1.0453  0.8050 -0.7583
 5913TIP3    H239375   3.784   5.211   1.095  0.5133 -0.4232  0.9991
 5914TIP3   OH239376   4.713   2.979   8.426  0.0527 -0.1839 -0.3724
 5914TIP3    H139377   4.728   3.067   8.462  1.7777  0.0717 -1.6378
 5914TIP3    H239378   4.772   2.922   8.477 -0.3646 -0.4509 -0.1915
 5915TIP3   OH239379   5.249   4.172   8.191  0.2274  0.0003  0.1186
 5915TIP3    H139380   5.185   4.241   8.207  0.9417  0.5644  0.5820
 5915TIP3    H239381   5.333   4.214   8.204  0.6587 -1.0792  0.8786
 5916TIP3   OH239382   6.021   1.431   0.934 -0.9234 -0.0158 -0.2208
 5916TIP3    H139383   6.088   1.437   0.865 -0.6898  1.4528  0.1201
 5916TIP3    H239384   6.070   1.435   1.016 -1.4390  1.4291  0.0324
 5917TIP3   OH239385   5.572   5.990   0.174 -0.4459 -0.4607  0.4260
 5917TIP3    H139386   5.522   5.923   0.221 -0.9414  1.5157  2.8052
 5917TIP3    H239387   5.633   5.941   0.120 -2.3222 -2.8671  0.4105
 5918TIP3   OH239388   4.977   2.852   7.718 -0.3195  0.1861 -0.2720
 5918TIP3    H139389   5.027   2.921   7.674 -0.5672  1.8947  2.0466
 5918TIP3    H239390   4.911   2.899   7.769 -1.6059 -1.8638 -0.0095
 5919TIP3   OH239391   4.168   3.800   1.794 -0.0086  0.3765 -0.4001
 5919TIP3    H139392   4.118   3.746   1.733  0.2631 -0.8181  0.4282
 5919TIP3    H239393   4.258   3.797   1.760 -0.0039  0.3614 -0.3862
 5920TIP3   OH239394   3.267   2.239   8.103 -0.3206  0.5419  0.1294
 5920TIP3    H139395   3.313   2.185   8.167 -0.4199  2.4460  1.8369
 5920TIP3    H239396   3.304   2.327   8.114  0.7605  0.6604 -3.4770
 5921TIP3   OH239397   3.255   4.594   0.993 -0.8078  0.6647  0.0586
 5921TIP3    H139398   3.209   4.529   0.940 -1.1320  0.1500  0.9596
 5921TIP3    H239399   3.282   4.546   1.072  1.6232  0.8341 -0.6042
 5922TIP3   OH239400   5.984   2.520   1.935 -0.3763  0.6694  0.1516
 5922TIP3    H139401   5.998   2.482   2.022 -0.9972 -1.0268 -0.4670
 5922TIP3    H239402   5.913   2.584   1.948  0.0339  0.9550  1.0245
 5923TIP3   OH239403   4.100   6.261   2.535  0.1020  0.5745 -0.0941
 5923TIP3    H139404   4.066   6.193   2.476  0.1599 -1.4388  2.1022
 5923TIP3    H239405   4.169   6.304   2.485 -1.1858  0.2615 -2.2153
 5924TIP3   OH239406   5.993   0.069   6.573 -0.3213 -0.0563 -0.2546
 5924TIP3    H139407   6.043   0.019   6.508  0.9189 -0.6945  1.1706
 5924TIP3    H239408   5.928   0.007   6.607  1.6084 -0.9421  1.9502
 5925TIP3   OH239409   6.534   4.839   7.736  0.5211  0.0836  0.3571
 5925TIP3    H139410   6.567   4.901   7.801  0.4620 -1.1996  1.6408
 5925TIP3    H239411   6.455   4.880   7.700  0.3298  0.6146  1.3927
 5926TIP3   OH239412   5.323   4.121   1.599 -0.1740 -0.9631 -0.3183
 5926TIP3    H139413   5.401   4.146   1.649 -1.3937 -1.7059  2.0449
 5926TIP3    H239414   5.275   4.203   1.587  0.0388 -0.8043 -0.0963
 5927TIP3   OH239415   3.755   6.338   1.711  0.1342 -0.2981 -0.3668
 5927TIP3    H139416   3.687   6.396   1.675  0.2120 -0.9946 -1.6753
 5927TIP3    H239417   3.783   6.380   1.792 -2.8165 -0.6686  0.9038
 5928TIP3   OH239418   4.604   3.460   1.316 -0.2986  0.4940 -0.5087
 5928TIP3    H139419   4.652   3.387   1.354  0.8425  1.4032 -0.1593
 5928TIP3    H239420   4.514   3.450   1.348 -0.3079 -1.0908 -0.9818
 5929TIP3   OH239421   3.950   2.583   8.302 -0.4705  0.2333  0.4493
 5929TIP3    H139422   3.948   2.677   8.321 -1.2380  0.4675 -0.7662
 5929TIP3    H239423   3.935   2.577   8.208 -1.5367 -1.1503  0.6904
 5930TIP3   OH239424   4.756   6.698   0.833  0.4043  0.2895  0.4074
 5930TIP3    H139425   4.840   6.662   0.804  0.1436 -0.5918  0.7257
 5930TIP3    H239426   4.723   6.746   0.758  0.9883  0.2592  0.1303
 5931TIP3   OH239427   3.954   6.462   1.876 -0.2509 -0.4691  0.5517
 5931TIP3    H139428   3.978   6.495   1.963 -0.2845  2.0096 -0.3362
 5931TIP3    H239429   3.978   6.532   1.816 -1.4718 -1.5868 -1.3094
 5932TIP3   OH239430   3.706   6.043   1.092 -0.3856 -0.1293  0.6591
 5932TIP3    H139431   3.721   6.109   1.160  0.0427 -0.0852  0.5249
 5932TIP3    H239432   3.667   6.092   1.019 -0.4727 -0.1037  0.7222
 5933TIP3   OH239433   5.374   6.729   0.804  0.0613 -0.0026 -0.5184
 5933TIP3    H139434   5.399   6.792   0.737  0.5453 -0.1072 -0.4365
 5933TIP3    H239435   5.428   6.751   0.880 -1.6281  1.1447  0.3899
 5934TIP3   OH239436   4.744   4.323   0.545  0.3928 -0.2430 -0.0239
 5934TIP3    H139437   4.812   4.390   0.546  0.1182  0.0474 -0.9874
 5934TIP3    H239438   4.664   4.370   0.521  0.0764 -0.8061 -0.0843
 5935TIP3   OH239439   5.412   4.533   2.245  0.5108 -0.6960  1.2143
 5935TIP3    H139440   5.371   4.553   2.329  0.2031 -0.8251  1.0919
 5935TIP3    H239441   5.394   4.441   2.230 -0.9901 -0.2467  0.1430
 5936TIP3   OH239442   4.188   4.410   1.852 -0.3448 -0.2133  0.5337
 5936TIP3    H139443   4.282   4.390   1.859 -0.6342 -1.9130 -0.1381
 5936TIP3    H239444   4.167   4.395   1.760 -1.1980  0.5961  0.5899
 5937TIP3   OH239445   2.709   3.314   7.530 -0.0408 -0.1871  0.1561
 5937TIP3    H139446   2.758   3.382   7.484 -0.3002 -0.4277 -0.4795
 5937TIP3    H239447   2.626   3.307   7.482 -0.8965  0.5447  1.5057
 5938TIP3   OH239448   4.334   6.205   1.216 -0.1800 -1.1505 -0.5912
 5938TIP3    H139449   4.392   6.150   1.269 -1.7169 -1.2369  1.0426
 5938TIP3    H239450   4.264   6.146   1.188 -1.6427 -0.1690  0.8613
 5939TIP3   OH239451   5.831   5.155   1.759  0.1628  0.3914 -0.3168
 5939TIP3    H139452   5.872   5.069   1.760  0.8110  0.7135  0.9495
 5939TIP3    H239453   5.808   5.172   1.850 -1.5243  0.8240 -0.7952
 5940TIP3   OH239454   3.470   3.695   1.179  0.4315  0.8133 -0.2701
 5940TIP3    H139455   3.441   3.614   1.136  0.7977  0.6062 -0.1328
 5940TIP3    H239456   3.391   3.731   1.217  0.2958  0.4199 -0.1766
 5941TIP3   OH239457   4.306   3.948   1.396 -0.5860 -0.1674  0.0125
 5941TIP3    H139458   4.343   4.027   1.433 -1.7711  0.0354  0.8107
 5941TIP3    H239459   4.252   3.978   1.323 -0.3434 -0.3198 -0.2303
 5942TIP3   OH239460   4.023   1.122   7.901 -0.3527  0.2603 -0.0200
 5942TIP3    H139461   3.977   1.038   7.895  1.2595 -0.5175 -2.1866
 5942TIP3    H239462   4.116   1.099   7.896  0.1359  2.1420  0.0055
 5943TIP3   OH239463   5.297   3.946   1.237  0.2181  0.0218  0.0847
 5943TIP3    H139464   5.296   3.851   1.244  1.5989  0.0111  0.4216
 5943TIP3    H239465   5.276   3.964   1.146 -1.1404 -0.5556  0.2761
 5944TIP3   OH239466   5.131   3.315   2.156  0.8870  0.7514 -0.5576
 5944TIP3    H139467   5.189   3.391   2.156  0.1801  1.2993  0.3157
 5944TIP3    H239468   5.043   3.351   2.142  0.6405  0.0134 -0.9848
 5945TIP3   OH239469   4.006   4.145   1.312  0.1229  0.1576  0.5517
 5945TIP3    H139470   4.037   4.172   1.398  0.5417 -0.3440  0.5594
 5945TIP3    H239471   4.002   4.049   1.317 -1.2936  0.2002  0.5087
 5946TIP3   OH239472   4.269   4.545   2.334  0.0860 -0.4184 -0.2570
 5946TIP3    H139473   4.280   4.505   2.420  1.2847  0.2685 -0.0796
 5946TIP3    H239474   4.201   4.611   2.348 -1.2961 -1.8064 -0.3610
 5947TIP3   OH239475   5.064   2.831   0.216 -0.2676 -0.6362  0.5522
 5947TIP3    H139476   5.153   2.851   0.187 -0.5887 -2.0273 -1.4812
 5947TIP3    H239477   5.031   2.914   0.250 -0.1166  1.2908 -3.7772
 5948TIP3   OH239478   3.778   3.498   1.891  0.1435 -0.3777 -0.3282
 5948TIP3    H139479   3.778   3.590   1.864  0.1715 -0.7065 -1.4652
 5948TIP3    H239480   3.740   3.451   1.817 -1.5261 -1.0943  0.9651
 5949TIP3   OH239481   3.836   0.578   0.541  0.2253 -0.4854  0.0096
 5949TIP3    H139482   3.754   0.540   0.573  0.3154 -1.1047 -0.4876
 5949TIP3    H239483   3.827   0.672   0.559 -0.3076 -0.6394  0.5665
 5950TIP3   OH239484   4.024   5.581   1.389  0.3190  0.8700 -0.9623
 5950TIP3    H139485   4.105   5.576   1.440  0.5085  0.7617 -1.2721
 5950TIP3    H239486   4.002   5.489   1.371 -0.2710  0.8642 -0.2584
 5951TIP3   OH239487   4.747   4.198   1.262  0.0532 -0.5848  0.0419
 5951TIP3    H139488   4.768   4.286   1.294  0.2937 -0.9834  1.0047
 5951TIP3    H239489   4.807   4.184   1.189  0.3852 -0.1556  0.2303
 5952TIP3   OH239490   4.279   6.079   8.414 -0.1353 -0.0755  0.0904
 5952TIP3    H139491   4.353   6.118   8.460 -0.0792  2.6269 -2.1329
 5952TIP3    H239492   4.318   6.037   8.337 -0.5616 -1.7129  0.7482
 5953TIP3   OH239493   5.315   4.762   1.193  0.2418  0.2162 -0.2344
 5953TIP3    H139494   5.402   4.749   1.157  0.1783 -0.1487 -0.2527
 5953TIP3    H239495   5.296   4.855   1.176  0.8845  0.4571  0.3526
 5954TIP3   OH239496   0.726   6.164   0.874 -0.0669 -0.3430 -0.1997
 5954TIP3    H139497   0.738   6.140   0.782 -1.0840 -1.8568  0.0330
 5954TIP3    H239498   0.631   6.162   0.886  0.0469  0.2112  0.7972
 5955TIP3   OH239499   5.342   4.915   2.512  0.5468  0.3442  0.7525
 5955TIP3    H139500   5.412   4.964   2.470  1.9349 -1.1814  1.2605
 5955TIP3    H239501   5.262   4.944   2.467  1.4026  2.5793  0.6238
 5956TIP3   OH239502   7.017   0.281   8.081  0.3159  0.3831  0.2044
 5956TIP3    H139503   6.977   0.320   8.003  0.6677 -0.2432 -0.2874
 5956TIP3    H239504   6.942   0.253   8.134  0.0694  1.1003  0.2483
 5957TIP3   OH239505   5.990   4.973   7.047 -0.1282  0.1721  0.2563
 5957TIP3    H139506   5.911   5.020   7.020  0.5119  1.5086  0.6656
 5957TIP3    H239507   6.058   5.040   7.050  0.6100 -0.6137  1.6940
 5958TIP3   OH239508   6.798   5.188   0.418  0.8044 -0.2720 -0.1522
 5958TIP3    H139509   6.789   5.233   0.502 -1.1288 -0.7503 -0.0809
 5958TIP3    H239510   6.712   5.197   0.377  1.4940 -0.7495 -1.7277
 5959TIP3   OH239511   5.231   3.697   1.113  0.4773  0.0225 -0.8214
 5959TIP3    H139512   5.144   3.660   1.131 -0.0062  1.0159 -1.0643
 5959TIP3    H239513   5.292   3.634   1.151 -0.2811 -1.6517 -2.3167
 5960TIP3   OH239514   6.034   5.756   7.319  0.3012 -0.4092  0.3853
 5960TIP3    H139515   6.056   5.823   7.255  2.1679  0.0498  1.4782
 5960TIP3    H239516   6.022   5.676   7.268  2.7034 -0.2539 -0.4436
 5961TIP3   OH239517   4.984   5.799   0.690 -0.2179  0.7811  0.0569
 5961TIP3    H139518   5.063   5.836   0.729 -0.0719  1.8604 -1.2264
 5961TIP3    H239519   4.989   5.705   0.709  2.1362  0.6032 -1.2997
 5962TIP3   OH239520   6.328   4.950   0.942  0.0520  0.0772 -0.2243
 5962TIP3    H139521   6.314   4.856   0.937 -0.8677  0.1401  0.8885
 5962TIP3    H239522   6.416   4.964   0.909  0.8538 -1.3749  1.2545
 5963TIP3   OH239523   4.141   6.037   1.133  0.4857 -0.3230  0.4067
 5963TIP3    H139524   4.105   5.963   1.182 -1.7708 -0.6848 -1.7288
 5963TIP3    H239525   4.216   6.001   1.086  0.5365 -0.7815  0.8381
 5964TIP3   OH239526   6.564   5.803   0.763  0.6669 -0.3619 -0.5723
 5964TIP3    H139527   6.518   5.881   0.731 -0.3361 -0.5613  0.3426
 5964TIP3    H239528   6.523   5.785   0.848  1.3079 -1.5275 -0.5088
 5965TIP3   OH239529   6.011   5.405   0.324  0.2630 -0.5478  0.2669
 5965TIP3    H139530   6.002   5.344   0.250  0.5836  0.8825 -0.9689
 5965TIP3    H239531   6.082   5.368   0.377 -0.5272 -2.0375  0.3213
 5966TIP3   OH239532   4.436   4.893   8.009 -0.1003  0.2486 -0.7519
 5966TIP3    H139533   4.422   4.799   7.994 -0.5746 -0.2515  2.3560
 5966TIP3    H239534   4.512   4.896   8.066 -0.6998  1.6850 -0.0114
 5967TIP3   OH239535   4.477   6.432   1.176 -0.1164  0.2924 -0.2920
 5967TIP3    H139536   4.438   6.345   1.184  1.0342 -0.0613  1.7861
 5967TIP3    H239537   4.506   6.437   1.085 -1.3710 -0.9602 -0.7848
 5968TIP3   OH239538   4.557   2.789   8.331 -0.5184  0.5744  0.1130
 5968TIP3    H139539   4.614   2.739   8.273 -0.9453  0.1226  0.0739
 5968TIP3    H239540   4.609   2.865   8.357 -0.4560  0.9721 -1.1464
 5969TIP3   OH239541   6.504   5.992   2.057  0.1230  0.2208  0.2486
 5969TIP3    H139542   6.527   5.908   2.097  1.4833  0.2407 -0.4393
 5969TIP3    H239543   6.467   5.969   1.972  0.0762  0.3004  0.2475
 5970TIP3   OH239544   5.065   3.834   2.151  0.4106  0.2922 -0.1913
 5970TIP3    H139545   5.145   3.793   2.118  2.0812  2.1920  1.3882
 5970TIP3    H239546   5.046   3.789   2.233  0.1955  0.2564 -0.2595
 5971TIP3   OH239547   4.208   4.994   1.699  0.6010 -0.0730 -0.3344
 5971TIP3    H139548   4.229   5.086   1.715 -1.2935  0.4590 -0.7367
 5971TIP3    H239549   4.150   4.970   1.772 -0.1266 -0.5034 -1.0465
 5972TIP3   OH239550   3.762   4.596   0.879 -0.3780  0.3207 -0.4779
 5972TIP3    H139551   3.702   4.566   0.811  0.2728 -2.5094  0.1015
 5972TIP3    H239552   3.843   4.616   0.832 -1.1223  2.2079 -1.0008
 5973TIP3   OH239553   1.984   4.390   0.428 -0.1190  0.1920  0.9078
 5973TIP3    H139554   1.936   4.330   0.485 -0.4807  0.5247  0.9539
 5973TIP3    H239555   1.942   4.475   0.441  1.6481  0.8533  2.2769
 5974TIP3   OH239556   4.295   4.688   1.645  0.4194 -0.3341  0.2174
 5974TIP3    H139557   4.259   4.771   1.676 -0.0358 -0.1408 -0.8096
 5974TIP3    H239558   4.247   4.669   1.564 -2.3648 -3.6722  2.5050
 5975TIP3   OH239559   0.179   5.793   1.566  0.6669 -0.3287  0.1032
 5975TIP3    H139560   0.144   5.879   1.592 -0.9862 -0.9189 -0.1440
 5975TIP3    H239561   0.208   5.753   1.648  2.7427  1.0225  0.0593
 5976TIP3   OH239562   6.057   4.518   8.450 -0.8620 -0.0687  0.2257
 5976TIP3    H139563   6.112   4.554   8.380  0.1841 -1.5108  0.2721
 5976TIP3    H239564   6.019   4.594   8.493  0.1235  0.9064 -0.6146
 5977TIP3   OH239565   4.398   3.244   0.123  0.1916  0.2787  0.6336
 5977TIP3    H139566   4.411   3.158   0.163  1.0481 -0.6236 -1.4839
 5977TIP3    H239567   4.437   3.306   0.185 -0.3613 -0.8555  2.1342
 5978TIP3   OH239568   4.501   6.028   1.381 -0.0985  0.9980  0.2585
 5978TIP3    H139569   4.503   6.045   1.475 -0.9328  2.0113  0.1098
 5978TIP3    H239570   4.498   5.933   1.373  1.5947  0.8493  1.2158
 5979TIP3   OH239571   3.887   3.223   1.265  0.2303  0.2571  0.1172
 5979TIP3    H139572   3.824   3.153   1.247  0.9714  0.3031 -2.9208
 5979TIP3    H239573   3.972   3.184   1.243  0.7288  1.8155 -0.8165
 5980TIP3   OH239574   5.745   5.265   1.346 -0.0636  0.3751  0.4372
 5980TIP3    H139575   5.673   5.285   1.285  0.0459  1.8055  0.7631
 5980TIP3    H239576   5.766   5.173   1.329 -3.1436 -0.5910  1.5451
 5981TIP3   OH239577   3.641   5.130   1.993 -0.1012  0.7359 -0.4218
 5981TIP3    H139578   3.716   5.109   1.937  0.1926 -0.1334  0.2782
 5981TIP3    H239579   3.635   5.056   2.054 -0.1816  1.8366  0.9425
 5982TIP3   OH239580   5.229   6.329   8.365 -0.0469  0.2077  0.1407
 5982TIP3    H139581   5.188   6.416   8.365  1.0739  0.7616 -1.3637
 5982TIP3    H239582   5.259   6.317   8.275  3.0056 -0.2156  1.1790
 5983TIP3   OH239583   6.514   4.438   7.065 -0.0847  0.3963 -0.1793
 5983TIP3    H139584   6.595   4.429   7.115 -0.6466  2.9857  1.3130
 5983TIP3    H239585   6.543   4.457   6.976  0.9283 -1.7146 -0.3186
 5984TIP3   OH239586   5.719   1.864   0.212  0.8827 -0.3738 -0.0893
 5984TIP3    H139587   5.761   1.808   0.278  1.9656  0.1077 -0.3610
 5984TIP3    H239588   5.702   1.946   0.258  0.1356 -0.6021  0.0486
 5985TIP3   OH239589   3.407   6.436   1.043 -0.3008  0.3211 -0.2465
 5985TIP3    H139590   3.328   6.466   0.999 -1.6587 -0.4779  1.5698
 5985TIP3    H239591   3.433   6.508   1.100 -0.5985  0.0198  0.2773
 5986TIP3   OH239592   1.903   4.653   2.190  0.3599 -0.3520 -0.3151
 5986TIP3    H139593   1.857   4.737   2.199  0.3571 -0.3705 -0.1600
 5986TIP3    H239594   1.990   4.670   2.226  1.1623  0.2608 -2.4615
 5987TIP3   OH239595   3.713   5.285   0.247  0.1204  0.0092 -0.1756
 5987TIP3    H139596   3.808   5.295   0.255  0.2929 -1.8704  0.4519
 5987TIP3    H239597   3.677   5.327   0.326  0.3318  1.9244 -1.0896
 5988TIP3   OH239598   5.243   5.605   8.101 -0.6636  0.5143  0.2722
 5988TIP3    H139599   5.287   5.687   8.124  0.3042  0.4809 -1.3488
 5988TIP3    H239600   5.301   5.564   8.037  0.4430 -2.9548  3.2972
 5989TIP3   OH239601   4.468   5.723   7.615 -0.1782  0.1703 -0.1898
 5989TIP3    H139602   4.494   5.784   7.684  0.1887 -0.7598  0.5040
 5989TIP3    H239603   4.509   5.640   7.639 -1.3692 -0.5730 -0.6743
 5990TIP3   OH239604   5.588   4.217   1.020 -0.2055  0.3447  0.5880
 5990TIP3    H139605   5.551   4.239   1.105  1.7833  1.8007  1.0946
 5990TIP3    H239606   5.521   4.244   0.957 -1.2824  0.1330  1.6160
 5991TIP3   OH239607   3.731   5.228   6.993  0.1734 -0.3265 -0.4428
 5991TIP3    H139608   3.780   5.156   6.956 -0.5837  0.3551 -2.8989
 5991TIP3    H239609   3.640   5.211   6.967  0.0050  1.5310 -1.1585
 5992TIP3   OH239610   3.760   5.957   0.387 -0.1816  0.4157 -0.7750
 5992TIP3    H139611   3.734   5.994   0.303  2.5841  1.0290 -1.4134
 5992TIP3    H239612   3.778   6.033   0.442  3.3231  0.0877 -1.3774
 5993TIP3   OH239613   4.696   3.077   1.112 -0.1949  0.3318  0.4897
 5993TIP3    H139614   4.690   3.151   1.052 -0.7494 -0.0491  0.0732
 5993TIP3    H239615   4.609   3.070   1.150  0.1124  0.4678  1.2161
 5994TIP3   OH239616   5.068   4.754   1.526 -0.1341  0.5898 -0.1688
 5994TIP3    H139617   5.152   4.706   1.528 -1.1731 -1.2379  0.8574
 5994TIP3    H239618   5.026   4.724   1.446 -0.0167  1.1417 -0.4363
 5995TIP3   OH239619   4.999   3.572   1.176 -0.5463  0.3471 -0.0226
 5995TIP3    H139620   4.999   3.498   1.237 -2.8023 -0.2228 -0.6758
 5995TIP3    H239621   4.934   3.549   1.110  2.1978  0.6926 -2.9853
 5996TIP3   OH239622   4.117   4.922   7.791 -0.3873 -0.0296 -0.1310
 5996TIP3    H139623   4.128   4.895   7.699 -0.2820 -1.8924  0.4000
 5996TIP3    H239624   4.203   4.954   7.817 -0.5174  0.8887 -0.7826
 5997TIP3   OH239625   4.291   6.005   6.988  0.3359  0.1159 -0.3553
 5997TIP3    H139626   4.369   6.024   7.041  0.2433 -0.6871  0.0755
 5997TIP3    H239627   4.219   6.005   7.051  0.3639 -1.9008 -0.2896
 5998TIP3   OH239628   3.976   3.063   2.162 -0.1721 -0.3553  0.1279
 5998TIP3    H139629   3.927   3.039   2.241 -1.0754  0.1256 -0.2860
 5998TIP3    H239630   3.966   3.158   2.155  2.2141 -0.0066  0.9631
 5999TIP3   OH239631   2.612   2.086   1.012  0.1276  0.2794  0.2098
 5999TIP3    H139632   2.599   2.000   1.054 -1.0785 -0.4938 -1.6884
 5999TIP3    H239633   2.707   2.098   1.011  0.3283 -1.1394  0.3146
 6000TIP3   OH239634   4.279   4.442   7.786 -0.0130 -0.2608  0.2739
 6000TIP3    H139635   4.339   4.406   7.850  0.1813  0.2211  0.3694
 6000TIP3    H239636   4.294   4.390   7.707 -0.0447 -0.6614  0.5297
 6001TIP3   OH239637   4.844   5.546   8.402  0.2580 -0.4054 -0.4238
 6001TIP3    H139638   4.837   5.459   8.442 -2.1750  0.4080  1.0157
 6001TIP3    H239639   4.855   5.605   8.477 -0.0715  0.7131 -1.2500
 6002TIP3   OH239640   3.260   3.409   8.485 -0.0506  0.3299 -0.0079
 6002TIP3    H139641   3.278   3.496   8.449  0.5437  0.7199  1.2039
 6002TIP3    H239642   3.172   3.388   8.454 -0.8590  2.0757  1.0178
 6003TIP3   OH239643   4.472   4.182   8.392  0.4206  0.6210  0.2916
 6003TIP3    H139644   4.446   4.092   8.371  1.0927  0.7289 -1.1047
 6003TIP3    H239645   4.525   4.174   8.471  0.4901 -0.2255  0.1648
 6004TIP3   OH239646   3.596   4.571   7.474  0.0189 -0.0175 -0.0304
 6004TIP3    H139647   3.649   4.642   7.511  2.1017 -0.9644 -1.1088
 6004TIP3    H239648   3.651   4.534   7.405 -2.5088 -0.3445 -1.9313
 6005TIP3   OH239649   5.280   7.023   0.339  0.0496  0.0091  0.5033
 6005TIP3    H139650   5.263   6.978   0.257  1.3470 -3.7684  2.1909
 6005TIP3    H239651   5.366   7.063   0.328  0.0297 -0.1072 -0.0823
 6006TIP3   OH239652   3.135   3.595   1.898  0.0036  0.6198 -0.2450
 6006TIP3    H139653   3.222   3.621   1.928  0.7179 -1.2516 -0.6131
 6006TIP3    H239654   3.093   3.677   1.872  1.8068  1.5003 -0.4580
 6007TIP3   OH239655   3.934   5.862   0.993  0.0573 -0.1872  0.8026
 6007TIP3    H139656   3.848   5.899   1.011  0.7926  1.2913  1.3744
 6007TIP3    H239657   3.970   5.842   1.079  1.3625  1.7606  0.7573
 6008TIP3   OH239658   4.465   6.282   7.202  0.1740 -0.3780  0.2427
 6008TIP3    H139659   4.472   6.374   7.177  1.3903 -0.9833 -1.7110
 6008TIP3    H239660   4.372   6.261   7.188 -0.0681  0.4741  0.5106
 6009TIP3   OH239661   4.672   2.131   1.082  0.3719  0.0215  0.3772
 6009TIP3    H139662   4.702   2.165   1.166  2.1880 -0.9725  0.1391
 6009TIP3    H239663   4.577   2.143   1.084  0.5668  1.4134  1.9315
 6010TIP3   OH239664   4.172   4.140   0.183  0.4919 -0.1189 -0.0470
 6010TIP3    H139665   4.109   4.195   0.228  0.3303 -0.8877  0.6699
 6010TIP3    H239666   4.175   4.175   0.094  0.8730  1.4574  0.5691
 6011TIP3   OH239667   0.225   3.697   0.920  0.1326  0.4324 -0.2889
 6011TIP3    H139668   0.162   3.625   0.925 -1.0651  1.4465 -0.4937
 6011TIP3    H239669   0.189   3.756   0.854  1.6712  0.6767 -0.9316
 6012TIP3   OH239670   6.803   4.167   1.203 -0.2038 -0.1769  0.2322
 6012TIP3    H139671   6.802   4.149   1.109  0.9453  0.2881  0.1238
 6012TIP3    H239672   6.893   4.146   1.230 -0.2544  0.6523  1.0388
 6013TIP3   OH239673   4.992   3.275   0.728 -0.1356  0.3949 -0.2409
 6013TIP3    H139674   5.000   3.185   0.761  0.5069  0.1063 -1.1232
 6013TIP3    H239675   5.049   3.327   0.785  0.4281  0.0262 -0.4586
 6014TIP3   OH239676   1.179   3.919   0.395  0.4484 -0.7929  0.4147
 6014TIP3    H139677   1.257   3.916   0.450  0.0837 -0.1777  0.9846
 6014TIP3    H239678   1.109   3.887   0.453  0.2452 -1.1673 -0.0349
 6015TIP3   OH239679   4.661   4.092   0.092  0.3819  0.2277 -0.2218
 6015TIP3    H139680   4.609   4.053   0.162  0.2590  3.4129  1.5776
 6015TIP3    H239681   4.732   4.030   0.076  0.3596 -0.5967  2.6951
 6016TIP3   OH239682   2.971   4.351   1.077 -0.0522 -0.3685 -0.1481
 6016TIP3    H139683   3.000   4.324   0.990  1.1328  0.9614 -0.1774
 6016TIP3    H239684   2.927   4.435   1.064  1.6419  0.6809  0.7514
 6017TIP3   OH239685   4.470   3.935   0.236  0.3757 -0.0717 -0.2728
 6017TIP3    H139686   4.469   3.886   0.319 -2.7254  1.0943  0.4671
 6017TIP3    H239687   4.464   3.867   0.169  0.2770 -0.9360  0.5832
 6018TIP3   OH239688   0.440   5.294   7.985 -0.1637  0.0693  0.0442
 6018TIP3    H139689   0.386   5.219   8.008 -0.2588 -0.6793 -2.4768
 6018TIP3    H239690   0.497   5.263   7.914  1.3308  1.7449  0.4648
 6019TIP3   OH239691   5.394   4.177   1.333 -0.0180 -0.3555 -0.0451
 6019TIP3    H139692   5.369   4.092   1.297  2.5081 -1.7592  1.3376
 6019TIP3    H239693   5.370   4.173   1.425  3.4846 -1.1179  0.9348
 6020TIP3   OH239694   6.802   5.479   7.392  0.9991  0.0532 -0.1929
 6020TIP3    H139695   6.738   5.409   7.378  0.4621  0.4888  0.0815
 6020TIP3    H239696   6.782   5.543   7.324 -0.1625  1.1272  1.1263
 6021TIP3   OH239697   7.113   3.727   0.703 -0.1529 -0.3285  0.3491
 6021TIP3    H139698   7.117   3.651   0.761 -0.0357  0.4981  1.4440
 6021TIP3    H239699   7.026   3.765   0.717 -0.0741 -0.0436  0.0930
 6022TIP3   OH239700   5.538   6.417   8.202  0.8201 -0.0126  0.4158
 6022TIP3    H139701   5.612   6.366   8.235 -0.2047 -1.4302  0.5750
 6022TIP3    H239702   5.574   6.467   8.129  1.8360 -1.0199  0.2125
 6023TIP3   OH239703   4.959   2.699   0.954  0.3664  0.0290  0.1260
 6023TIP3    H139704   4.979   2.676   0.864 -0.8267 -1.4180  0.2164
 6023TIP3    H239705   5.029   2.659   1.005  0.8842  0.6068 -0.1214
 6024TIP3   OH239706   5.346   3.431   0.219 -0.3466  0.0596 -0.2903
 6024TIP3    H139707   5.440   3.438   0.236 -0.0833 -2.3851 -0.5577
 6024TIP3    H239708   5.304   3.461   0.300  0.7163 -1.4951  0.8554
 6025TIP3   OH239709   5.319   2.978   0.595 -0.6613  0.1315 -0.2832
 6025TIP3    H139710   5.233   2.937   0.583 -0.6083  0.3186 -1.3650
 6025TIP3    H239711   5.329   3.035   0.519  1.0304 -0.9918 -0.9375
 6026TIP3   OH239712   7.314   4.969   8.214 -0.7548 -0.4472 -0.5630
 6026TIP3    H139713   7.360   5.053   8.222 -1.3170 -0.2301  0.3448
 6026TIP3    H239714   7.245   4.986   8.150 -0.7936 -0.2612 -0.4704
 6027TIP3   OH239715   7.072   4.638   1.668  0.2838 -0.0391 -0.1979
 6027TIP3    H139716   7.080   4.670   1.578  0.2534 -0.2150 -0.2650
 6027TIP3    H239717   7.157   4.654   1.708  1.2825 -2.6454 -1.1454
 6028TIP3   OH239718   5.166   1.687   0.802 -0.2703 -0.3064 -0.8530
 6028TIP3    H139719   5.110   1.690   0.879 -0.3003  2.3353 -0.9295
 6028TIP3    H239720   5.150   1.770   0.757  1.5463 -0.7528 -2.4221
 6029TIP3   OH239721   5.609   4.117   0.544  0.1711 -0.2306 -0.2802
 6029TIP3    H139722   5.689   4.158   0.577  0.8310 -0.9973 -0.9119
 6029TIP3    H239723   5.539   4.175   0.574  0.8720 -0.1219  1.1944
 6030TIP3   OH239724   5.170   2.618   8.396 -0.0737  0.0425  0.1780
 6030TIP3    H139725   5.165   2.589   8.305 -0.2598  0.6957 -0.0209
 6030TIP3    H239726   5.084   2.597   8.432 -1.1394  2.7344 -0.6894
 6031TIP3   OH239727   5.991   6.189   6.461 -0.0230  1.0690  0.2107
 6031TIP3    H139728   6.032   6.109   6.426  1.1510  1.7198  0.0715
 6031TIP3    H239729   5.916   6.157   6.512 -0.4770 -0.0241 -1.1197
 6032TIP3   OH239730   6.406   6.022   0.685 -0.4912  0.4882 -0.0915
 6032TIP3    H139731   6.419   6.042   0.592 -2.3381 -1.5190 -0.8446
 6032TIP3    H239732   6.310   6.023   0.695 -0.2937  0.8715  1.8441
 6033TIP3   OH239733   5.109   3.715   2.595  0.2159 -0.6310  0.1019
 6033TIP3    H139734   5.119   3.771   2.673 -0.5468  0.1250 -0.3370
 6033TIP3    H239735   5.160   3.760   2.527  0.6246 -1.1267  0.0822
 6034TIP3   OH239736   5.424   6.420   0.324  0.2589  0.3403 -0.2570
 6034TIP3    H139737   5.346   6.364   0.331  1.0041 -0.5714  0.8168
 6034TIP3    H239738   5.463   6.396   0.240 -1.0111  1.3352 -1.1626
 6035TIP3   OH239739   1.526   5.107   1.431 -0.3316 -0.1429  0.3276
 6035TIP3    H139740   1.605   5.158   1.448  0.6797 -1.7979  0.7952
 6035TIP3    H239741   1.457   5.172   1.416  0.8819  1.3324  1.0301
 6036TIP3   OH239742   1.962   5.445   0.362  0.4004 -0.6350 -0.3075
 6036TIP3    H139743   1.871   5.473   0.352  0.1579 -1.5243 -0.6754
 6036TIP3    H239744   1.978   5.445   0.456  0.0196 -0.4906 -0.2434
 6037TIP3   OH239745   7.003   6.175   8.467 -0.6104 -0.3337 -0.5752
 6037TIP3    H139746   6.940   6.116   8.428  0.0818 -1.4984  0.0360
 6037TIP3    H239747   6.973   6.187   8.557 -0.8088  0.3327 -0.7272
 6038TIP3   OH239748   6.677   4.425   7.733 -0.0537 -0.5903  0.1610
 6038TIP3    H139749   6.735   4.368   7.784  2.0888 -0.2311 -1.7705
 6038TIP3    H239750   6.625   4.364   7.681  0.7006 -0.8673 -0.2848
 6039TIP3   OH239751   1.489   3.341   1.643  0.8802  0.4068  0.1731
 6039TIP3    H139752   1.463   3.424   1.684  0.7816 -0.3641  1.6785
 6039TIP3    H239753   1.540   3.295   1.710  0.5098 -0.9710 -0.4709
 6040TIP3   OH239754   3.557   4.106   0.770  0.9038 -0.2945  0.3437
 6040TIP3    H139755   3.541   4.021   0.811  0.7737 -0.4516 -0.0234
 6040TIP3    H239756   3.650   4.105   0.749  0.5441 -1.0976 -1.3055
 6041TIP3   OH239757   0.453   3.935   0.657  0.4251 -0.3145 -0.0197
 6041TIP3    H139758   0.368   3.976   0.677  1.3356  1.5207  0.1588
 6041TIP3    H239759   0.475   3.887   0.736 -0.5215 -0.9323 -0.1209
 6042TIP3   OH239760   4.013   5.294   0.262  0.1858  0.2941  0.3651
 6042TIP3    H139761   4.067   5.288   0.183  1.0126  2.3980  0.7109
 6042TIP3    H239762   4.033   5.215   0.311 -0.1985 -0.9464 -1.4354
 6043TIP3   OH239763   6.072   4.438   0.790 -0.2549 -0.6903 -0.2670
 6043TIP3    H139764   6.068   4.413   0.883 -1.5486  2.2800  0.5318
 6043TIP3    H239765   6.163   4.421   0.765  0.9233  1.2328  2.4194
 6044TIP3   OH239766   5.929   4.469   1.394  0.5261  0.2067 -0.4023
 6044TIP3    H139767   5.998   4.533   1.412  0.6221 -0.2671  0.9597
 6044TIP3    H239768   5.970   4.384   1.410  0.2380 -0.1835 -1.6774
 6045TIP3   OH239769   6.704   5.894   1.398 -0.4304 -0.3792  0.1508
 6045TIP3    H139770   6.796   5.890   1.426 -0.6766 -1.1196  0.8508
 6045TIP3    H239771   6.693   5.817   1.343  0.0333  1.0293 -1.9886
 6046TIP3   OH239772   0.388   5.756   8.087 -0.3550  0.1560  0.9070
 6046TIP3    H139773   0.412   5.665   8.107 -2.0411 -0.1875  1.4119
 6046TIP3    H239774   0.404   5.802   8.169  0.7033  0.3799  0.5913
 6047TIP3   OH239775   6.003   4.245   8.374  0.2647 -0.4883  0.4281
 6047TIP3    H139776   6.023   4.164   8.421  0.1093 -0.7770 -0.0017
 6047TIP3    H239777   6.018   4.314   8.438  2.9026 -0.6675  0.0904
 6048TIP3   OH239778   6.731   5.716   2.172  0.4147 -0.4220 -0.3525
 6048TIP3    H139779   6.720   5.624   2.148 -0.1550 -1.0460  2.2156
 6048TIP3    H239780   6.797   5.716   2.241  0.1317  1.0568 -0.0552
 6049TIP3   OH239781   0.700   6.421   1.211  0.1175  0.3391  0.0011
 6049TIP3    H139782   0.683   6.433   1.305 -0.6926  2.2300 -0.3607
 6049TIP3    H239783   0.666   6.334   1.192  0.7030 -0.2529  1.5631
 6050TIP3   OH239784   5.706   5.812   2.009  0.1998 -0.5139 -0.2056
 6050TIP3    H139785   5.710   5.776   2.097  0.1971 -0.3995 -0.1585
 6050TIP3    H239786   5.630   5.869   2.010 -0.2863 -1.1549 -0.5263
 6051TIP3   OH239787   0.031   5.077   7.537  0.5496  0.5846  0.2463
 6051TIP3    H139788   0.027   5.167   7.571 -0.5303  0.8044 -0.4208
 6051TIP3    H239789  -0.039   5.074   7.471  0.4833 -0.7849  0.3734
 6052TIP3   OH239790   6.248   5.300   0.441 -0.4212  0.3600 -0.3865
 6052TIP3    H139791   6.287   5.313   0.355  1.3224 -0.6400  0.2431
 6052TIP3    H239792   6.321   5.300   0.502 -1.7152  2.0375  1.2443
 6053TIP3   OH239793   5.656   5.569   1.395  0.4543 -0.0997  0.7787
 6053TIP3    H139794   5.607   5.516   1.333  0.8775  0.2899  0.1062
 6053TIP3    H239795   5.589   5.624   1.436  0.4071  0.9462 -0.6586
 6054TIP3   OH239796   4.566   4.956   7.754 -0.0670  0.3100 -0.0993
 6054TIP3    H139797   4.502   4.952   7.825  0.3082  2.4746  0.3634
 6054TIP3    H239798   4.628   4.885   7.774 -0.7692 -0.0324  0.9200
 6055TIP3   OH239799   1.006   5.349   0.835 -0.6026  0.0583  0.4861
 6055TIP3    H139800   0.923   5.304   0.850 -0.2313 -0.2476  1.6435
 6055TIP3    H239801   1.073   5.282   0.847 -0.2073  0.1074 -1.2517
 6056TIP3   OH239802   6.924   5.354   2.103 -0.6677 -0.0486  0.0048
 6056TIP3    H139803   6.985   5.427   2.110  0.9913 -1.3230 -0.8582
 6056TIP3    H239804   6.856   5.374   2.167  0.6788  1.3581  1.0457
 6057TIP3   OH239805   6.261   6.321   7.609  0.6087  0.6600 -0.7399
 6057TIP3    H139806   6.257   6.341   7.702 -0.0246 -1.7066 -0.2354
 6057TIP3    H239807   6.351   6.344   7.584  1.3659 -0.4685  0.8694
 6058TIP3   OH239808   5.557   6.318   1.016  0.0373 -0.4960 -0.5866
 6058TIP3    H139809   5.574   6.270   1.097 -0.4930  0.4108  0.0798
 6058TIP3    H239810   5.507   6.257   0.962  1.2663 -1.4622 -0.6395
 6059TIP3   OH239811   0.122   0.237   6.649  0.0422 -0.0109  0.0239
 6059TIP3    H139812   0.123   0.141   6.652 -1.3107 -0.0887 -1.0063
 6059TIP3    H239813   0.088   0.257   6.562  0.9430  1.4213 -0.0088
 6060TIP3   OH239814   0.378   5.400   1.661  0.7180  0.0507 -0.1803
 6060TIP3    H139815   0.451   5.393   1.722  0.6806 -0.8834 -0.2349
 6060TIP3    H239816   0.326   5.473   1.694  0.3525 -0.8522  1.2737
 6061TIP3   OH239817   5.086   3.641   0.634  0.0954 -0.5670  0.4749
 6061TIP3    H139818   4.998   3.678   0.623  0.7316  1.4949  1.9708
 6061TIP3    H239819   5.089   3.615   0.726 -0.2356 -4.2214 -0.4806
 6062TIP3   OH239820   4.743   2.538   8.472 -0.0907  0.2019 -0.5851
 6062TIP3    H139821   4.756   2.631   8.486 -1.1296  0.0584  1.5816
 6062TIP3    H239822   4.753   2.526   8.378 -0.4809  2.5816 -0.9572
 6063TIP3   OH239823   6.258   3.272   0.438  0.2442 -0.2531  0.2774
 6063TIP3    H139824   6.277   3.225   0.520  0.9729 -0.0735  0.2212
 6063TIP3    H239825   6.314   3.350   0.443 -1.1348  0.7307  0.4775
 6064TIP3   OH239826   6.058   3.892   1.765 -0.1421 -0.3270 -0.3743
 6064TIP3    H139827   6.063   3.926   1.676 -2.5466  0.1551 -0.3529
 6064TIP3    H239828   6.145   3.908   1.801 -0.0319  2.2909 -1.6393
 6065TIP3   OH239829   7.297   6.281   0.073  0.6414  0.2682 -0.0627
 6065TIP3    H139830   7.376   6.316   0.033 -0.0979  0.3024 -1.5132
 6065TIP3    H239831   7.325   6.198   0.112  1.4261  0.3511 -0.4394
 6066TIP3   OH239832   6.905   4.383   0.989  0.5056 -0.1577  0.0698
 6066TIP3    H139833   6.830   4.435   0.961  0.2536 -0.5938 -0.0842
 6066TIP3    H239834   6.926   4.414   1.077 -1.4205 -1.7068  1.1180
 6067TIP3   OH239835   6.482   5.778   2.277 -0.4037 -0.1484  0.8524
 6067TIP3    H139836   6.574   5.766   2.256  0.0610 -0.2883  2.8270
 6067TIP3    H239837   6.449   5.689   2.293 -0.3550  0.0486  2.1333
 6068TIP3   OH239838   5.915   3.443   0.664  0.0268  0.1081 -0.1695
 6068TIP3    H139839   5.913   3.348   0.657  0.4521 -0.1290  2.2266
 6068TIP3    H239840   5.992   3.469   0.613  0.9883 -1.0248  0.6666
 6069TIP3   OH239841   5.378   6.076   7.689 -0.2987 -0.3249 -0.3111
 6069TIP3    H139842   5.392   6.037   7.603 -0.9434  0.2208 -0.6637
 6069TIP3    H239843   5.463   6.070   7.732  0.4066  0.7841 -1.5404
 6070TIP3   OH239844   1.441   6.901   2.067 -0.7822 -0.3634 -0.2984
 6070TIP3    H139845   1.347   6.921   2.073 -0.3327  1.6403  0.5405
 6070TIP3    H239846   1.480   6.946   2.142  1.0065 -0.1790 -1.3022
 6071TIP3   OH239847   0.355   2.960   2.237  0.7376 -0.0548 -0.0224
 6071TIP3    H139848   0.369   3.046   2.275  3.3160 -0.6528  0.4359
 6071TIP3    H239849   0.315   2.909   2.308 -1.0605  0.7874 -0.3828
 6072TIP3   OH239850   1.297   5.278   1.428 -0.5684 -0.0879  0.3969
 6072TIP3    H139851   1.246   5.292   1.348  0.2436  0.4919 -0.0260
 6072TIP3    H239852   1.262   5.340   1.491  0.7848  1.5526 -0.4380
 6073TIP3   OH239853   5.695   3.805   1.684 -0.3126 -0.5713  0.4507
 6073TIP3    H139854   5.651   3.851   1.613 -0.9335 -2.0403 -0.1483
 6073TIP3    H239855   5.731   3.874   1.740 -1.2812  0.6148 -0.3739
 6074TIP3   OH239856   0.508   5.567   1.032  0.1942 -0.6574 -0.4042
 6074TIP3    H139857   0.556   5.625   1.092  1.6116 -1.2979 -0.8936
 6074TIP3    H239858   0.428   5.616   1.011  0.7249  0.5315  0.2525
 6075TIP3   OH239859   4.966   5.081   0.884 -0.2193  0.2770  0.0178
 6075TIP3    H139860   5.053   5.042   0.896  0.0947  1.1697  0.7213
 6075TIP3    H239861   4.905   5.015   0.914  0.3625  0.8110  2.4960
 6076TIP3   OH239862   0.905   5.025   7.331  0.4991 -0.0438  0.3570
 6076TIP3    H139863   0.869   5.014   7.243  1.1372  1.5142 -0.1240
 6076TIP3    H239864   0.830   5.017   7.389  0.4649 -3.9048 -0.0691
 6077TIP3   OH239865   5.638   6.419   0.721 -0.0016 -0.3438  0.6480
 6077TIP3    H139866   5.703   6.478   0.759 -0.1651  0.2093  0.0930
 6077TIP3    H239867   5.589   6.386   0.796 -0.0710  0.4289  0.9517
 6078TIP3   OH239868   4.320   5.001   0.005  0.0605 -0.2815  0.0689
 6078TIP3    H139869   4.256   4.932  -0.012 -0.4419  0.4304 -0.9713
 6078TIP3    H239870   4.391   4.984  -0.057  0.2446 -0.2605  0.2742
 6079TIP3   OH239871   4.947   2.178   0.708  0.1731 -0.0889 -0.0693
 6079TIP3    H139872   4.895   2.131   0.642 -0.6426 -0.4390  0.8175
 6079TIP3    H239873   4.966   2.113   0.775  0.5722  0.3936  0.2885
 6080TIP3   OH239874   6.621   3.497   0.557  0.1497 -0.1311  0.3137
 6080TIP3    H139875   6.549   3.516   0.617 -0.4797 -0.4668 -0.3236
 6080TIP3    H239876   6.700   3.506   0.610 -0.3889 -0.2174  1.1349
 6081TIP3   OH239877   5.222   3.080   1.176 -0.0202  0.0597 -0.7917
 6081TIP3    H139878   5.202   3.118   1.262  2.5142 -2.4559  0.9998
 6081TIP3    H239879   5.141   3.035   1.150 -1.3507  2.2246 -0.5562
 6082TIP3   OH239880   6.700   5.463   2.249  0.3774 -0.3454 -0.2499
 6082TIP3    H139881   6.726   5.413   2.327  0.3418 -0.7401 -0.4897
 6082TIP3    H239882   6.606   5.473   2.258  0.4571  0.1265  0.0605
 6083TIP3   OH239883   6.237   3.611   1.790 -0.2245  0.1710 -0.1024
 6083TIP3    H139884   6.305   3.607   1.857  0.8216  1.7414 -1.0379
 6083TIP3    H239885   6.239   3.701   1.758 -0.7435 -0.5212 -2.2030
 6084TIP3   OH239886   5.801   5.303   0.875 -0.4536 -0.4574  0.1048
 6084TIP3    H139887   5.735   5.248   0.833  0.7040 -2.4175  0.8316
 6084TIP3    H239888   5.820   5.260   0.958  2.0658 -0.1892 -0.2946
 6085TIP3   OH239889   5.619   2.471   7.717  0.2476  0.3508  0.3304
 6085TIP3    H139890   5.558   2.398   7.731 -0.6786  1.2372  0.9519
 6085TIP3    H239891   5.589   2.513   7.636  1.6013 -0.7506 -0.7851
 6086TIP3   OH239892   4.402   3.060   8.268 -0.4229  0.1925  0.1789
 6086TIP3    H139893   4.387   3.141   8.318 -0.9787  0.4251 -0.3556
 6086TIP3    H239894   4.443   3.001   8.331 -0.1202  0.8491  0.6143
 6087TIP3   OH239895   4.641   3.900   1.544 -0.3626 -0.2092 -0.3329
 6087TIP3    H139896   4.688   3.854   1.614 -0.9610 -0.8813 -0.3642
 6087TIP3    H239897   4.620   3.831   1.481 -3.7661 -0.4232  0.9519
 6088TIP3   OH239898   6.946   5.008   7.707 -0.0540 -0.1529 -0.6505
 6088TIP3    H139899   7.032   4.976   7.736 -0.8013 -1.2183  0.4241
 6088TIP3    H239900   6.929   4.961   7.626 -0.2168 -0.9354 -0.1653
 6089TIP3   OH239901   5.050   1.265   0.377 -0.1712 -0.3962  0.3395
 6089TIP3    H139902   5.069   1.263   0.284 -0.1162  1.9960  0.2633
 6089TIP3    H239903   5.125   1.223   0.419  0.6938  0.2301 -0.5742
 6090TIP3   OH239904   5.815   3.872   7.743  0.4362 -0.6297 -0.6951
 6090TIP3    H139905   5.863   3.943   7.786 -1.0352  0.3094 -0.5809
 6090TIP3    H239906   5.784   3.910   7.661 -0.6100 -1.0406 -0.4988
 6091TIP3   OH239907   1.017   4.723   6.883 -0.5158  0.0369 -0.5583
 6091TIP3    H139908   0.936   4.718   6.832 -1.1907  0.1394  0.4875
 6091TIP3    H239909   1.078   4.666   6.837 -1.0845  0.1918 -1.5275
 6092TIP3   OH239910   4.930   5.795   7.157 -0.3463 -0.5871  0.0692
 6092TIP3    H139911   4.984   5.858   7.110 -0.9385 -0.4598 -0.4467
 6092TIP3    H239912   4.841   5.830   7.152 -0.4690 -0.7402  1.0031
 6093TIP3   OH239913   4.969   6.408   6.648 -0.5922 -0.4362  0.3654
 6093TIP3    H139914   5.022   6.449   6.580  0.4923  1.5728  2.3297
 6093TIP3    H239915   4.879   6.434   6.627  0.1314  3.8717  2.0019
 6094TIP3   OH239916   5.785   2.280   2.119 -0.0896  0.1046  0.0986
 6094TIP3    H139917   5.860   2.221   2.120 -0.9998 -1.0713  0.2152
 6094TIP3    H239918   5.786   2.317   2.031  0.3591 -0.2634 -0.0572
 6095TIP3   OH239919   5.870   4.576   0.369  0.2384  0.1108 -0.5339
 6095TIP3    H139920   5.943   4.562   0.309 -0.2398 -0.5677 -0.9644
 6095TIP3    H239921   5.831   4.659   0.339  0.6140  0.2932 -0.5211
 6096TIP3   OH239922   2.857   5.851   0.167  0.1968  0.0267  0.6507
 6096TIP3    H139923   2.852   5.857   0.072  0.2049 -2.1240  0.4869
 6096TIP3    H239924   2.920   5.918   0.192  0.5198  0.3183 -0.8941
 6097TIP3   OH239925   5.598   3.645   1.029  0.3886 -0.5944 -0.4044
 6097TIP3    H139926   5.637   3.608   0.950  1.1579  1.5633 -1.0815
 6097TIP3    H239927   5.666   3.636   1.096  0.8197  0.1291 -0.7317
 6098TIP3   OH239928   4.702   4.084   0.662  0.1744 -0.8116  0.1996
 6098TIP3    H139929   4.703   4.166   0.612 -1.3759 -0.0588  1.3738
 6098TIP3    H239930   4.746   4.021   0.605  1.7881  0.9344 -0.5335
 6099TIP3   OH239931   4.908   4.269   0.045 -1.2507 -0.0482  0.2416
 6099TIP3    H139932   4.909   4.364   0.037  0.7611  0.0633  1.5634
 6099TIP3    H239933   4.837   4.251   0.107 -1.4073  0.6167  0.2511
 6100TIP3   OH239934   5.003   5.069   8.115 -0.0958  0.2566 -0.6437
 6100TIP3    H139935   5.084   5.041   8.073 -0.2665  0.1604 -0.9135
 6100TIP3    H239936   5.002   5.164   8.104  0.6145  0.4103  0.5157
 6101TIP3   OH239937   6.548   5.905   7.048 -0.3659  0.3206 -0.5477
 6101TIP3    H139938   6.641   5.882   7.049 -0.6641 -0.9622 -1.5844
 6101TIP3    H239939   6.547   6.001   7.045  0.9185  0.3261 -1.0028
 6102TIP3   OH239940   5.515   4.140   7.977 -0.1627 -0.0511 -0.7448
 6102TIP3    H139941   5.610   4.134   7.972 -0.1262 -0.1682 -0.0385
 6102TIP3    H239942   5.499   4.198   8.052 -0.6347  0.7272 -1.4333
 6103TIP3   OH239943   5.315   6.100   0.212  0.2065  0.4973  0.0094
 6103TIP3    H139944   5.291   6.051   0.291 -0.9079 -0.6476 -1.0319
 6103TIP3    H239945   5.404   6.072   0.192 -0.7320 -1.7575 -1.0670
 6104TIP3   OH239946   5.419   5.334   8.492  0.1759  0.1031 -0.2311
 6104TIP3    H139947   5.432   5.242   8.514  1.4520  0.4350  0.4630
 6104TIP3    H239948   5.498   5.377   8.524 -0.3104  1.4041 -0.7676
 6105TIP3   OH239949   6.407   3.009   0.551 -0.7183 -0.6986 -0.0974
 6105TIP3    H139950   6.412   2.991   0.457 -2.2376 -2.5781  0.1650
 6105TIP3    H239951   6.469   3.081   0.565  1.1013 -1.8270 -2.1761
 6106TIP3   OH239952   6.513   5.521   0.937 -0.4779 -0.5372 -0.0939
 6106TIP3    H139953   6.498   5.615   0.923  2.1428  0.1565  1.4035
 6106TIP3    H239954   6.466   5.502   1.018 -1.6534 -0.7254 -0.8023
 6107TIP3   OH239955   5.628   5.417   2.096 -0.2010  0.1294 -0.0290
 6107TIP3    H139956   5.694   5.410   2.164 -0.8689 -0.7360  0.5259
 6107TIP3    H239957   5.661   5.485   2.037  0.8096  0.2272  0.6595
 6108TIP3   OH239958   6.291   4.010   8.118 -0.8460 -0.3596  0.2595
 6108TIP3    H139959   6.237   4.088   8.133  0.1190 -0.0483  2.2956
 6108TIP3    H239960   6.261   3.947   8.183 -1.2500 -1.5191 -1.0252
 6109TIP3   OH239961   7.109   5.533   1.342 -0.4590  0.9131 -0.5873
 6109TIP3    H139962   7.177   5.500   1.400 -1.8139 -0.1139  0.4332
 6109TIP3    H239963   7.132   5.625   1.328  0.0781  1.0924  1.3089
 6110TIP3   OH239964   5.768   6.018   8.435 -0.1888 -0.0398 -0.4181
 6110TIP3    H139965   5.696   5.979   8.385  0.1729 -0.9408 -0.2459
 6110TIP3    H239966   5.774   6.108   8.402 -0.9283 -0.1733 -0.9359
 6111TIP3   OH239967   4.457   4.647   7.887 -0.6377 -0.1634  0.8504
 6111TIP3    H139968   4.388   4.640   7.820  1.1732  2.6995 -1.4325
 6111TIP3    H239969   4.485   4.557   7.901 -1.7013 -0.9398 -1.6008
 6112TIP3   OH239970   0.576   6.381   0.662 -0.2012  0.2142 -0.0852
 6112TIP3    H139971   0.596   6.454   0.604  1.3151  0.1762  0.3687
 6112TIP3    H239972   0.532   6.422   0.737 -1.1896  0.3941 -0.7528
 6113TIP3   OH239973   4.250   3.534   0.813  0.2872 -0.3145  0.2216
 6113TIP3    H139974   4.318   3.596   0.840 -0.4466  0.7506 -0.3294
 6113TIP3    H239975   4.260   3.527   0.718 -1.3366  1.0556 -0.0822
 6114TIP3   OH239976   5.527   4.383   1.225  0.7999 -0.0511 -0.6204
 6114TIP3    H139977   5.545   4.414   1.314  0.5365  0.2183 -0.6608
 6114TIP3    H239978   5.453   4.324   1.234  1.0697 -0.3814 -0.5955
 6115TIP3   OH239979   4.154   2.104   8.232 -0.0262  0.4425  0.7110
 6115TIP3    H139980   4.237   2.063   8.207 -0.7619 -2.2620  2.4437
 6115TIP3    H239981   4.092   2.076   8.164 -0.7367 -2.2427  2.3651
 6116TIP3   OH239982   1.077   6.727   1.567 -0.0758 -0.1178 -0.2791
 6116TIP3    H139983   1.165   6.713   1.600  0.2359 -2.0150 -1.7861
 6116TIP3    H239984   1.083   6.806   1.513  1.2617 -1.4967 -2.2143
 6117TIP3   OH239985   5.402   3.472   1.180 -0.4234  0.4778  0.1030
 6117TIP3    H139986   5.483   3.523   1.187  0.1076 -0.2731 -0.4621
 6117TIP3    H239987   5.431   3.384   1.156 -1.2780 -0.2583  1.6935
 6118TIP3   OH239988   0.833   5.618   2.050  0.1297  0.0654 -0.1753
 6118TIP3    H139989   0.767   5.644   2.115  0.9957  3.1496 -0.4515
 6118TIP3    H239990   0.915   5.654   2.083  1.1355 -1.0414 -1.4267
 6119TIP3   OH239991   6.143   3.026   0.627  0.2486  0.6544  0.2145
 6119TIP3    H139992   6.167   3.011   0.719 -1.3671 -1.2572  0.3625
 6119TIP3    H239993   6.227   3.025   0.580  0.8545 -1.5735  1.2631
 6120TIP3   OH239994   5.089   3.555   1.588  0.1873 -0.2135 -0.3687
 6120TIP3    H139995   5.018   3.514   1.539 -1.0810  1.6365 -0.1172
 6120TIP3    H239996   5.054   3.639   1.616  2.6514  0.9787 -0.6954
 6121TIP3   OH239997   5.518   5.563   0.275  0.2770  0.4915  0.6222
 6121TIP3    H139998   5.491   5.473   0.292 -2.7845  0.9107 -1.7113
 6121TIP3    H239999   5.573   5.556   0.196 -1.0408  0.8097 -0.3302
 6122TIP3   OH240000   4.988   3.356   1.363 -0.0586  0.0305  0.1851
 6122TIP3    H140001   5.033   3.282   1.404 -0.1967 -0.9412 -1.3670
 6122TIP3    H240002   4.895   3.339   1.377 -0.1506 -0.8136 -1.3323
 6123TIP3   OH240003   0.200   5.406   8.094  0.4884 -0.3358  0.3389
 6123TIP3    H140004   0.279   5.365   8.057  1.6834  1.1688  1.1352
 6123TIP3    H240005   0.214   5.404   8.189 -0.4181 -0.0442  0.4879
 6124TIP3   OH240006   6.487   0.185   8.313 -0.6451 -0.5846  0.3549
 6124TIP3    H140007   6.555   0.248   8.338  0.7072 -1.1041 -1.8016
 6124TIP3    H240008   6.470   0.135   8.392  0.0389  0.8753  1.4503
 6125TIP3   OH240009   6.038   3.081   1.595  1.3990  0.0122  0.5814
 6125TIP3    H140010   5.962   3.076   1.654  0.0818 -0.0100 -1.0977
 6125TIP3    H240011   6.062   3.174   1.596  0.1362  0.3587 -0.3802
 6126TIP3   OH240012   6.465   5.844   7.704 -0.0795  0.2577 -0.4651
 6126TIP3    H140013   6.434   5.923   7.658  0.0240  0.5131 -0.0958
 6126TIP3    H240014   6.554   5.866   7.732 -1.3791  1.4612  3.0205
 6127TIP3   OH240015   6.461   6.359   0.499 -0.4485  0.1045 -0.1874
 6127TIP3    H140016   6.366   6.373   0.506 -0.2637  1.4834 -0.4397
 6127TIP3    H240017   6.484   6.313   0.579 -1.0796  1.1856  0.6238
 6128TIP3   OH240018   5.669   6.598   2.387 -0.4605 -0.0588 -0.3977
 6128TIP3    H140019   5.743   6.647   2.423  1.0371 -1.4489 -1.5093
 6128TIP3    H240020   5.709   6.528   2.335 -2.5572 -0.6877 -1.2367
 6129TIP3   OH240021   6.835   5.890   7.031  0.3158 -1.0084  1.0939
 6129TIP3    H140022   6.907   5.860   6.975  0.0118 -0.6253  0.4951
 6129TIP3    H240023   6.876   5.902   7.117  0.9542 -0.8703  0.7812
 6130TIP3   OH240024   6.461   5.780   1.027 -0.3099  0.0633 -0.1456
 6130TIP3    H140025   6.387   5.840   1.040 -0.1996 -0.0242  0.9259
 6130TIP3    H240026   6.482   5.749   1.115 -0.6183 -1.8465 -0.7168
 6131TIP3   OH240027   7.147   5.355   1.764 -0.7260  0.1712 -0.2025
 6131TIP3    H140028   7.225   5.395   1.725 -1.6317  3.3503  1.0274
 6131TIP3    H240029   7.172   5.340   1.855 -1.6868  1.7219  0.3334
 6132TIP3   OH240030   5.418   4.774   2.108 -0.4270 -0.2543 -0.2531
 6132TIP3    H140031   5.493   4.823   2.141  0.6877 -2.3165  0.3189
 6132TIP3    H240032   5.418   4.693   2.158 -1.9427 -1.0905 -1.5603
 6133TIP3   OH240033   5.470   4.340   8.166  0.1584  0.2045 -0.2905
 6133TIP3    H140034   5.477   4.428   8.128 -0.5186  0.3058 -0.1894
 6133TIP3    H240035   5.533   4.339   8.237 -1.5276  1.4367  1.2720
 6134TIP3   OH240036   7.170   6.002   2.125  0.0923 -0.0554  0.3081
 6134TIP3    H140037   7.097   6.064   2.120  0.4495  0.3685  0.2616
 6134TIP3    H240038   7.130   5.916   2.113 -0.3628  0.1961 -0.0059
 6135TIP3   OH240039   7.302   6.661   1.744 -0.2164  0.1224 -0.0797
 6135TIP3    H140040   7.379   6.621   1.784 -0.4457  0.2311  0.4722
 6135TIP3    H240041   7.271   6.596   1.681 -0.5214 -0.5284  0.7274
 6136TIP3   OH240042   5.144   4.426   0.939  0.5045 -0.3210  1.1959
 6136TIP3    H140043   5.099   4.507   0.959 -0.5107  0.1618 -2.5439
 6136TIP3    H240044   5.073   4.362   0.924  0.9836 -0.0748 -2.6816
 6137TIP3   OH240045   5.036   5.773   1.625  0.1173 -0.0468 -0.1723
 6137TIP3    H140046   5.078   5.843   1.675 -1.4000  0.6594  0.1182
 6137TIP3    H240047   5.042   5.696   1.682  0.8044  0.1052 -0.0356
 6138TIP3   OH240048   4.793   4.762   7.046 -0.2511  0.1921 -0.1630
 6138TIP3    H140049   4.720   4.744   7.106  0.6405 -2.5731  0.1590
 6138TIP3    H240050   4.870   4.726   7.090  0.5354 -1.2597 -2.6167
 6139TIP3   OH240051   6.562   4.623   0.332 -0.5260  0.0485 -0.0299
 6139TIP3    H140052   6.648   4.582   0.327 -1.0001 -0.9201 -0.5744
 6139TIP3    H240053   6.570   4.704   0.282  0.6429  1.0467  1.7048
 6140TIP3   OH240054   6.669   4.414   1.224 -0.4264  0.6503  0.2847
 6140TIP3    H140055   6.608   4.409   1.297 -1.0603  1.4133 -0.1891
 6140TIP3    H240056   6.707   4.326   1.219  1.0661  1.0940  2.7576
 6141TIP3   OH240057   7.247   4.095   0.216 -0.5810 -0.2632  0.1362
 6141TIP3    H140058   7.228   4.153   0.142 -0.2378 -1.0595 -0.5920
 6141TIP3    H240059   7.207   4.011   0.191 -1.1628 -0.3160  1.2235
 6142TIP3   OH240060   7.012   3.824   2.107 -0.0262  0.6497 -0.4959
 6142TIP3    H140061   6.926   3.783   2.108 -0.4162  1.3959 -1.6550
 6142TIP3    H240062   6.994   3.918   2.101  0.8609  0.7669 -1.6011
 6143TIP3   OH240063   2.182   4.490   1.077  0.5208 -0.8187 -0.1015
 6143TIP3    H140064   2.102   4.521   1.034 -0.2820 -0.8996  1.3220
 6143TIP3    H240065   2.163   4.399   1.100  1.5357 -1.2737 -0.9695
 6144TIP3   OH240066   4.649   5.343   2.170 -0.2303  0.4346 -0.1154
 6144TIP3    H140067   4.622   5.312   2.257  2.0805 -1.2009  0.0722
 6144TIP3    H240068   4.699   5.422   2.187  1.2664 -0.5512  0.1962
 6145TIP3   OH240069   6.795   6.156   1.569 -0.4888 -0.4587  0.0521
 6145TIP3    H140070   6.710   6.145   1.612 -1.0568 -0.3163 -1.0260
 6145TIP3    H240071   6.775   6.193   1.484  0.5727 -1.4272 -0.6449
 6146TIP3   OH240072   5.898   5.498   8.491 -0.2506 -0.0054 -0.2431
 6146TIP3    H140073   5.980   5.504   8.541 -0.6064  1.9251  0.1443
 6146TIP3    H240074   5.905   5.414   8.445  2.1439  0.3391 -0.5874
 6147TIP3   OH240075   5.100   2.889   1.892  0.3532 -0.1415 -0.2528
 6147TIP3    H140076   5.135   2.978   1.903  1.6059 -0.5161 -1.0453
 6147TIP3    H240077   5.101   2.851   1.979 -1.5580  1.0984  0.3459
 6148TIP3   OH240078   6.793   4.696   7.730 -0.3158 -0.0088 -0.3018
 6148TIP3    H140079   6.756   4.609   7.715 -1.6859  0.0261  2.6645
 6148TIP3    H240080   6.718   4.756   7.721  0.2852  0.7101 -0.5841
 6149TIP3   OH240081   6.146   3.873   2.540  0.0648 -0.2715  0.2185
 6149TIP3    H140082   6.102   3.818   2.605 -0.6065 -1.5335 -1.2625
 6149TIP3    H240083   6.077   3.929   2.505  0.1314 -0.5884 -0.4213
 6150TIP3   OH240084   4.724   5.306   1.600 -0.2009  0.4132  0.0425
 6150TIP3    H140085   4.648   5.349   1.559 -0.3028  0.0995 -0.0965
 6150TIP3    H240086   4.798   5.362   1.577 -0.0974 -0.3037 -1.4326
 6151TIP3   OH240087   5.362   5.756   1.095 -0.8465 -0.7107 -0.1701
 6151TIP3    H140088   5.422   5.825   1.068  1.5012 -1.5176  2.7471
 6151TIP3    H240089   5.318   5.791   1.172 -1.0927 -1.6813  0.1325
 6152TIP3   OH240090   6.238   3.315   2.661  0.5623  0.3044 -0.0605
 6152TIP3    H140091   6.262   3.326   2.753 -1.0646 -1.6418  0.6116
 6152TIP3    H240092   6.292   3.242   2.631 -0.8139 -0.7749  0.0729
 6153TIP3   OH240093   4.602   4.520   1.989  0.0575  0.8534 -0.2300
 6153TIP3    H140094   4.570   4.508   2.078  1.9689  1.3792  0.5735
 6153TIP3    H240095   4.694   4.492   1.993  0.3129  1.4075 -1.8853
 6154TIP3   OH240096   6.527   5.472   6.968 -0.0512 -0.2199  0.1960
 6154TIP3    H140097   6.448   5.430   7.004  0.8241 -0.8121  1.4704
 6154TIP3    H240098   6.494   5.531   6.901 -1.5027 -1.2817 -0.0507
 6155TIP3   OH240099   6.169   6.853   0.978  0.1273  0.1042  0.1237
 6155TIP3    H140100   6.213   6.858   0.893  1.9213 -1.8921  0.8944
 6155TIP3    H240101   6.209   6.923   1.030  1.2408 -0.6320  0.2806
 6156TIP3   OH240102   3.282   5.493   8.140 -0.0422 -0.0664 -0.4359
 6156TIP3    H140103   3.327   5.510   8.058 -0.5083 -0.3232 -0.7473
 6156TIP3    H240104   3.191   5.517   8.123  0.0606  0.8971  0.3271
 6157TIP3   OH240105   5.438   5.720   1.491 -0.0276  0.0624 -0.1373
 6157TIP3    H140106   5.357   5.679   1.459 -0.4702 -0.5674  1.7627
 6157TIP3    H240107   5.434   5.810   1.457 -0.8887 -0.3312 -1.1272
 6158TIP3   OH240108   5.473   7.290   7.672  0.3894 -0.0904 -0.0263
 6158TIP3    H140109   5.505   7.237   7.599 -1.6182  0.2661 -1.1821
 6158TIP3    H240110   5.410   7.350   7.633  0.4382  1.1553  1.7557
 6159TIP3   OH240111   1.223   4.350   0.542 -0.2314 -0.0074  0.3105
 6159TIP3    H140112   1.295   4.327   0.483 -0.0384  0.9162  0.1788
 6159TIP3    H240113   1.146   4.354   0.484 -0.6428 -2.2583  0.6616
 6160TIP3   OH240114   0.610   5.104   6.213  0.3953 -0.3726  0.3917
 6160TIP3    H140115   0.552   5.179   6.207  0.7290 -0.0847  0.7308
 6160TIP3    H240116   0.605   5.077   6.305  0.4087 -0.6600  0.3095
 6161TIP3   OH240117   4.131   4.999   8.204  0.2215 -0.2891 -0.0460
 6161TIP3    H140118   4.060   4.962   8.152  0.7941 -2.1215  0.4442
 6161TIP3    H240119   4.117   4.965   8.292  0.9148  0.4648  0.3667
 6162TIP3   OH240120   5.693   4.580   2.153 -0.0044 -0.1049 -0.6357
 6162TIP3    H140121   5.604   4.555   2.176  1.6776 -3.3804  2.8786
 6162TIP3    H240122   5.720   4.641   2.222  0.2332  1.5777 -2.1721
 6163TIP3   OH240123   2.057   7.058   2.003 -0.4830 -0.7549 -0.4750
 6163TIP3    H140124   2.150   7.080   1.999 -0.5488 -0.4708 -0.4365
 6163TIP3    H240125   2.056   6.964   2.020 -0.2015 -0.6362  0.2079
 6164TIP3   OH240126   7.102   4.741   8.266 -0.4759 -0.0818  0.1645
 6164TIP3    H140127   7.026   4.698   8.304 -0.3885 -1.5374 -1.2838
 6164TIP3    H240128   7.071   4.828   8.240 -1.8849 -1.0004 -1.2753
 6165TIP3   OH240129   0.747   4.336   0.044  0.2390 -0.1588  0.2748
 6165TIP3    H140130   0.748   4.283  -0.036  0.1318 -1.3504  1.0478
 6165TIP3    H240131   0.828   4.387   0.040  0.6821 -0.8855 -0.1544
 6166TIP3   OH240132   6.776   4.660   0.138 -0.0357 -0.0663  0.2704
 6166TIP3    H140133   6.844   4.607   0.181  0.9772  0.3155 -0.8437
 6166TIP3    H240134   6.773   4.741   0.190  1.7753  0.7406 -0.8336
 6167TIP3   OH240135   0.181   4.596   0.039  0.2607  0.3763 -0.6078
 6167TIP3    H140136   0.241   4.548  -0.019  1.0834 -0.7165  1.0719
 6167TIP3    H240137   0.107   4.620  -0.016  1.4124  0.0970 -2.2912
 6168TIP3   OH240138   4.492   5.850   2.104 -0.2795 -0.5480  0.0410
 6168TIP3    H140139   4.572   5.819   2.060 -0.2740 -1.8210  0.9130
 6168TIP3    H240140   4.514   5.845   2.197 -0.2846  2.1329  0.2135
 6169TIP3   OH240141   0.325   2.989   1.725  0.1485 -0.1445  0.4642
 6169TIP3    H140142   0.243   3.036   1.712 -0.5341 -1.6409 -0.8064
 6169TIP3    H240143   0.306   2.924   1.793 -0.4306 -2.0600 -1.4609
 6170TIP3   OH240144   5.268   1.246   1.583 -0.5030  0.2677 -0.4598
 6170TIP3    H140145   5.202   1.291   1.635  1.9836  2.5666  0.8275
 6170TIP3    H240146   5.348   1.254   1.635  1.0191 -1.5318 -2.4625
 6171TIP3   OH240147   6.929   3.492   1.395  0.0736  0.4203  0.0043
 6171TIP3    H140148   6.997   3.473   1.331 -1.0101 -0.1913 -0.9846
 6171TIP3    H240149   6.970   3.477   1.480  1.9385  2.5272 -0.4637
 6172TIP3   OH240150   4.817   5.552   1.003  0.4072 -0.1000  0.1868
 6172TIP3    H140151   4.788   5.518   1.088  0.7067 -0.9118 -0.0354
 6172TIP3    H240152   4.843   5.642   1.021 -2.4992  0.7643  0.3550
 6173TIP3   OH240153   7.036   4.517   0.680  0.6976  0.1906  0.7334
 6173TIP3    H140154   6.990   4.586   0.728  0.5550 -0.2353  1.2193
 6173TIP3    H240155   7.121   4.555   0.658 -0.5762  1.6550 -1.8268
 6174TIP3   OH240156   4.517   3.901   2.286  0.2658  0.2260  0.2554
 6174TIP3    H140157   4.529   3.855   2.369 -1.6472 -1.4079 -0.3411
 6174TIP3    H240158   4.525   3.832   2.220  1.0715  1.4030 -0.8981
 6175TIP3   OH240159   5.494   3.888   2.190 -0.4432 -0.4391  0.1859
 6175TIP3    H140160   5.477   3.933   2.108 -0.5503 -1.7534 -0.5224
 6175TIP3    H240161   5.569   3.934   2.228 -1.1104  0.8986 -0.0724
 6176TIP3   OH240162   5.800   5.674   2.244 -0.0094  0.7514  0.5547
 6176TIP3    H140163   5.871   5.622   2.282  0.2070  1.5732  1.3056
 6176TIP3    H240164   5.720   5.636   2.282  0.0456  0.0623 -0.0040
 6177TIP3   OH240165   5.640   6.180   1.263  0.2846  0.0726  1.1508
 6177TIP3    H140166   5.637   6.261   1.313  0.3302  0.2333  0.8959
 6177TIP3    H240167   5.694   6.121   1.315  1.1651  0.5717  0.8159
 6178TIP3   OH240168   0.007   6.686   0.530  0.2199  0.6771  0.3945
 6178TIP3    H140169   0.024   6.723   0.443  2.8060  0.8139  0.9184
 6178TIP3    H240170   0.011   6.592   0.517 -3.3791  0.5562 -0.3574
 6179TIP3   OH240171   5.549   4.795   1.345  0.0905  0.4967 -0.5130
 6179TIP3    H140172   5.465   4.755   1.323 -0.6153  1.2234  0.8388
 6179TIP3    H240173   5.578   4.836   1.263 -2.7059  3.5396 -0.0600
 6180TIP3   OH240174   5.645   5.832   0.427  0.0891  0.7936 -0.3622
 6180TIP3    H140175   5.555   5.850   0.454 -0.3022 -0.9896 -0.4658
 6180TIP3    H240176   5.698   5.860   0.502 -0.7788 -1.0209  0.9574
 6181TIP3   OH240177   6.894   5.411   0.591 -0.0743 -0.4391 -0.2508
 6181TIP3    H140178   6.893   5.467   0.514 -1.7077 -0.0486  0.0294
 6181TIP3    H240179   6.823   5.445   0.647  0.8843 -0.8935  1.2836
 6182TIP3   OH240180   7.080   4.942   1.786  0.0035 -0.9255 -0.0279
 6182TIP3    H140181   7.012   4.957   1.853 -0.6078 -1.5563 -0.4987
 6182TIP3    H240182   7.135   4.873   1.823 -1.1237 -2.2211 -0.7464
 6183TIP3   OH240183   2.272   6.583   7.007  0.4434 -0.1317 -0.3767
 6183TIP3    H140184   2.344   6.642   7.027 -0.4729  2.3363 -3.8119
 6183TIP3    H240185   2.194   6.628   7.041 -0.0492 -0.2446 -1.3346
 6184TIP3   OH240186   4.443   4.839   1.264 -0.3349  0.2427 -0.0848
 6184TIP3    H140187   4.428   4.760   1.316 -0.5174  0.2201 -0.1727
 6184TIP3    H240188   4.395   4.907   1.310  0.8243  0.5672  0.6800
 6185TIP3   OH240189   5.831   5.351   2.269 -0.0637 -0.1461 -0.1879
 6185TIP3    H140190   5.800   5.261   2.281 -0.9578  0.2979  0.9081
 6185TIP3    H240191   5.905   5.359   2.329  0.5682 -0.4193 -0.9294
 6186TIP3   OH240192   5.327   5.478   6.796 -0.2559 -0.3806 -0.2288
 6186TIP3    H140193   5.362   5.501   6.710 -1.0121 -1.1581 -0.7573
 6186TIP3    H240194   5.247   5.529   6.804 -0.8187 -1.2165 -0.5011
 6187TIP3   OH240195   5.011   3.242   2.453  0.0490 -0.1550  0.6310
 6187TIP3    H140196   5.045   3.288   2.530  2.4529 -1.3090  0.2806
 6187TIP3    H240197   5.048   3.288   2.378  0.3154 -1.0168  0.2281
 6188TIP3   OH240198   6.513   4.681   7.492  0.0417  0.0453  0.0706
 6188TIP3    H140199   6.481   4.718   7.574 -0.1077  0.3740 -0.1370
 6188TIP3    H240200   6.456   4.605   7.476 -2.3244  2.0880 -1.6168
 6189TIP3   OH240201   6.031   3.002   1.269 -0.3676 -0.0346  0.0722
 6189TIP3    H140202   6.030   3.052   1.350 -0.3862 -0.5985  0.4268
 6189TIP3    H240203   6.103   3.040   1.218 -0.7548  0.7265  0.0895
 6190TIP3   OH240204   4.903   4.274   0.805 -0.2423  0.3717  0.1225
 6190TIP3    H140205   4.916   4.304   0.715  0.8686  0.0085  0.1535
 6190TIP3    H240206   4.843   4.200   0.797 -0.3593  0.5094 -0.2974
 6191TIP3   OH240207   5.036   4.660   1.269 -0.4463  0.1506  0.2047
 6191TIP3    H140208   4.990   4.696   1.193 -0.5733  1.5987  0.9567
 6191TIP3    H240209   5.122   4.701   1.267 -0.1251 -0.5068  0.3322
 6192TIP3   OH240210   5.182   1.772   8.198  0.2747  0.4498  0.3217
 6192TIP3    H140211   5.120   1.746   8.266  0.1849 -0.7561 -0.1998
 6192TIP3    H240212   5.201   1.864   8.216  1.6638 -0.3239  3.0856
 6193TIP3   OH240213   6.714   4.032   0.290 -0.1387 -0.4991  0.8257
 6193TIP3    H140214   6.799   4.058   0.255  0.1479 -1.2633  0.9477
 6193TIP3    H240215   6.684   4.108   0.340 -0.2338  0.3473 -0.4961
 6194TIP3   OH240216   5.168   5.368   0.788 -0.1324  0.7150 -0.0470
 6194TIP3    H140217   5.122   5.322   0.858  1.1880 -0.9343 -0.2157
 6194TIP3    H240218   5.100   5.398   0.729 -1.0760 -0.4093  0.4596
 6195TIP3   OH240219   0.370   6.117   8.300  0.2732  0.2414  0.2137
 6195TIP3    H140220   0.421   6.163   8.233 -0.7614 -0.6590 -1.2343
 6195TIP3    H240221   0.283   6.159   8.296 -0.1445 -0.6319  0.1431
 6196TIP3   OH240222   5.440   6.730   0.143  0.4871 -0.4342 -0.0020
 6196TIP3    H140223   5.478   6.657   0.094 -1.0899  0.2173 -2.2446
 6196TIP3    H240224   5.378   6.771   0.082  1.7607  3.1591  1.0055
 6197TIP3   OH240225   6.189   6.982   1.809  0.1257 -0.5051  0.6093
 6197TIP3    H140226   6.190   6.940   1.895 -1.8846 -1.0826  0.3856
 6197TIP3    H240227   6.195   7.076   1.829 -0.1295 -0.6454  1.3876
 6198TIP3   OH240228   4.250   2.737   2.072  0.1356 -0.0322 -0.4763
 6198TIP3    H140229   4.241   2.674   2.144 -0.9041  0.0873 -0.4937
 6198TIP3    H240230   4.338   2.773   2.082  1.1876 -2.3370 -1.1457
 6199TIP3   OH240231   5.779   3.263   2.540 -0.4879 -0.0070 -0.2695
 6199TIP3    H140232   5.770   3.358   2.543  0.1238  0.0147  1.0390
 6199TIP3    H240233   5.736   3.238   2.458  0.2085  1.4904 -1.1284
 6200TIP3   OH240234   5.961   5.776   6.740  0.0451  0.2325  0.0381
 6200TIP3    H140235   6.037   5.754   6.687  0.4000  0.9297  0.2583
 6200TIP3    H240236   5.896   5.708   6.719 -0.5066  1.5485 -2.6954
 6201TIP3   OH240237   5.934   4.721   0.071 -0.0042  0.4981  0.2717
 6201TIP3    H140238   5.957   4.813   0.058  0.1316  0.3257 -0.7946
 6201TIP3    H240239   5.848   4.724   0.113 -0.2435  1.1161 -0.2447
 6202TIP3   OH240240   6.997   5.635   0.767  0.3207  0.2628  0.2298
 6202TIP3    H140241   7.003   5.626   0.672  0.0019 -1.8547  0.3789
 6202TIP3    H240242   7.085   5.617   0.799  0.5844  1.6306  0.3140
 6203TIP3   OH240243   0.628   0.264   8.494 -0.2013 -0.1734  0.4488
 6203TIP3    H140244   0.539   0.253   8.459  0.6412  0.3768 -1.9617
 6203TIP3    H240245   0.658   0.347   8.456  2.6316 -2.0856 -1.6338
 6204TIP3   OH240246   3.584   7.257   7.877 -0.1034  0.1538 -0.5894
 6204TIP3    H140247   3.607   7.238   7.968 -0.2907  3.4923  0.2226
 6204TIP3    H240248   3.656   7.220   7.826  1.5073  0.8071  1.1349
 6205TIP3   OH240249   0.623   5.267   7.752 -0.6540  0.2015  0.2319
 6205TIP3    H140250   0.708   5.270   7.709 -0.9670  0.7608 -0.3443
 6205TIP3    H240251   0.559   5.264   7.681 -1.1496  0.5864  0.6503
 6206TIP3   OH240252   2.356   0.573   1.348  0.4402  0.0584 -0.2357
 6206TIP3    H140253   2.294   0.604   1.281  1.0144 -0.4677 -1.0127
 6206TIP3    H240254   2.323   0.611   1.429 -0.4631  0.4279 -0.7604
 6207TIP3   OH240255   1.806   6.759   0.945 -1.0903 -0.0542  0.1077
 6207TIP3    H140256   1.814   6.819   0.871 -1.2348  0.0962  0.2133
 6207TIP3    H240257   1.794   6.673   0.905  0.4824 -0.2162 -0.0525
 6208TIP3   OH240258   6.416   6.023   1.288 -0.1014 -0.2623  0.5553
 6208TIP3    H140259   6.364   6.101   1.271  0.3353 -0.0570  0.1527
 6208TIP3    H240260   6.351   5.953   1.302 -0.4868  0.1359  0.7550
 6209TIP3   OH240261   0.476   6.375   7.830  0.2458 -0.6257  0.4115
 6209TIP3    H140262   0.419   6.375   7.907  0.2271 -0.3656  0.3982
 6209TIP3    H240263   0.450   6.298   7.780 -0.4093 -0.2429  0.1699
 6210TIP3   OH240264   0.287   6.361   8.057 -0.5037  0.1156  0.4669
 6210TIP3    H140265   0.367   6.356   8.109 -1.0326 -0.8693  1.2194
 6210TIP3    H240266   0.255   6.450   8.070  0.7577  0.6823 -0.2836
 6211TIP3   OH240267   4.637   5.652   1.677  0.2973 -0.0645 -0.0977
 6211TIP3    H140268   4.565   5.596   1.648  0.2120 -0.0787  0.1456
 6211TIP3    H240269   4.681   5.602   1.746  0.9367 -0.3320 -0.6923
 6212TIP3   OH240270   2.122   7.062   2.337  0.1055  0.1107  0.1325
 6212TIP3    H140271   2.105   6.993   2.273  1.9788  1.3892 -1.7921
 6212TIP3    H240272   2.213   7.086   2.323  0.1321  1.4159  2.3368
 6213TIP3   OH240273   5.236   6.446   2.046  0.0832 -0.5965  0.4301
 6213TIP3    H140274   5.283   6.488   2.118 -0.3735 -0.7234  0.7997
 6213TIP3    H240275   5.262   6.497   1.969  0.6199 -0.4997  0.6669
 6214TIP3   OH240276   3.464   5.996   0.570  0.0218  0.2328  0.4814
 6214TIP3    H140277   3.390   6.025   0.623  1.0996  1.1298  1.5408
 6214TIP3    H240278   3.541   6.019   0.622  1.1903  2.5049 -2.0911
 6215TIP3   OH240279   5.644   6.087   7.472 -0.0904 -0.1621  0.3257
 6215TIP3    H140280   5.556   6.048   7.467 -0.6671  0.8310  2.0680
 6215TIP3    H240281   5.648   6.124   7.561  1.7848  0.5322 -0.0314
 6216TIP3   OH240282   7.139   5.124   8.042 -0.8318  0.2551  0.0582
 6216TIP3    H140283   7.140   5.067   7.965  1.3599 -0.7348  0.7745
 6216TIP3    H240284   7.209   5.187   8.027  1.2967 -1.4444  2.2448
 6217TIP3   OH240285   1.529   5.249   0.618 -0.1002 -0.5356 -0.5011
 6217TIP3    H140286   1.553   5.296   0.698  0.5168 -2.3006  0.3643
 6217TIP3    H240287   1.493   5.317   0.560  1.8799  1.1896  0.2616
 6218TIP3   OH240288   0.680   6.059   2.474  0.3377 -0.3129 -0.5899
 6218TIP3    H140289   0.705   5.999   2.545  1.3107  0.5255 -0.2061
 6218TIP3    H240290   0.763   6.084   2.434  0.0502  1.6657 -0.0080
 6219TIP3   OH240291   1.312   0.656   0.523  0.3070  0.2716 -0.7244
 6219TIP3    H140292   1.235   0.611   0.559  1.1163 -1.3175 -0.9275
 6219TIP3    H240293   1.363   0.681   0.599 -0.8103  2.0759 -0.5536
 6220TIP3   OH240294   7.323   6.766   0.277 -0.8261 -0.1970  0.1402
 6220TIP3    H140295   7.380   6.829   0.233 -0.6526 -0.0721  0.5412
 6220TIP3    H240296   7.345   6.682   0.236 -1.1381  0.0205 -0.4690
 6221TIP3   OH240297   0.540   3.282   1.124 -0.6179 -0.2482 -0.3196
 6221TIP3    H140298   0.568   3.200   1.165 -0.8845 -0.1266  0.1109
 6221TIP3    H240299   0.447   3.270   1.105 -0.5802 -0.1695 -0.5616
 6222TIP3   OH240300   0.296   5.655   1.818 -0.1503  0.5589  0.6016
 6222TIP3    H140301   0.369   5.717   1.824 -0.4221  1.0669 -1.1208
 6222TIP3    H240302   0.270   5.640   1.909 -0.7736  3.7800  0.9931
 6223TIP3   OH240303   0.903   6.703   8.295  0.0559  0.4037 -0.1896
 6223TIP3    H140304   0.988   6.681   8.258 -0.6089 -0.5437 -1.1841
 6223TIP3    H240305   0.905   6.798   8.304  1.6068  0.3023  0.7788
 6224TIP3   OH240306   2.173   1.025   8.295  0.0575  0.7245 -0.3022
 6224TIP3    H140307   2.078   1.024   8.284 -0.0047  0.2933  0.2350
 6224TIP3    H240308   2.198   0.933   8.296  0.2845  0.7877  1.1623
 6225TIP3   OH240309   0.209   5.276   0.826 -0.3683  0.8327  0.1047
 6225TIP3    H140310   0.277   5.250   0.764 -0.9203 -0.9756  0.2360
 6225TIP3    H240311   0.254   5.336   0.886  1.4221 -1.2169  0.8597
 6226TIP3   OH240312   1.197   6.232   0.216 -0.4595  0.3984 -0.6769
 6226TIP3    H140313   1.262   6.277   0.162  0.4410 -2.4856 -2.1084
 6226TIP3    H240314   1.171   6.297   0.282  1.4413  2.6617 -2.0749
 6227TIP3   OH240315   6.674   6.713   7.928  0.3056  0.3162  0.0611
 6227TIP3    H140316   6.767   6.730   7.915  0.2693 -0.5564 -1.4765
 6227TIP3    H240317   6.639   6.700   7.840 -1.4474  1.4844  0.5447
 6228TIP3   OH240318   1.053   6.019   1.296 -0.1229 -0.1992  0.3176
 6228TIP3    H140319   1.051   5.924   1.303  0.1975 -0.2569 -0.3184
 6228TIP3    H240320   0.985   6.040   1.233 -1.7082  0.1730  2.0950
 6229TIP3   OH240321   2.441   5.569   8.336  0.2824 -0.1343 -0.6791
 6229TIP3    H140322   2.442   5.599   8.246 -2.0649 -2.1883 -1.4529
 6229TIP3    H240323   2.505   5.624   8.381  0.0413  2.2480 -3.1543
 6230TIP3   OH240324   0.584   6.807   2.276  0.9716  0.5295 -0.0926
 6230TIP3    H140325   0.658   6.866   2.288 -0.1131  1.7315  0.8982
 6230TIP3    H240326   0.513   6.847   2.326  0.5376 -2.2699  1.6237
 6231TIP3   OH240327   6.545   7.298   7.821  0.3241  0.5498  0.3290
 6231TIP3    H140328   6.542   7.327   7.912  0.0544 -0.8614  0.7828
 6231TIP3    H240329   6.458   7.317   7.787 -0.6656 -1.8824  1.3342
 6232TIP3   OH240330   6.186   7.309   0.589 -0.7977  0.0123  0.1764
 6232TIP3    H140331   6.261   7.280   0.537 -0.2590 -1.6567  1.8021
 6232TIP3    H240332   6.126   7.235   0.588 -2.1680  1.1245 -0.6186
 6233TIP3   OH240333   1.753   6.708   2.276  0.3093  0.2445 -0.5337
 6233TIP3    H140334   1.662   6.700   2.305  0.3739 -0.0595 -0.4139
 6233TIP3    H240335   1.754   6.667   2.190 -0.0593  1.8786 -1.3282
 6234TIP3   OH240336   0.004   7.234   0.830  0.4544  0.1359 -0.3159
 6234TIP3    H140337  -0.042   7.168   0.779  0.7049  0.6506 -1.2067
 6234TIP3    H240338  -0.065   7.290   0.866  0.1209 -1.5657  1.8176
 6235TIP3   OH240339   1.434   5.961   1.378  0.0449  0.3413  0.0158
 6235TIP3    H140340   1.361   5.916   1.421 -0.1433 -0.3708 -1.0402
 6235TIP3    H240341   1.399   6.048   1.357  0.2134  0.7779  1.5050
 6236TIP3   OH240342   0.054   5.539   1.746 -0.0058  0.0513 -0.1544
 6236TIP3    H140343   0.134   5.590   1.758 -0.8066  1.3838 -0.4010
 6236TIP3    H240344  -0.006   5.571   1.812 -1.1358  0.7076 -1.4665
 6237TIP3   OH240345   3.370   0.384   0.221 -0.4408  0.0696 -0.3942
 6237TIP3    H140346   3.295   0.442   0.231 -0.7191 -0.0779 -1.5921
 6237TIP3    H240347   3.361   0.347   0.133  2.1850  1.6938 -1.3978
 6238TIP3   OH240348   1.558   6.890   0.645 -0.1093 -0.4901 -0.2518
 6238TIP3    H140349   1.633   6.926   0.693  1.8337 -0.5549 -3.1692
 6238TIP3    H240350   1.573   6.796   0.645 -1.3364 -0.7129  0.9455
 6239TIP3   OH240351   1.575   7.064   8.298 -0.5774  0.0136 -0.2605
 6239TIP3    H140352   1.610   7.011   8.370 -1.3415  0.5633  0.5217
 6239TIP3    H240353   1.519   7.004   8.249  1.8789 -1.0522 -1.8963
 6240TIP3   OH240354   7.177   5.830   1.265  0.4283  0.0351 -0.2317
 6240TIP3    H140355   7.237   5.884   1.315  1.5568 -1.2742 -0.1316
 6240TIP3    H240356   7.107   5.889   1.237  1.4451  1.4340  0.1822
 6241TIP3   OH240357   1.898   7.212   0.141  0.3630  0.5144 -0.1412
 6241TIP3    H140358   1.851   7.268   0.080 -0.9961 -0.5158 -0.0582
 6241TIP3    H240359   1.923   7.271   0.213 -0.6352  1.1146 -0.2796
 6242TIP3   OH240360   1.168   5.724   8.295 -0.3519  0.3503  0.0814
 6242TIP3    H140361   1.222   5.783   8.243 -1.7002  0.6682 -1.0138
 6242TIP3    H240362   1.149   5.651   8.236 -0.2386 -0.2650  0.8005
 6243TIP3   OH240363   0.976   7.023   7.953 -0.2441 -0.7326 -0.2196
 6243TIP3    H140364   1.008   7.025   8.043 -1.4971 -2.7841  0.2965
 6243TIP3    H240365   1.004   6.938   7.919 -0.7468 -0.4359 -1.4080
 6244TIP3   OH240366   0.846   0.627   0.781  0.2347 -0.4733  0.2590
 6244TIP3    H140367   0.775   0.569   0.806 -1.3327  1.6726  0.9766
 6244TIP3    H240368   0.821   0.661   0.695 -0.5974  1.7632  1.3535
 6245TIP3   OH240369   0.895   5.866   2.542 -0.1506  0.2224 -0.4666
 6245TIP3    H140370   0.846   5.784   2.535  0.2444 -0.0486 -0.0581
 6245TIP3    H240371   0.977   5.842   2.584 -0.9389  1.1781  1.7023
 6246TIP3   OH240372   0.783   5.640   8.168 -0.3479  0.1063  0.2264
 6246TIP3    H140373   0.792   5.713   8.107 -0.2100 -0.1422 -0.0476
 6246TIP3    H240374   0.700   5.598   8.143 -0.9960  0.8449  1.1057
 6247TIP3   OH240375   0.589   5.711   1.557 -0.3641 -0.2226  0.2211
 6247TIP3    H140376   0.532   5.773   1.512  0.7144 -1.4260 -2.9425
 6247TIP3    H240377   0.676   5.750   1.550  0.0190 -1.1081  0.0431
 6248TIP3   OH240378   1.356   6.430   1.593 -0.1525 -0.1366 -0.2933
 6248TIP3    H140379   1.426   6.377   1.632 -0.8944 -1.2721 -0.4776
 6248TIP3    H240380   1.401   6.492   1.536  0.7030 -0.8669 -0.4147
 6249TIP3   OH240381   1.560   0.891   1.582 -0.1550 -0.1006 -0.0371
 6249TIP3    H140382   1.584   0.888   1.675  2.2476 -1.1654 -0.6529
 6249TIP3    H240383   1.504   0.814   1.569 -0.5603  0.0930  0.5184
 6250TIP3   OH240384   1.846   0.383   8.410 -0.3559 -0.2092  0.1803
 6250TIP3    H140385   1.783   0.431   8.358 -0.9962  0.2086  1.3204
 6250TIP3    H240386   1.929   0.430   8.398 -0.5887  0.1201 -0.1285
 6251TIP3   OH240387   2.413   0.395   0.855  0.5611 -0.5182 -0.3967
 6251TIP3    H140388   2.508   0.387   0.844  0.5939  1.8957 -2.2468
 6251TIP3    H240389   2.377   0.372   0.770 -0.3774  0.8200 -0.3712
 6252TIP3   OH240390   6.769   0.218   8.201 -0.0139 -0.2686  0.1667
 6252TIP3    H140391   6.706   0.146   8.196  1.3452 -1.4104 -1.0653
 6252TIP3    H240392   6.776   0.237   8.295  0.1107 -2.2362  0.5811
 6253TIP3   OH240393   0.502   4.412   0.666 -0.1659 -0.4555 -0.2329
 6253TIP3    H140394   0.416   4.387   0.700  0.6416 -2.3316  0.5520
 6253TIP3    H240395   0.551   4.329   0.665  1.3208  0.4276 -1.5507
 6254TIP3   OH240396   1.509   5.925   0.021 -0.0247 -0.6362 -0.1062
 6254TIP3    H140397   1.555   6.002  -0.013  1.9994 -0.2534  3.2327
 6254TIP3    H240398   1.545   5.851  -0.028  0.5820  0.1740 -0.8949
 6255TIP3   OH240399   7.074   6.403   8.333 -0.1730  0.1382  0.4598
 6255TIP3    H140400   7.155   6.453   8.342  0.8604 -1.1256 -1.4738
 6255TIP3    H240401   7.078   6.340   8.404  1.2062 -0.7646 -0.3813
 6256TIP3   OH240402   6.276   0.118   0.251  0.0929  0.0152 -0.0103
 6256TIP3    H140403   6.238   0.203   0.270 -1.6073 -0.6302 -0.4500
 6256TIP3    H240404   6.367   0.137   0.227 -0.2991  1.7054 -0.2098
 6257TIP3   OH240405   6.717   5.626   1.127  0.3389 -0.5073  0.7116
 6257TIP3    H140406   6.754   5.671   1.051 -2.4660  1.6655  0.5332
 6257TIP3    H240407   6.674   5.549   1.091 -0.3425  0.1165  0.1814
 6258TIP3   OH240408   2.566   4.753   8.236 -0.1692 -0.0290  0.1593
 6258TIP3    H140409   2.559   4.799   8.153  0.3662  1.3783  0.8715
 6258TIP3    H240410   2.584   4.822   8.300 -2.0318 -0.9034  1.6678
 6259TIP3   OH240411   2.825   0.488   7.480  0.0585 -0.2818  0.0476
 6259TIP3    H140412   2.912   0.472   7.442  0.2708  0.5416  0.1705
 6259TIP3    H240413   2.769   0.503   7.404  0.6354  2.1077  0.0337
 6260TIP3   OH240414   1.326   7.134   2.241 -0.3144  0.2341  0.2901
 6260TIP3    H140415   1.255   7.084   2.280 -0.1994  0.9477  1.4330
 6260TIP3    H240416   1.406   7.086   2.265 -0.3386 -0.1460 -0.3519
 6261TIP3   OH240417   1.712   6.867   1.323 -0.1944 -0.1288 -0.1551
 6261TIP3    H140418   1.669   6.846   1.406  3.0005 -0.8256  1.4244
 6261TIP3    H240419   1.677   6.803   1.261 -0.8490 -1.1762  1.2713
 6262TIP3   OH240420   1.272   6.983   1.671 -0.2899 -0.0521  0.2084
 6262TIP3    H140421   1.281   6.983   1.767 -0.4279 -0.1429  0.2222
 6262TIP3    H240422   1.198   7.041   1.654  0.9371  1.4810  0.0289
 6263TIP3   OH240423   6.785   0.276   8.460 -1.2468  0.7296  0.1662
 6263TIP3    H140424   6.860   0.326   8.491 -0.5151 -0.0958 -0.2595
 6263TIP3    H240425   6.728   0.266   8.537  1.3341 -2.7877  1.7211
 6264TIP3   OH240426   0.946   5.351   0.352  0.2362 -0.7385 -0.1173
 6264TIP3    H140427   1.019   5.318   0.404 -0.5008  0.0299  1.4361
 6264TIP3    H240428   0.889   5.276   0.340 -0.7342 -0.4155  2.1970
 6265TIP3   OH240429   7.248   5.998   8.075  0.1796  0.3934 -0.5520
 6265TIP3    H140430   7.256   6.041   8.161  1.1347  0.6679 -0.7675
 6265TIP3    H240431   7.200   6.061   8.021 -0.6729  0.1005 -0.1425
 6266TIP3   OH240432   1.940   6.818   1.181 -0.0120 -0.0438 -0.2590
 6266TIP3    H140433   1.906   6.762   1.112  2.7138 -2.9701  0.6141
 6266TIP3    H240434   1.874   6.816   1.250 -1.4124  0.5152 -1.5741
 6267TIP3   OH240435   6.188   4.877   1.678  0.0355  0.4847 -0.3306
 6267TIP3    H140436   6.179   4.971   1.695  0.4841  0.8838 -2.2353
 6267TIP3    H240437   6.111   4.838   1.720  0.7237  1.4969  1.9431
 6268TIP3   OH240438   7.307   6.849   8.488 -0.2391  0.6616  0.5182
 6268TIP3    H140439   7.393   6.854   8.447 -1.7890  0.7455 -2.9530
 6268TIP3    H240440   7.307   6.920   8.552  3.0090 -0.7518  2.1677
 6269TIP3   OH240441   0.184   6.628   8.031  0.4395  0.1026  0.6931
 6269TIP3    H140442   0.122   6.653   7.962  1.9718  2.2726  0.0731
 6269TIP3    H240443   0.204   6.710   8.077  2.9267 -0.5407  0.8145
 6270TIP3   OH240444   0.469   5.282   0.735 -0.3849 -0.5266 -0.1088
 6270TIP3    H140445   0.490   5.346   0.666 -0.7605 -0.2621  0.0207
 6270TIP3    H240446   0.509   5.318   0.814  0.3565 -1.0112 -0.2600
 6271TIP3   OH240447   0.894   5.169   6.827 -0.2776 -0.2063 -0.7677
 6271TIP3    H140448   0.817   5.226   6.828  1.0429  1.6218 -1.4492
 6271TIP3    H240449   0.934   5.184   6.741  1.0167 -0.9033 -0.2980
 6272TIP3   OH240450   0.709   0.108   1.110  0.3858 -0.0247 -0.1682
 6272TIP3    H140451   0.674   0.021   1.092 -0.0431  0.1022  0.0196
 6272TIP3    H240452   0.658   0.166   1.054 -0.4410  0.2824  0.8731
 6273TIP3   OH240453   7.199   0.306   7.817  0.5673 -0.5292 -0.0816
 6273TIP3    H140454   7.148   0.225   7.809  0.1365 -0.2043 -0.7273
 6273TIP3    H240455   7.171   0.359   7.742 -0.4939  0.9654  1.3474
 6274TIP3   OH240456   6.763   6.609   1.323 -0.6240  0.2211  0.2288
 6274TIP3    H140457   6.678   6.575   1.296  0.4452 -2.9141  0.6337
 6274TIP3    H240458   6.757   6.615   1.419 -0.4289  0.1563  0.2447
 6275TIP3   OH240459   6.763   6.536   1.583  0.1710  0.0151 -0.4015
 6275TIP3    H140460   6.685   6.484   1.561 -0.7499  1.1219  0.1771
 6275TIP3    H240461   6.800   6.494   1.660  1.6567 -2.0653 -2.1820
 6276TIP3   OH240462   5.946   6.839   0.770  0.4068  0.1221 -0.0956
 6276TIP3    H140463   5.940   6.893   0.692  0.9955 -0.9075 -0.8689
 6276TIP3    H240464   5.942   6.901   0.843  0.5230  1.1470 -0.9528
 6277TIP3   OH240465   1.123   5.514   0.599 -0.1756  0.2985  0.0060
 6277TIP3    H140466   1.105   5.455   0.672 -1.9574 -0.2085 -0.8059
 6277TIP3    H240467   1.056   5.582   0.606  1.0927  1.5463  0.2070
 6278TIP3   OH240468   2.068   5.781   8.066 -0.5085 -0.6014 -0.2927
 6278TIP3    H140469   2.150   5.828   8.083 -0.1062 -1.9532  1.8095
 6278TIP3    H240470   2.095   5.703   8.018 -0.7666 -0.2751 -0.9678
 6279TIP3   OH240471   1.574   5.822   1.859  0.0617  0.4278  0.1620
 6279TIP3    H140472   1.524   5.887   1.908 -0.4164 -0.6217  1.0832
 6279TIP3    H240473   1.666   5.843   1.877 -0.0910  0.9027  0.3791
 6280TIP3   OH240474   2.339   5.455   2.096  0.2660 -0.4503 -0.5045
 6280TIP3    H140475   2.276   5.386   2.114  0.0250 -0.0724  0.1303
 6280TIP3    H240476   2.292   5.518   2.042 -0.4106  0.6012  1.2532
 6281TIP3   OH240477   1.014   0.621   1.060  0.4021  0.4534 -0.2441
 6281TIP3    H140478   1.008   0.620   0.964  1.4210 -0.7232 -0.3012
 6281TIP3    H240479   1.060   0.540   1.082  0.9088  1.1275  1.1994
 6282TIP3   OH240480   2.527   4.276   8.246  0.5671 -0.2662  0.2684
 6282TIP3    H140481   2.598   4.328   8.284 -0.3600  0.9916  0.3220
 6282TIP3    H240482   2.518   4.202   8.306 -0.2749  1.2352  2.0602
 6283TIP3   OH240483   0.652   5.504   1.391 -0.0141 -0.0519  0.1841
 6283TIP3    H140484   0.716   5.497   1.462 -0.7416 -0.7699  0.7855
 6283TIP3    H240485   0.578   5.551   1.430  0.4987  1.5428 -0.7566
 6284TIP3   OH240486   0.849   0.605   1.920  0.0874 -0.2765 -0.2269
 6284TIP3    H140487   0.800   0.679   1.883  1.6986  0.7258 -0.4321
 6284TIP3    H240488   0.936   0.641   1.937  0.8948 -2.1515 -0.3231
 6285TIP3   OH240489   0.934   6.696   1.101 -0.5136  0.1911 -0.3273
 6285TIP3    H140490   1.003   6.701   1.167 -1.5460 -0.3177  0.7969
 6285TIP3    H240491   0.923   6.786   1.071  2.6582 -0.1007 -2.6441
 6286TIP3   OH240492   1.970   0.049   0.344  0.8663  0.0065 -0.6648
 6286TIP3    H140493   2.025   0.120   0.375  0.5116  0.2755 -0.6475
 6286TIP3    H240494   1.935   0.009   0.423 -0.1828  0.8068 -0.7110
 6287TIP3   OH240495   1.754   0.850   1.096  0.5382 -0.2864 -0.3169
 6287TIP3    H140496   1.802   0.793   1.035  1.2629 -0.3360  0.2961
 6287TIP3    H240497   1.779   0.820   1.183 -0.7333 -0.4048  0.0226
 6288TIP3   OH240498   6.986   6.423   7.279 -0.2125 -0.0377  0.4192
 6288TIP3    H140499   7.040   6.388   7.349  0.5660  4.0499  1.9928
 6288TIP3    H240500   7.022   6.384   7.199  1.9562 -1.0968  1.8718
 6289TIP3   OH240501   1.956   5.860   0.287  0.6776 -0.3023 -0.3007
 6289TIP3    H140502   1.883   5.809   0.253  0.4674 -0.2898  0.1258
 6289TIP3    H240503   2.030   5.799   0.285  1.3714  0.5534 -3.4939
 6290TIP3   OH240504   6.947   6.003   8.061 -0.2343 -0.0435 -0.2928
 6290TIP3    H140505   6.951   5.924   8.114  2.5764 -0.6339 -1.3225
 6290TIP3    H240506   6.981   5.978   7.976 -1.4752  1.7294 -1.3543
 6291TIP3   OH240507   7.247   0.448   7.359  0.2128  0.0761  0.0824
 6291TIP3    H140508   7.323   0.406   7.399 -0.4145 -0.3351  0.8326
 6291TIP3    H240509   7.180   0.447   7.427  0.1715  2.2680  0.1345
 6292TIP3   OH240510   1.183   6.733   0.316  0.1460  0.1677  0.4933
 6292TIP3    H140511   1.146   6.786   0.245  0.1444  0.7238  0.9052
 6292TIP3    H240512   1.121   6.661   0.327 -0.6258  0.8789  0.9149
 6293TIP3   OH240513   0.387   6.190   0.640  0.0440 -0.1134  0.1795
 6293TIP3    H140514   0.412   6.106   0.676 -1.0361  0.5734  2.6360
 6293TIP3    H240515   0.467   6.242   0.641  0.1870 -0.3523  0.8758
 6294TIP3   OH240516   0.967   0.082   1.305 -0.2307 -0.5354  0.2552
 6294TIP3    H140517   0.885   0.077   1.255 -0.6745 -2.0825  1.1241
 6294TIP3    H240518   0.947   0.041   1.389  1.6564 -1.6645  0.1906
 6295TIP3   OH240519   1.578   7.005   2.306 -0.6658 -1.0519  0.0244
 6295TIP3    H140520   1.567   6.924   2.356 -0.9618 -1.2424 -0.3473
 6295TIP3    H240521   1.664   7.038   2.333 -0.1925 -1.8996 -0.4022
 6296TIP3   OH240522   0.675   6.654   8.439  1.2161  0.2866 -0.0954
 6296TIP3    H140523   0.763   6.638   8.403  1.5258 -0.2656  0.8785
 6296TIP3    H240524   0.691   6.674   8.532  0.4568  1.9816 -0.3098
 6297TIP3   OH240525   1.563   6.822   1.576 -0.1869 -0.0803 -0.3813
 6297TIP3    H140526   1.529   6.796   1.662 -0.9475  0.8591 -0.3943
 6297TIP3    H240527   1.600   6.909   1.590  2.5762 -1.2233 -0.2827
 6298TIP3   OH240528   0.934   5.019   1.284 -0.3268  0.0142  0.2514
 6298TIP3    H140529   0.864   4.974   1.237 -0.4140  0.3367  0.0667
 6298TIP3    H240530   1.006   5.025   1.220  0.3475 -1.4566  0.8443
 6299TIP3   OH240531   2.712   5.151   1.133 -0.4897  0.4426 -0.1915
 6299TIP3    H140532   2.712   5.153   1.229 -0.3935  2.3705 -0.2204
 6299TIP3    H240533   2.726   5.242   1.107 -0.9831  0.0013 -2.0458
 6300TIP3   OH240534   1.181   6.702   2.428  0.0722 -0.1785 -0.1508
 6300TIP3    H140535   1.094   6.671   2.402 -0.6050  1.1057  0.5636
 6300TIP3    H240536   1.233   6.621   2.436 -1.1118 -0.9759 -0.3219
 6301TIP3   OH240537   1.595   5.162   7.090 -0.3758  0.4135 -0.1788
 6301TIP3    H140538   1.525   5.216   7.126 -0.9593 -1.2000  1.1459
 6301TIP3    H240539   1.560   5.074   7.088  1.4304 -0.3315 -0.0153
 6302TIP3   OH240540   6.116   5.818   7.776 -0.3405  0.4383  0.0378
 6302TIP3    H140541   6.172   5.773   7.712  0.8800 -0.0150  1.4055
 6302TIP3    H240542   6.098   5.752   7.843 -1.7325  0.8670  0.0975
 6303TIP3   OH240543   0.436   5.799   2.107 -0.2993 -0.0601  0.0097
 6303TIP3    H140544   0.395   5.871   2.059 -0.4394  0.8033  1.3795
 6303TIP3    H240545   0.369   5.730   2.108 -1.2491  0.8598  1.1167
 6304TIP3   OH240546   1.927   0.828   7.428  0.3634  0.2633 -0.0204
 6304TIP3    H140547   2.019   0.812   7.405  0.2034  0.3814 -0.7477
 6304TIP3    H240548   1.917   0.790   7.516  1.2553  0.7616  0.3069
 6305TIP3   OH240549   6.847   7.216   1.266  0.0074 -0.3271 -0.2683
 6305TIP3    H140550   6.832   7.310   1.279  0.3825 -0.3124  0.0656
 6305TIP3    H240551   6.847   7.179   1.354  2.4442 -0.2385 -0.1910
 6306TIP3   OH240552   0.041   5.916   1.780 -0.2863  0.0650  0.0614
 6306TIP3    H140553  -0.014   5.844   1.808  0.1335 -0.4612 -0.4627
 6306TIP3    H240554  -0.015   5.993   1.786 -1.0356 -0.4486 -0.3401
 6307TIP3   OH240555   2.863   5.152   6.963  0.0867 -0.2779  0.4443
 6307TIP3    H140556   2.846   5.083   6.899  0.3186  0.1817 -0.1220
 6307TIP3    H240557   2.790   5.147   7.025 -1.5783  1.0009 -1.3516
 6308TIP3   OH240558   2.403   0.689   7.614 -0.2044  0.5337  0.2669
 6308TIP3    H140559   2.312   0.677   7.640 -1.0176  2.2353 -1.6265
 6308TIP3    H240560   2.424   0.779   7.640  1.0401  0.0499  0.9692
 6309TIP3   OH240561   0.691   0.424   8.062 -0.0663  0.5363  0.4970
 6309TIP3    H140562   0.719   0.422   8.154 -0.3158 -1.8910  0.5395
 6309TIP3    H240563   0.771   0.443   8.013  0.1305  1.5050  1.1810
 6310TIP3   OH240564   0.403   6.856   1.019 -0.1628 -0.4085 -0.1245
 6310TIP3    H140565   0.316   6.827   1.046  0.2671 -1.2704  0.3907
 6310TIP3    H240566   0.463   6.802   1.071  0.6810 -0.5107 -1.1808
 6311TIP3   OH240567   0.673   6.601   7.833 -0.3653  0.1487  0.5818
 6311TIP3    H140568   0.651   6.511   7.810 -0.1982  0.2010  0.2160
 6311TIP3    H240569   0.601   6.653   7.798 -0.0545  0.2396  0.0751
 6312TIP3   OH240570   1.640   4.055   0.936  0.2498 -0.1653 -0.1680
 6312TIP3    H140571   1.569   4.118   0.920  0.0841 -0.5527 -0.9820
 6312TIP3    H240572   1.698   4.099   0.997 -0.4917  0.3162  0.1966
 6313TIP3   OH240573   0.121   5.637   8.243  0.4593 -0.9855  0.3391
 6313TIP3    H140574   0.129   5.604   8.154 -0.3206 -1.0972  0.3011
 6313TIP3    H240575   0.201   5.688   8.258 -0.2029  0.5005 -1.0558
 6314TIP3   OH240576   5.764   0.175   1.340 -1.0765  0.0018 -0.0804
 6314TIP3    H140577   5.794   0.115   1.408 -0.9547  0.4258  0.2402
 6314TIP3    H240578   5.746   0.119   1.265 -1.6479 -0.5307  0.4419
 6315TIP3   OH240579   7.133   0.333   8.481  0.1226 -0.0477  0.1347
 6315TIP3    H140580   7.170   0.245   8.476 -0.3367 -0.2685  0.5129
 6315TIP3    H240581   7.157   0.375   8.399 -0.2633 -0.7703 -0.3490
 6316TIP3   OH240582   0.358   7.154   8.151 -0.2428 -0.9828  0.4826
 6316TIP3    H140583   0.372   7.191   8.238  1.0417 -0.0774 -0.1124
 6316TIP3    H240584   0.439   7.108   8.131 -1.1573 -2.6524  0.4597
 6317TIP3   OH240585   7.105   6.576   2.104 -0.7748  0.7148 -0.4183
 6317TIP3    H140586   7.012   6.564   2.123 -0.6577  0.3902 -0.0459
 6317TIP3    H240587   7.141   6.488   2.107 -0.5850  0.7574 -1.2608
 6318TIP3   OH240588   1.682   2.114   1.466  0.2977 -0.1077 -0.3892
 6318TIP3    H140589   1.677   2.174   1.392 -0.2771  1.4895  0.9078
 6318TIP3    H240590   1.750   2.051   1.442  0.0946  0.3627 -2.2717
 6319TIP3   OH240591   2.174   6.106   1.735 -0.1516 -0.0307  0.4109
 6319TIP3    H140592   2.098   6.142   1.689 -0.0804 -0.6814 -0.2126
 6319TIP3    H240593   2.142   6.091   1.824 -1.1463 -1.5007 -0.1651
 6320TIP3   OH240594   2.220   0.007   7.267  0.0993  0.0291  0.0402
 6320TIP3    H140595   2.264   0.089   7.245  2.8729 -1.2368  0.6174
 6320TIP3    H240596   2.158   0.032   7.336  0.9169  1.6471  0.2323
 6321TIP3   OH240597   7.132   2.442   1.813 -0.0788 -0.2999  0.6348
 6321TIP3    H140598   7.098   2.498   1.744  1.0385 -0.8993 -0.4279
 6321TIP3    H240599   7.055   2.418   1.865 -0.7125  1.3374  0.4823
 6322TIP3   OH240600   6.467   5.716   1.581 -0.0724 -0.4989  0.0630
 6322TIP3    H140601   6.526   5.760   1.642 -0.8018  3.6269 -2.0294
 6322TIP3    H240602   6.383   5.713   1.626  0.0282  0.1053  0.2940
 6323TIP3   OH240603   7.255   7.317   1.334  0.0465 -0.2592  0.3603
 6323TIP3    H140604   7.232   7.285   1.247 -0.0729  1.0053 -0.0924
 6323TIP3    H240605   7.346   7.346   1.326  0.2900 -0.8761  0.8740
 6324TIP3   OH240606   0.910   6.483   0.294 -0.3453  0.0961 -0.3592
 6324TIP3    H140607   0.983   6.457   0.351 -0.2846 -0.8046 -0.8417
 6324TIP3    H240608   0.950   6.504   0.210 -0.5524  0.4081 -0.3830
 6325TIP3   OH240609   2.241   0.644   1.643 -0.0763 -0.1520  0.1805
 6325TIP3    H140610   2.191   0.565   1.623 -0.6692 -0.2798  2.0273
 6325TIP3    H240611   2.203   0.676   1.725  1.5795  0.8317  0.5899
 6326TIP3   OH240612   1.368   6.834   7.761  0.1407  0.2944 -0.1625
 6326TIP3    H140613   1.395   6.893   7.831  0.7533 -1.4587  1.1302
 6326TIP3    H240614   1.449   6.814   7.714  0.0642 -0.1306 -0.1138
 6327TIP3   OH240615   0.763   6.707   1.443 -0.0186  0.0029 -0.5315
 6327TIP3    H140616   0.857   6.712   1.460  0.0636  0.9992 -1.2570
 6327TIP3    H240617   0.730   6.645   1.508  1.0353  0.1579  0.1563
 6328TIP3   OH240618   1.475   0.408   1.381 -0.5236 -0.0336  0.1178
 6328TIP3    H140619   1.408   0.394   1.448  0.5906 -1.2009  1.0090
 6328TIP3    H240620   1.438   0.370   1.301 -0.6418 -1.3001  0.7671
 6329TIP3   OH240621   1.345   7.156   0.012 -0.1337 -0.0460 -0.5294
 6329TIP3    H140622   1.405   7.150  -0.063  0.7795  1.2403  0.0766
 6329TIP3    H240623   1.387   7.219   0.071 -0.2958 -1.8847  1.5861
 6330TIP3   OH240624   0.851   5.691   1.793  0.3194  0.1272 -0.1331
 6330TIP3    H140625   0.824   5.603   1.768 -1.0838  0.3021  0.7265
 6330TIP3    H240626   0.856   5.690   1.888 -0.1740  1.0976 -0.0833
 6331TIP3   OH240627   5.491   6.315   0.071 -0.2861  0.4462 -0.2095
 6331TIP3    H140628   5.551   6.243   0.051 -0.7815 -0.1909  0.5186
 6331TIP3    H240629   5.439   6.327  -0.008 -0.7473 -0.5610 -0.0777
 6332TIP3   OH240630   0.613   6.309   2.033 -0.2366 -0.3214 -0.2566
 6332TIP3    H140631   0.704   6.294   2.059  0.0762  2.4395  0.3702
 6332TIP3    H240632   0.617   6.384   1.973 -2.0686 -0.4426 -0.5629
 6333TIP3   OH240633   1.268   7.163   1.247 -0.0799  0.5043  0.3069
 6333TIP3    H140634   1.323   7.152   1.325 -1.5229 -1.5234  1.1023
 6333TIP3    H240635   1.329   7.180   1.176  1.5754 -1.3274  1.2447
 6334TIP3   OH240636   1.178   4.932   2.120 -0.7174  0.5164  0.3119
 6334TIP3    H140637   1.158   5.021   2.089  1.8706  0.6816 -1.0196
 6334TIP3    H240638   1.262   4.942   2.165 -1.0708 -1.0452  1.3470
 6335TIP3   OH240639   6.551   6.306   2.328  0.3328 -0.0257  0.3282
 6335TIP3    H140640   6.645   6.316   2.347  0.3818 -0.8804  0.5648
 6335TIP3    H240641   6.512   6.388   2.357  0.6362 -0.6835  2.6538
 6336TIP3   OH240642   0.805   5.456   1.619 -0.0819 -0.4210 -0.0886
 6336TIP3    H140643   0.865   5.383   1.632 -0.6054 -1.0317 -1.0674
 6336TIP3    H240644   0.727   5.432   1.671  0.9046  0.8688  2.0556
 6337TIP3   OH240645   6.793   6.024   1.061 -1.0050 -0.4764 -0.5294
 6337TIP3    H140646   6.726   6.070   1.011 -0.5880  1.3548  0.5560
 6337TIP3    H240647   6.813   5.947   1.009 -2.0695  0.3232 -2.1551
 6338TIP3   OH240648   6.322   5.770   1.365  0.5423  0.0580  0.2498
 6338TIP3    H140649   6.391   5.783   1.430  0.1951  1.6161  0.3284
 6338TIP3    H240650   6.285   5.685   1.386  1.6670 -0.2645  0.9444
 6339TIP3   OH240651   2.282   4.518   0.219  0.2866  0.3441  0.2256
 6339TIP3    H140652   2.375   4.540   0.217 -0.3288  3.3686  1.8833
 6339TIP3    H240653   2.246   4.556   0.139  0.2581  0.2075  0.1727
 6340TIP3   OH240654   1.659   0.820   8.340  0.1334 -0.3890  0.1987
 6340TIP3    H140655   1.725   0.751   8.328  0.4022 -0.3741  1.4862
 6340TIP3    H240656   1.586   0.776   8.382 -0.6641 -0.3861 -1.1636
 6341TIP3   OH240657   2.872   5.842   8.397 -0.0413 -0.0278  0.3491
 6341TIP3    H140658   2.962   5.812   8.380 -0.5895 -1.9794  0.8641
 6341TIP3    H240659   2.837   5.862   8.310 -0.2542 -2.6085 -0.2065
 6342TIP3   OH240660   1.702   6.985   7.867  0.1234  0.1003 -0.0740
 6342TIP3    H140661   1.715   7.009   7.775  0.1860  1.3003  0.2378
 6342TIP3    H240662   1.685   7.068   7.911 -0.8805 -0.5743  0.8385
 6343TIP3   OH240663   2.473   0.919   1.815  0.2553 -0.0458 -0.4670
 6343TIP3    H140664   2.508   0.843   1.769  1.4842  0.1444  0.1459
 6343TIP3    H240665   2.547   0.980   1.822 -0.1593  0.3303  0.8886
 6344TIP3   OH240666   2.723   6.930   1.511  0.5005  0.0925 -0.0914
 6344TIP3    H140667   2.719   7.026   1.505  0.8394 -0.0201 -2.3247
 6344TIP3    H240668   2.635   6.905   1.538 -0.6212  0.8325 -2.8909
 6345TIP3   OH240669   2.499   6.511   6.253 -0.1386 -0.3744  0.1692
 6345TIP3    H140670   2.447   6.507   6.172  0.2549 -1.4197 -0.0363
 6345TIP3    H240671   2.589   6.522   6.223 -0.1997  1.2312  0.5235
 6346TIP3   OH240672   0.843   5.381   1.249  0.4887 -0.7823 -0.2561
 6346TIP3    H140673   0.793   5.447   1.297 -0.0112 -1.5484  0.3072
 6346TIP3    H240674   0.796   5.299   1.266  2.9665 -1.8279  1.7702
 6347TIP3   OH240675   0.648   5.055   1.182  0.2361  0.0798 -0.2610
 6347TIP3    H140676   0.586   5.090   1.119  1.1319  0.8696 -0.7043
 6347TIP3    H240677   0.594   5.004   1.243 -0.6908 -0.2187 -1.3286
 6348TIP3   OH240678   5.427   1.224   8.434  0.6788  0.2855  0.5574
 6348TIP3    H140679   5.338   1.234   8.400  1.2687  0.7624 -0.8876
 6348TIP3    H240680   5.471   1.167   8.371  2.1548  2.1831 -0.1907
 6349TIP3   OH240681   1.364   6.500   2.480  0.7706 -0.1081  0.1545
 6349TIP3    H140682   1.379   6.414   2.441  0.8208  0.2774 -0.6918
 6349TIP3    H240683   1.435   6.510   2.543  0.4255 -0.9332  0.6813
 6350TIP3   OH240684   1.962   6.164   2.265  0.5896 -0.5189 -0.0108
 6350TIP3    H140685   1.870   6.178   2.286  0.9273  0.7622  0.6354
 6350TIP3    H240686   1.981   6.077   2.300  0.3132  0.3047  2.2679
 6351TIP3   OH240687   0.227   6.228   0.437  0.0301 -0.7452 -0.1568
 6351TIP3    H140688   0.267   6.183   0.511  1.9013 -0.9874 -1.2873
 6351TIP3    H240689   0.277   6.309   0.428 -1.4315  0.1946  0.0390
 6352TIP3   OH240690   2.439   5.919   0.745 -0.1442  0.1260 -0.6856
 6352TIP3    H140691   2.369   5.933   0.681 -3.2517  1.4469  2.8275
 6352TIP3    H240692   2.419   5.834   0.785 -0.4204  0.9874  1.0689
 6353TIP3   OH240693   1.088   5.380   0.113  0.0957  0.2074  0.2489
 6353TIP3    H140694   1.016   5.375   0.176 -1.5456  0.2629 -1.5934
 6353TIP3    H240695   1.143   5.452   0.145 -0.0764 -0.5200  2.2466
 6354TIP3   OH240696   1.722   5.492   7.712 -0.0416 -0.1973  0.0239
 6354TIP3    H140697   1.724   5.556   7.641 -0.0545 -0.0524  0.1543
 6354TIP3    H240698   1.637   5.505   7.754  0.7177  0.9724  1.2200
 6355TIP3   OH240699   3.808   0.500   0.292 -0.1441  0.1668  0.5166
 6355TIP3    H140700   3.811   0.404   0.294 -1.1016  0.0966 -0.6893
 6355TIP3    H240701   3.805   0.526   0.384  1.4479 -0.9018  0.8861
 6356TIP3   OH240702   2.277   5.596   1.667  0.1263  0.2803 -0.2647
 6356TIP3    H140703   2.232   5.550   1.596  1.4376 -1.4089 -0.0457
 6356TIP3    H240704   2.363   5.617   1.631  0.1623  1.0050  0.2366
 6357TIP3   OH240705   6.862   5.529   7.924 -0.5392  0.5477  0.2433
 6357TIP3    H140706   6.896   5.608   7.881  3.4134 -1.0461  0.3352
 6357TIP3    H240707   6.833   5.473   7.852  1.7568 -0.1734 -0.1476
 6358TIP3   OH240708   0.393   6.324   1.251  0.1077 -0.1904 -0.0058
 6358TIP3    H140709   0.330   6.357   1.187  0.2866  1.4020  0.6377
 6358TIP3    H240710   0.408   6.397   1.311  1.6431 -0.9461  0.5612
 6359TIP3   OH240711   7.331   5.559   1.082  0.0485  0.3610 -0.0649
 6359TIP3    H140712   7.273   5.625   1.120  0.4467  1.4725 -1.3610
 6359TIP3    H240713   7.290   5.475   1.103 -1.0699  1.0672  0.5811
 6360TIP3   OH240714   1.676   7.301   1.224 -0.2769 -0.0399  1.0349
 6360TIP3    H140715   1.597   7.251   1.207  0.5852 -0.9770 -0.2997
 6360TIP3    H240716   1.683   7.303   1.319 -0.7112 -1.8683  1.1300
 6361TIP3   OH240717   6.449   6.465   1.852 -0.1598 -0.6042 -0.6825
 6361TIP3    H140718   6.382   6.424   1.907  1.8129 -0.0493  2.2805
 6361TIP3    H240719   6.428   6.559   1.854  0.2427 -0.5195 -0.4067
 6362TIP3   OH240720   5.709   5.160   1.997 -0.3287 -0.0238 -0.1359
 6362TIP3    H140721   5.620   5.195   2.006  0.2046  1.3567 -0.1097
 6362TIP3    H240722   5.746   5.166   2.085 -0.3746 -1.0589 -0.0425
 6363TIP3   OH240723   6.697   0.351   1.021  0.5414  0.0452  0.0111
 6363TIP3    H140724   6.702   0.432   1.072  0.9656 -0.2530  0.4458
 6363TIP3    H240725   6.623   0.304   1.060 -0.7455  0.9308 -1.2882
 6364TIP3   OH240726   2.802   5.760   1.785  0.2066 -0.2944  0.7009
 6364TIP3    H140727   2.884   5.723   1.816 -0.6261 -1.1981  1.8737
 6364TIP3    H240728   2.765   5.803   1.863  1.2612  3.2420 -0.6547
 6365TIP3   OH240729   0.617   4.469   1.479  0.2759  0.3386  0.2215
 6365TIP3    H140730   0.599   4.514   1.562  1.5430 -1.1801  1.3558
 6365TIP3    H240731   0.624   4.376   1.503 -0.7487 -0.2937 -1.8179
 6366TIP3   OH240732   1.895   0.284   1.569  0.1187  0.5654  0.7277
 6366TIP3    H140733   1.869   0.328   1.649 -2.6150  1.0982 -0.4009
 6366TIP3    H240734   1.884   0.191   1.587  0.0396  0.6593  1.1534
 6367TIP3   OH240735   1.554   6.521   0.286  0.0540  0.0479  0.0626
 6367TIP3    H140736   1.603   6.484   0.360 -0.5981  0.6458  0.8042
 6367TIP3    H240737   1.523   6.605   0.318 -0.9186 -0.0426 -0.6289
 6368TIP3   OH240738   1.190   0.617   1.455 -0.1904 -0.3874 -0.5152
 6368TIP3    H140739   1.147   0.539   1.419  0.6791 -0.7127 -0.8835
 6368TIP3    H240740   1.153   0.627   1.542 -1.4972 -0.2626 -1.0798
 6369TIP3   OH240741   0.715   3.975   1.019  0.3563  0.0048  0.4432
 6369TIP3    H140742   0.688   3.890   1.054  1.6379  1.0030  4.0718
 6369TIP3    H240743   0.633   4.023   1.007 -0.2172 -0.9378  0.4945
 6370TIP3   OH240744   0.700   5.359   2.180 -0.3082  0.3276 -0.2055
 6370TIP3    H140745   0.607   5.362   2.161 -0.0873  1.3126 -1.1844
 6370TIP3    H240746   0.736   5.437   2.138  0.8965  0.1647  0.4923
 6371TIP3   OH240747   6.990   6.834   0.717 -0.0573  0.2839  0.0735
 6371TIP3    H140748   7.044   6.842   0.638 -0.8009 -0.5173 -0.5252
 6371TIP3    H240749   6.917   6.778   0.690  0.3562 -1.0784  1.6818
 6372TIP3   OH240750   5.768   4.332   0.674  0.1385  0.6066 -0.1948
 6372TIP3    H140751   5.701   4.400   0.677  0.0880  0.5624 -0.3387
 6372TIP3    H240752   5.841   4.372   0.628 -0.6373 -0.0929 -2.0844
 6373TIP3   OH240753   1.504   6.785   2.432  0.6854  0.4846 -0.0934
 6373TIP3    H140754   1.527   6.705   2.478  1.2035  1.0329  0.5940
 6373TIP3    H240755   1.408   6.782   2.426  0.5797  0.5974  1.3620
 6374TIP3   OH240756   0.283   7.001   1.520 -0.0046 -0.2071  0.0920
 6374TIP3    H140757   0.233   7.066   1.569 -2.5261 -1.5738 -0.5886
 6374TIP3    H240758   0.251   7.009   1.430  2.2856  0.0750 -0.7443
 6375TIP3   OH240759   2.707   5.007   7.865 -0.6048  0.6759 -0.5889
 6375TIP3    H140760   2.790   5.022   7.911 -0.9445 -0.8567  0.5721
 6375TIP3    H240761   2.680   5.093   7.835  0.2128  1.5430  1.0953
 6376TIP3   OH240762   6.241   0.674   7.859  0.1572  0.1547 -0.6240
 6376TIP3    H140763   6.184   0.597   7.857  1.4200 -0.8094 -0.1225
 6376TIP3    H240764   6.321   0.646   7.815  0.7118  1.1131 -0.2362
 6377TIP3   OH240765   7.210   6.036   0.633  0.3471 -0.4924  0.3220
 6377TIP3    H140766   7.289   6.082   0.661 -0.3144 -0.3434  1.9923
 6377TIP3    H240767   7.171   6.003   0.714 -2.9941  2.1295 -0.0991
 6378TIP3   OH240768   1.748   0.244   0.261 -0.3455 -0.1489 -0.0254
 6378TIP3    H140769   1.799   0.167   0.287 -0.2330 -0.4250 -1.0487
 6378TIP3    H240770   1.813   0.304   0.224 -0.3679  0.6295  1.1505
 6379TIP3   OH240771   6.857   5.905   1.957 -0.0175  0.1437 -0.0422
 6379TIP3    H140772   6.935   5.859   1.987 -1.3016 -3.0562 -1.3777
 6379TIP3    H240773   6.790   5.886   2.023 -0.0174  1.8360  0.4609
 6380TIP3   OH240774   0.892   4.950   1.858  0.1940  0.2862  1.1120
 6380TIP3    H140775   0.861   4.891   1.789  0.6467 -0.1210  1.2494
 6380TIP3    H240776   0.973   4.909   1.890 -0.5221 -0.0533  2.5619
 6381TIP3   OH240777   2.299   6.961   1.201  0.4757  0.2770  0.1732
 6381TIP3    H140778   2.246   6.957   1.281  0.1636 -0.9146 -0.0879
 6381TIP3    H240779   2.366   7.027   1.220  1.3514 -1.0955  2.0021
 6382TIP3   OH240780   3.332   1.088   8.129 -0.1016 -0.6807 -0.9057
 6382TIP3    H140781   3.245   1.127   8.119  0.1099 -0.3290 -1.4238
 6382TIP3    H240782   3.316   1.002   8.167 -0.6377 -0.3976 -0.4926
 6383TIP3   OH240783   2.739   7.084   7.187  0.0480  0.1016  0.0829
 6383TIP3    H140784   2.684   7.155   7.153 -0.3846 -0.9885 -1.5707
 6383TIP3    H240785   2.786   7.052   7.110  1.0477 -0.6967  1.0089
 6384TIP3   OH240786   2.953   0.384   1.776  0.5177 -0.0144 -0.1199
 6384TIP3    H140787   2.910   0.346   1.699  1.7817 -0.2843 -0.7144
 6384TIP3    H240788   2.907   0.346   1.851  0.7781 -1.5739 -0.7232
 6385TIP3   OH240789   2.867   5.694   1.501 -0.2232  0.2036 -0.3516
 6385TIP3    H140790   2.955   5.711   1.535  0.4166 -0.4989 -1.6299
 6385TIP3    H240791   2.809   5.719   1.573  1.0469 -0.1631  0.8360
 6386TIP3   OH240792   3.157   6.588   0.578  0.2068  0.4935 -0.2924
 6386TIP3    H140793   3.230   6.527   0.586  1.0868  1.4175 -0.9930
 6386TIP3    H240794   3.153   6.632   0.663 -0.9876 -1.1231  0.5096
 6387TIP3   OH240795   0.135   4.752   1.086  0.4143 -0.1980  0.5448
 6387TIP3    H140796   0.142   4.833   1.136  0.5306 -0.0079  0.2202
 6387TIP3    H240797   0.047   4.719   1.106  0.1907  0.2529  0.2995
 6388TIP3   OH240798   0.564   7.058   1.577  0.7614 -0.3885  0.4083
 6388TIP3    H140799   0.545   7.113   1.653  0.7324 -0.4898  0.4732
 6388TIP3    H240800   0.486   7.003   1.567 -0.3395  1.3688 -1.2115
 6389TIP3   OH240801   3.305   6.475   2.174  0.1220 -0.1307 -0.6751
 6389TIP3    H140802   3.359   6.552   2.194 -0.3845  0.3100 -0.9989
 6389TIP3    H240803   3.369   6.407   2.153  0.5754  0.1923 -0.3641
 6390TIP3   OH240804   3.340   6.190   7.660 -0.5636 -0.0641 -0.4145
 6390TIP3    H140805   3.328   6.170   7.567 -0.3580 -2.9245  0.1209
 6390TIP3    H240806   3.278   6.260   7.678 -0.8761  0.2543 -2.6181
 6391TIP3   OH240807   3.316   3.982   8.221 -0.5605 -0.1341 -0.0390
 6391TIP3    H140808   3.269   3.902   8.201 -1.2400 -0.5436  3.0372
 6391TIP3    H240809   3.275   4.048   8.165 -3.0849 -1.0047  0.7225
 6392TIP3   OH240810   0.293   5.845   1.151  0.0988 -0.1784  0.8751
 6392TIP3    H140811   0.356   5.903   1.108  1.9420 -1.9117  1.1723
 6392TIP3    H240812   0.267   5.783   1.083  0.3913 -0.8042  1.3286
 6393TIP3   OH240813   4.146   0.260   8.369 -0.5881 -0.1857  0.1554
 6393TIP3    H140814   4.237   0.249   8.342 -0.7073  0.1807 -0.4340
 6393TIP3    H240815   4.130   0.191   8.433 -0.2170 -0.9422 -0.5567
 6394TIP3   OH240816   2.830   3.494   0.824  0.0201 -0.4692 -0.5857
 6394TIP3    H140817   2.832   3.427   0.756  0.6999 -0.9653 -0.0821
 6394TIP3    H240818   2.903   3.552   0.802  0.9366 -1.2484  0.3301
 6395TIP3   OH240819   0.811   4.864   0.619  0.5124 -0.5895  0.3166
 6395TIP3    H140820   0.750   4.931   0.588  1.3304 -0.9866 -2.3490
 6395TIP3    H240821   0.853   4.903   0.696 -0.1143  1.3677 -0.3113
 6396TIP3   OH240822   3.717   6.057   1.954 -0.2039 -0.1695 -0.0859
 6396TIP3    H140823   3.640   6.096   1.914 -0.4014 -1.1906 -0.7015
 6396TIP3    H240824   3.684   5.981   2.001 -0.0377  1.1723  2.3302
 6397TIP3   OH240825   4.389   0.028   1.018 -0.3507 -0.1306 -0.1863
 6397TIP3    H140826   4.410   0.012   1.110 -2.2111 -0.5380  0.1807
 6397TIP3    H240827   4.390   0.123   1.009 -0.2067 -0.0898  0.2524
 6398TIP3   OH240828   3.360   1.257   2.359  0.3647 -0.5894  0.3143
 6398TIP3    H140829   3.453   1.255   2.335  0.4296 -0.0292  0.4929
 6398TIP3    H240830   3.324   1.176   2.324  0.7026 -0.3260 -0.6675
 6399TIP3   OH240831   3.046   5.741   1.159  0.1909  0.6053 -0.5414
 6399TIP3    H140832   2.956   5.711   1.145 -0.0997  2.0155 -1.8085
 6399TIP3    H240833   3.037   5.831   1.192  1.1282  0.4648  0.1283
 6400TIP3   OH240834   2.630   7.219   0.960  0.4346  0.1818 -0.1202
 6400TIP3    H140835   2.613   7.125   0.956 -2.2063  0.3157  4.4850
 6400TIP3    H240836   2.725   7.226   0.946  0.4381 -2.9142 -2.3854
 6401TIP3   OH240837   2.651   6.431   1.281 -0.5225  0.4435 -0.9683
 6401TIP3    H140838   2.702   6.500   1.323 -0.2081 -0.4380  0.1093
 6401TIP3    H240839   2.574   6.421   1.337 -0.1998 -0.5990 -0.7091
 6402TIP3   OH240840   4.748   5.927   1.264  0.2093 -0.2789  0.6357
 6402TIP3    H140841   4.702   5.998   1.310  0.0685 -0.3717  0.6394
 6402TIP3    H240842   4.746   5.854   1.326 -0.6670 -0.6492  0.1813
 6403TIP3   OH240843   2.615   0.084   0.439 -0.1814 -0.9968 -0.5066
 6403TIP3    H140844   2.694   0.030   0.445  0.2042 -0.1596  2.8789
 6403TIP3    H240845   2.639   0.154   0.378  2.0385 -0.2671  1.1254
 6404TIP3   OH240846   3.091   0.471   7.404  0.3191 -0.2330 -0.3133
 6404TIP3    H140847   3.118   0.402   7.465 -0.2858  0.4586  0.7336
 6404TIP3    H240848   3.161   0.536   7.409  0.0046  0.0775  0.0476
 6405TIP3   OH240849   2.690   7.000   7.927 -0.3668  0.4168 -0.1054
 6405TIP3    H140850   2.609   6.952   7.945  0.1103  0.2790  1.8155
 6405TIP3    H240851   2.681   7.030   7.836 -2.6735  0.6114  0.1612
 6406TIP3   OH240852   3.927   4.802   1.405 -0.3284 -0.1838  0.0642
 6406TIP3    H140853   3.841   4.782   1.442 -0.3726  0.2694  0.2231
 6406TIP3    H240854   3.978   4.722   1.417 -0.6287 -0.3452  0.2731
 6407TIP3   OH240855   3.448   4.541   7.982  0.1915  0.1216  0.0345
 6407TIP3    H140856   3.462   4.596   8.059  0.8499 -1.1389  0.8330
 6407TIP3    H240857   3.353   4.530   7.977  0.1945 -0.4132  1.1131
 6408TIP3   OH240858   3.044   5.774   0.630 -0.4780  0.0033  0.0800
 6408TIP3    H140859   3.128   5.788   0.588 -0.0608 -2.7666 -0.1304
 6408TIP3    H240860   3.000   5.708   0.575 -0.8401 -2.0198  2.6550
 6409TIP3   OH240861   4.487   6.845   0.668 -0.4109  0.3117  0.1997
 6409TIP3    H140862   4.433   6.883   0.737 -1.8028 -0.8593 -0.2218
 6409TIP3    H240863   4.430   6.781   0.625  1.1265 -0.5359 -0.6312
 6410TIP3   OH240864   3.336   6.671   1.244  0.0026  0.0320 -0.2047
 6410TIP3    H140865   3.266   6.705   1.299 -0.1151  0.8097 -0.8194
 6410TIP3    H240866   3.329   6.721   1.162  2.5451  1.5986  0.4666
 6411TIP3   OH240867   0.046   7.131   7.259  0.3466  0.8505 -0.1448
 6411TIP3    H140868   0.029   7.051   7.309  0.6837  1.9193  1.7166
 6411TIP3    H240869  -0.033   7.143   7.206 -0.2985  0.0571  0.6127
 6412TIP3   OH240870   4.252   6.066   1.936 -0.2675  0.4589 -0.0089
 6412TIP3    H140871   4.218   6.112   2.013 -0.7844  3.6251 -2.0645
 6412TIP3    H240872   4.186   6.079   1.868  0.2512 -2.1853 -1.0696
 6413TIP3   OH240873   1.153   5.028   7.663  0.6687 -0.5991  0.4179
 6413TIP3    H140874   1.080   4.967   7.660 -0.1210  0.2809  1.1978
 6413TIP3    H240875   1.223   4.985   7.616 -1.7688  0.4223 -4.4678
 6414TIP3   OH240876   2.925   4.850   2.159 -0.3766 -0.6183 -0.0342
 6414TIP3    H140877   2.910   4.853   2.065 -0.4966 -0.4402 -0.0098
 6414TIP3    H240878   2.838   4.836   2.197 -0.2548 -1.2387  0.0227
 6415TIP3   OH240879   2.202   5.136   7.418 -0.4684 -0.6274  0.2629
 6415TIP3    H140880   2.207   5.161   7.326  0.5489 -2.0901 -0.0975
 6415TIP3    H240881   2.217   5.218   7.466 -3.4080  0.5866 -0.8353
 6416TIP3   OH240882   2.607   6.246   0.277 -0.5019  0.3623  0.7331
 6416TIP3    H140883   2.630   6.236   0.369 -0.1217  0.6837  0.6722
 6416TIP3    H240884   2.655   6.324   0.248  0.6940 -0.6796 -0.1578
 6417TIP3   OH240885   1.511   4.918   1.727 -0.2035 -0.1808 -0.6784
 6417TIP3    H140886   1.575   4.970   1.679 -0.7764  1.6336  0.4755
 6417TIP3    H240887   1.552   4.900   1.812 -0.1554 -1.3172 -0.9301
 6418TIP3   OH240888   2.749   6.175   1.145 -0.2949 -0.5318 -1.1557
 6418TIP3    H140889   2.720   6.163   1.055 -3.7021 -1.3134 -0.0234
 6418TIP3    H240890   2.705   6.255   1.175  1.5926  0.2850 -0.4794
 6419TIP3   OH240891   3.326   6.988   0.768  0.4086 -0.0504 -0.0898
 6419TIP3    H140892   3.332   7.071   0.815 -1.3860 -0.2257  0.4838
 6419TIP3    H240893   3.409   6.981   0.722  0.9336  1.6461  0.5454
 6420TIP3   OH240894   1.894   7.267   0.580 -0.2396 -0.1467 -0.0644
 6420TIP3    H140895   1.824   7.306   0.631  0.5317  0.7217  0.3559
 6420TIP3    H240896   1.974   7.289   0.628  0.3945 -0.3336 -1.0043
 6421TIP3   OH240897   1.722   7.121   2.045 -0.0078  0.4853 -0.3405
 6421TIP3    H140898   1.678   7.056   2.100 -0.6844  1.8324  0.7398
 6421TIP3    H240899   1.814   7.118   2.073 -0.0004 -0.1198 -0.4178
 6422TIP3   OH240900   1.453   5.628   0.283 -0.4549 -0.4027  0.2036
 6422TIP3    H140901   1.387   5.631   0.214  0.4106 -2.8177 -0.7775
 6422TIP3    H240902   1.414   5.573   0.351 -0.4477  0.2119  0.7052
 6423TIP3   OH240903   2.705   6.012   8.016  0.2008 -0.5010  0.0268
 6423TIP3    H140904   2.740   5.926   7.993 -0.2750 -1.0015  1.1176
 6423TIP3    H240905   2.780   6.071   8.012  0.6119 -1.0482 -0.3348
 6424TIP3   OH240906   7.209   5.799   7.134  0.0195 -0.0157 -0.3047
 6424TIP3    H140907   7.146   5.736   7.169 -1.3414  1.1712 -0.5943
 6424TIP3    H240908   7.185   5.810   7.043  2.4829 -1.7621 -1.2250
 6425TIP3   OH240909   3.827   6.084   1.648  0.9163  0.1865 -0.1803
 6425TIP3    H140910   3.792   6.049   1.731  3.7200  0.0425  0.9835
 6425TIP3    H240911   3.802   6.177   1.650 -0.3871 -0.1540  0.0759
 6426TIP3   OH240912   2.551   6.650   0.029  0.6677  0.2642  0.4145
 6426TIP3    H140913   2.514   6.651  -0.059 -1.8957  0.8050  1.4518
 6426TIP3    H240914   2.542   6.740   0.060  1.0380 -0.0516  1.4569
 6427TIP3   OH240915   2.000   6.812   2.244 -0.3859  0.0129  0.4331
 6427TIP3    H140916   1.911   6.783   2.265 -0.4282  1.2138  2.0238
 6427TIP3    H240917   2.049   6.800   2.325  1.4840 -2.6785 -1.0399
 6428TIP3   OH240918   1.218   5.543   1.058  0.1457 -0.1550 -0.3590
 6428TIP3    H140919   1.265   5.614   1.100  0.6247  0.6571 -2.2025
 6428TIP3    H240920   1.138   5.583   1.024  0.8293 -0.2553 -2.1856
 6429TIP3   OH240921   2.038   4.748   1.830 -0.3216 -0.5314 -0.4227
 6429TIP3    H140922   1.980   4.824   1.829 -0.1187 -0.3625  0.4703
 6429TIP3    H240923   1.982   4.675   1.857 -0.2081 -0.4417  0.0563
 6430TIP3   OH240924   5.743   1.539   8.423 -0.0928 -0.1473  0.0625
 6430TIP3    H140925   5.688   1.547   8.500 -0.0292 -0.1881  0.1130
 6430TIP3    H240926   5.759   1.630   8.396  0.8387 -0.0913  0.7764
 6431TIP3   OH240927   2.434   6.507   0.389 -0.2325  0.8131  0.1466
 6431TIP3    H140928   2.431   6.471   0.301  1.5696  0.2653  0.2858
 6431TIP3    H240929   2.511   6.564   0.389 -0.4276  1.0869  1.2490
 6432TIP3   OH240930   2.721   4.578   1.929  0.3228 -0.2586  0.1953
 6432TIP3    H140931   2.676   4.561   2.011  0.5228 -0.0271  0.3548
 6432TIP3    H240932   2.803   4.528   1.935  0.7382  0.4497  0.5063
 6433TIP3   OH240933   3.761   3.867   0.511 -0.6713  0.2286  0.1537
 6433TIP3    H140934   3.830   3.805   0.485 -1.2280  0.3224 -1.5559
 6433TIP3    H240935   3.772   3.875   0.606 -0.0033 -1.7857  0.2805
 6434TIP3   OH240936   5.456   6.491   1.480 -0.0921 -0.2930 -0.6770
 6434TIP3    H140937   5.486   6.493   1.571  0.3737 -1.7351 -0.7864
 6434TIP3    H240938   5.421   6.579   1.465 -0.4307 -0.1199  0.9740
 6435TIP3   OH240939   3.504   0.285   7.029 -1.0709 -0.0632 -0.7648
 6435TIP3    H140940   3.461   0.241   7.103 -1.6728  0.2929 -0.8990
 6435TIP3    H240941   3.595   0.256   7.033 -0.3983  2.2036  1.8781
 6436TIP3   OH240942   2.040   0.211   0.776  0.5397  0.5745 -0.2373
 6436TIP3    H140943   2.031   0.233   0.868 -0.3021 -0.5906 -0.0372
 6436TIP3    H240944   2.009   0.121   0.769  1.3211  0.3869 -1.5240
 6437TIP3   OH240945   3.897   5.591   0.908  0.5808 -0.0590 -0.2505
 6437TIP3    H140946   3.918   5.671   0.955  0.8987 -0.4447  0.2738
 6437TIP3    H240947   3.929   5.606   0.819  2.5167 -0.3727  0.3549
 6438TIP3   OH240948   3.187   6.205   1.114 -0.6852  0.4411  0.5610
 6438TIP3    H140949   3.155   6.238   1.030  2.0177  1.2060 -0.2493
 6438TIP3    H240950   3.222   6.283   1.158  1.1756 -0.4900  0.8005
 6439TIP3   OH240951   5.608   1.012   0.256  0.1149 -0.4401  0.1984
 6439TIP3    H140952   5.561   1.070   0.316 -1.3195  0.0637 -1.3633
 6439TIP3    H240953   5.656   1.071   0.198 -0.1964 -0.8375 -0.4751
 6440TIP3   OH240954   1.736   4.381   1.442  0.1085 -0.3379 -0.2009
 6440TIP3    H140955   1.724   4.474   1.464 -0.7307 -1.0261  2.4300
 6440TIP3    H240956   1.828   4.374   1.416  0.1116  1.2717 -0.6950
 6441TIP3   OH240957   5.732   7.026   0.825 -0.3806 -0.0650  0.6512
 6441TIP3    H140958   5.741   7.039   0.731  1.0966 -1.6135  0.5644
 6441TIP3    H240959   5.677   7.099   0.854  0.4170  1.2821 -1.1561
 6442TIP3   OH240960   0.889   4.391   1.390  1.3822 -0.2155 -0.0619
 6442TIP3    H140961   0.798   4.422   1.393  1.8510  1.1186  1.5254
 6442TIP3    H240962   0.886   4.313   1.335 -0.9119 -0.7907  0.8158
 6443TIP3   OH240963   2.851   5.846   7.318  0.0150  0.3017  0.0270
 6443TIP3    H140964   2.837   5.753   7.335  1.3884 -0.3824 -2.3343
 6443TIP3    H240965   2.945   5.859   7.332 -0.4213  1.7271  1.9245
 6444TIP3   OH240966   1.371   5.447   0.470 -0.0743 -0.3808 -0.0957
 6444TIP3    H140967   1.347   5.401   0.389 -1.8787 -1.0716  0.7975
 6444TIP3    H240968   1.288   5.459   0.516  0.7360  1.3690  0.9656
 6445TIP3   OH240969   4.378   5.795   7.356  0.1293  0.0140 -0.1055
 6445TIP3    H140970   4.421   5.760   7.434  0.7759 -1.8305 -1.2412
 6445TIP3    H240971   4.429   5.874   7.334  0.3682  0.1495  0.9325
 6446TIP3   OH240972   2.395   5.950   7.238 -0.2173 -0.0203  0.3095
 6446TIP3    H140973   2.337   5.996   7.177 -0.1488 -0.4760 -0.1069
 6446TIP3    H240974   2.336   5.897   7.291 -0.0919 -1.5452 -1.0278
 6447TIP3   OH240975   3.261   5.978   1.358  0.1064 -0.1705  0.7418
 6447TIP3    H140976   3.171   6.008   1.341 -0.1143 -0.8436  0.6970
 6447TIP3    H240977   3.316   6.039   1.311 -0.4416 -1.3880 -1.5610
 6448TIP3   OH240978   3.006   6.061   1.316  0.5192  0.5171  0.2198
 6448TIP3    H140979   2.990   6.108   1.234  0.1486  0.1443  0.0817
 6448TIP3    H240980   3.018   6.130   1.382  1.2495  0.8251 -0.2257
 6449TIP3   OH240981   3.378   5.927   1.639 -0.2378  0.2060 -0.7481
 6449TIP3    H140982   3.341   5.929   1.550 -0.1481  0.9059 -0.7700
 6449TIP3    H240983   3.328   5.993   1.687  0.3384  0.4742 -0.5177
 6450TIP3   OH240984   3.272   5.113   0.918  0.2166 -0.0125 -0.4880
 6450TIP3    H140985   3.293   5.101   0.825  3.2432 -0.6463  0.2051
 6450TIP3    H240986   3.230   5.031   0.944 -3.3440  1.2780 -1.9311
 6451TIP3   OH240987   0.669   6.972   1.315  0.0074 -0.4437  0.0105
 6451TIP3    H140988   0.631   7.016   1.391  0.0886 -0.6491  0.1701
 6451TIP3    H240989   0.718   6.899   1.352 -0.2817 -0.7770 -0.2726
 6452TIP3   OH240990   1.585   6.551   1.713  0.2588  0.3942 -0.1356
 6452TIP3    H140991   1.627   6.594   1.639  1.5426  0.9527  0.8862
 6452TIP3    H240992   1.569   6.622   1.776 -1.4127  0.0379 -0.1431
 6453TIP3   OH240993   5.398   6.189   0.828 -0.1383  0.5370 -0.2614
 6453TIP3    H140994   5.440   6.109   0.859 -0.4783  1.2312  2.0971
 6453TIP3    H240995   5.402   6.183   0.732  3.0529 -0.5886 -0.1152
 6454TIP3   OH240996   2.079   4.399   8.411 -0.2781 -0.0953 -0.6484
 6454TIP3    H140997   2.051   4.457   8.340 -0.3899 -0.1950 -0.6848
 6454TIP3    H240998   2.042   4.437   8.490 -0.9278 -0.4925 -0.7587
 6455TIP3   OH240999   3.428   6.250   2.528 -0.1471 -0.1040  0.1759
 6455TIP3    H141000   3.458   6.173   2.480  1.0667  0.8038 -0.5727
 6455TIP3    H241001   3.350   6.280   2.481 -0.4176 -0.6626  0.2674
 6456TIP3   OH241002   4.797   6.118   8.477  0.3124 -0.2754 -0.1608
 6456TIP3    H141003   4.859   6.188   8.456 -0.4432  0.9004  1.4243
 6456TIP3    H241004   4.844   6.038   8.455  1.8464  0.6486 -0.3650
 6457TIP3   OH241005   3.866   5.121   1.803  0.2749  0.8849  0.5147
 6457TIP3    H141006   3.933   5.179   1.766  0.0327 -0.0055 -1.3516
 6457TIP3    H241007   3.909   5.036   1.810  0.0885  0.8709  1.6280
 6458TIP3   OH241008   1.979   5.569   0.053  0.2229  0.0847 -0.2225
 6458TIP3    H141009   1.939   5.645   0.094  0.1505  0.4705 -0.9893
 6458TIP3    H241010   2.051   5.605   0.001  0.3300 -0.3887 -0.4053
 6459TIP3   OH241011   0.526   0.202   0.940  0.1873  0.1185 -0.1042
 6459TIP3    H141012   0.435   0.214   0.965 -0.3677 -0.0833 -1.9853
 6459TIP3    H241013   0.523   0.160   0.854  2.0522 -0.4788  0.0911
 6460TIP3   OH241014   1.254   5.717   8.012 -0.6830  0.4410 -0.2494
 6460TIP3    H141015   1.190   5.658   7.971 -0.5637 -0.4214  0.7812
 6460TIP3    H241016   1.237   5.802   7.972  0.0862 -0.5791 -2.8461
 6461TIP3   OH241017   1.748   6.111   1.517  1.0846 -0.2092 -0.4177
 6461TIP3    H141018   1.829   6.125   1.566 -0.1395  1.1599  1.2771
 6461TIP3    H241019   1.741   6.016   1.508  1.4270 -0.4779  1.9359
 6462TIP3   OH241020   3.311   0.596   1.394  0.1541  0.2207 -0.4231
 6462TIP3    H141021   3.320   0.590   1.489 -1.0163  1.4353 -0.2147
 6462TIP3    H241022   3.400   0.585   1.361  0.5655 -0.2752  0.8142
 6463TIP3   OH241023   1.089   6.977   1.437  0.6812  0.4972 -0.2784
 6463TIP3    H141024   1.120   7.049   1.382 -0.6385  1.8377  0.6991
 6463TIP3    H241025   1.004   7.006   1.470  0.0733 -1.5577  0.0566
 6464TIP3   OH241026   2.828   5.890   1.092 -0.8442 -0.2530 -0.3370
 6464TIP3    H141027   2.881   5.929   1.022  0.8168 -0.7309  0.6390
 6464TIP3    H241028   2.809   5.963   1.151 -0.0589 -0.3674  0.0581
 6465TIP3   OH241029   4.051   0.238   1.763  0.0145 -0.3153  0.2314
 6465TIP3    H141030   4.083   0.270   1.847 -0.0513  2.9365 -0.8878
 6465TIP3    H241031   4.110   0.167   1.740  2.1440  1.0099  1.4564
 6466TIP3   OH241032   3.915   5.373   8.398  0.3436 -0.3529  0.0733
 6466TIP3    H141033   3.943   5.308   8.463 -1.1351 -1.2105 -0.0961
 6466TIP3    H241034   3.912   5.324   8.315  0.7103  0.3354 -0.3510
 6467TIP3   OH241035   3.680   6.769   1.663  0.0024 -0.1933 -0.3510
 6467TIP3    H141036   3.613   6.770   1.595  1.0304 -0.2990 -1.3777
 6467TIP3    H241037   3.725   6.853   1.652  0.7144 -0.5771 -0.3499
 6468TIP3   OH241038   3.128   0.672   7.579  0.3382 -0.4907 -0.6751
 6468TIP3    H141039   3.110   0.599   7.638  0.1642 -2.0413 -2.5866
 6468TIP3    H241040   3.042   0.698   7.546  0.6167 -1.0186 -1.8331
 6469TIP3   OH241041   1.959   6.559   0.225 -0.0373 -0.3754 -0.0640
 6469TIP3    H141042   1.890   6.614   0.264  0.4234  0.8512 -0.9577
 6469TIP3    H241043   1.959   6.583   0.132  4.0853  2.3969  0.5276
 6470TIP3   OH241044   3.843   1.149   0.973 -0.1122  0.3484  0.3237
 6470TIP3    H141045   3.936   1.162   0.995 -0.2836 -0.2457  1.4547
 6470TIP3    H241046   3.812   1.235   0.946  1.0819  0.3028 -1.2918
 6471TIP3   OH241047   3.164   6.946   7.650  0.2854 -0.2961  0.3432
 6471TIP3    H141048   3.184   6.853   7.647  1.9567  0.0782 -0.8697
 6471TIP3    H241049   3.109   6.962   7.573 -1.1051 -0.4936  1.2635
 6472TIP3   OH241050   4.413   6.117   0.615 -0.3297 -0.0153 -0.2414
 6472TIP3    H141051   4.438   6.209   0.616  2.3767 -0.6822 -1.2653
 6472TIP3    H241052   4.477   6.074   0.671 -0.8588 -1.4312 -0.7020
 6473TIP3   OH241053   1.763   5.865   2.371  0.4966  0.6947 -0.1116
 6473TIP3    H141054   1.738   5.938   2.427 -1.7504  2.2919 -3.0454
 6473TIP3    H241055   1.680   5.827   2.343  1.5436 -0.1774 -2.1630
 6474TIP3   OH241056   3.432   0.865   0.537  0.3446  0.2774 -0.0932
 6474TIP3    H141057   3.472   0.910   0.612  1.8973 -0.8198 -0.2314
 6474TIP3    H241058   3.491   0.882   0.464  0.9507 -1.8632 -0.1650
 6475TIP3   OH241059   3.053   6.834   1.153  0.1635 -0.2163 -0.2377
 6475TIP3    H141060   3.089   6.760   1.201 -0.7016 -0.7834 -0.4472
 6475TIP3    H241061   2.960   6.836   1.177  0.1643  0.7700 -0.2717
 6476TIP3   OH241062   1.977   4.954   7.064  0.3109 -0.5018  0.3714
 6476TIP3    H141063   1.977   5.006   6.984  2.0002  0.2864  0.8727
 6476TIP3    H241064   1.941   5.011   7.131  0.9658 -0.4091  0.6474
 6477TIP3   OH241065   0.693   5.899   2.053  0.0124  0.1142 -0.3872
 6477TIP3    H141066   0.600   5.890   2.072  0.6199 -0.4287  2.5740
 6477TIP3    H241067   0.726   5.957   2.122  2.2284 -1.3156 -0.1781
 6478TIP3   OH241068   3.121   3.906   0.617  0.2357 -0.4587 -0.1733
 6478TIP3    H141069   3.144   3.972   0.683  0.3339  0.5684 -1.2178
 6478TIP3    H241070   3.172   3.930   0.540 -0.1694 -1.4222 -0.7525
 6479TIP3   OH241071   4.132   3.669   1.043  0.4178 -0.1503  0.3565
 6479TIP3    H141072   4.161   3.701   0.957 -0.8730 -0.2558 -0.1291
 6479TIP3    H241073   4.067   3.602   1.023 -0.3390  0.2486  1.4268
 6480TIP3   OH241074   7.051   0.219   1.287  0.7616 -0.3702  0.3684
 6480TIP3    H141075   7.080   0.138   1.329  1.8346  0.2098  0.7608
 6480TIP3    H241076   7.011   0.190   1.205 -1.3889 -1.5179  1.7736
 6481TIP3   OH241077   3.379   0.924   0.004 -0.1854 -0.0390 -0.3087
 6481TIP3    H141078   3.454   0.918   0.063 -0.8804  0.3714  0.6196
 6481TIP3    H241079   3.397   0.858  -0.064  1.3683  0.5682 -0.5040
 6482TIP3   OH241080   1.167   4.741   1.186 -0.1555 -0.1696  0.0737
 6482TIP3    H141081   1.074   4.715   1.190 -0.4671  0.8075 -0.6353
 6482TIP3    H241082   1.188   4.740   1.093  0.0031  1.5046  0.0909
 6483TIP3   OH241083   2.853   5.016   8.475  0.0779 -0.0950 -0.2043
 6483TIP3    H141084   2.840   5.054   8.389 -0.5822 -0.2957 -0.1952
 6483TIP3    H241085   2.946   4.991   8.477 -0.6222 -3.1713 -2.1218
 6484TIP3   OH241086   0.379   4.741   1.569 -0.0082 -0.1669 -0.4561
 6484TIP3    H141087   0.426   4.676   1.621  1.2668  0.5714 -0.6482
 6484TIP3    H241088   0.419   4.825   1.595  0.0200  0.2953 -1.9488
 6485TIP3   OH241089   4.327   0.480   7.624 -0.1551 -0.1144  0.0832
 6485TIP3    H141090   4.311   0.554   7.564 -2.7570 -0.2858  0.4831
 6485TIP3    H241091   4.407   0.439   7.592 -1.5219 -0.2426 -3.3493
 6486TIP3   OH241092   1.974   7.082   1.122 -0.2497 -0.6510  0.0825
 6486TIP3    H141093   1.983   7.100   1.216 -1.0906 -0.9184  0.2161
 6486TIP3    H241094   1.942   6.991   1.119 -1.3741 -0.2422 -0.4280
 6487TIP3   OH241095   3.175   5.100   8.342  0.0485 -0.4446  0.0081
 6487TIP3    H141096   3.080   5.103   8.327 -0.1972  1.1513  1.6618
 6487TIP3    H241097   3.211   5.161   8.279 -0.1253 -0.2312  0.1157
 6488TIP3   OH241098   0.164   6.139   1.245 -0.0162 -0.2520  0.5286
 6488TIP3    H141099   0.237   6.196   1.270  0.2132 -0.3478  0.1016
 6488TIP3    H241100   0.206   6.056   1.221 -0.0752  0.2624 -1.4848
 6489TIP3   OH241101   3.880   6.512   1.023 -0.2322 -0.0394  0.7217
 6489TIP3    H141102   3.826   6.552   1.091  0.2728  0.8907  0.5787
 6489TIP3    H241103   3.941   6.456   1.071  0.3713  0.9023  1.0840
 6490TIP3   OH241104   2.299   4.875   0.050  0.3177  0.5871  0.7700
 6490TIP3    H141105   2.302   4.964   0.015  0.8144  0.2601 -0.0364
 6490TIP3    H241106   2.391   4.849   0.059  0.1929  0.4930  1.8896
 6491TIP3   OH241107   3.593   7.116   0.721 -0.2854  0.4293 -0.1042
 6491TIP3    H141108   3.655   7.072   0.663  0.4338  2.0639 -0.6019
 6491TIP3    H241109   3.640   7.122   0.804  0.0068  1.1726 -0.3246
 6492TIP3   OH241110   3.814   6.243   0.034 -0.2345 -0.1554  0.2044
 6492TIP3    H141111   3.746   6.285  -0.019 -1.7279 -1.7394  0.8191
 6492TIP3    H241112   3.877   6.209  -0.029 -0.9337 -0.2336 -0.4595
 6493TIP3   OH241113   3.886   6.161   7.033 -0.2159 -0.3901 -0.1170
 6493TIP3    H141114   3.875   6.247   6.991  1.8586 -0.8148 -1.6323
 6493TIP3    H241115   3.826   6.103   6.985  0.1596 -0.2924 -0.7122
 6494TIP3   OH241116   2.157   5.557   1.907  0.4414 -0.1845  0.1268
 6494TIP3    H141117   2.196   5.554   1.819 -0.5066 -0.7958 -0.2824
 6494TIP3    H241118   2.113   5.472   1.917 -2.6512  1.2829 -0.3172
 6495TIP3   OH241119   1.134   4.929   0.290 -0.2381 -0.6781 -0.2752
 6495TIP3    H141120   1.081   4.990   0.341  1.1630 -0.3762  0.8708
 6495TIP3    H241121   1.079   4.851   0.279 -0.2559 -1.0959  2.4833
 6496TIP3   OH241122   2.533   0.860   0.412  0.2601  0.4533  0.1721
 6496TIP3    H141123   2.609   0.919   0.410  0.0378  0.7153 -0.8452
 6496TIP3    H241124   2.507   0.857   0.504  2.2205 -0.5521  0.7249
 6497TIP3   OH241125   4.146   0.014   0.511  0.1627  0.0524 -0.3393
 6497TIP3    H141126   4.158   0.062   0.429 -1.0748 -0.1370 -0.6375
 6497TIP3    H241127   4.051   0.010   0.523  0.3434  1.6355  2.0110
 6498TIP3   OH241128   2.652   0.936   8.204 -0.3624  0.3851  0.0412
 6498TIP3    H141129   2.722   0.876   8.230 -1.3544 -1.3503 -1.1007
 6498TIP3    H241130   2.574   0.902   8.248 -0.9197  0.8895 -0.5445
 6499TIP3   OH241131   3.408   7.115   2.050  0.0401 -0.2767  0.3490
 6499TIP3    H141132   3.413   7.043   2.114  0.5752  0.3828  1.0570
 6499TIP3    H241133   3.360   7.184   2.096  2.6648  1.1768  0.9883
 6500TIP3   OH241134   4.365   6.734   0.074 -0.4191 -0.7337  0.6329
 6500TIP3    H141135   4.426   6.678   0.123 -0.4259 -1.5376 -0.2549
 6500TIP3    H241136   4.304   6.766   0.140  0.1672 -0.9927  1.3161
 6501TIP3   OH241137   1.967   5.696   2.009  0.2112 -0.2894  0.3827
 6501TIP3    H141138   1.980   5.690   2.104 -0.1023  0.6612  0.4916
 6501TIP3    H241139   2.038   5.644   1.972 -0.6618 -2.1120  1.1789
 6502TIP3   OH241140   3.127   1.979   0.939  0.0171 -0.0541  0.2780
 6502TIP3    H141141   3.191   1.990   0.869  2.1679  0.0884  2.2246
 6502TIP3    H241142   3.126   2.063   0.984 -1.5500 -0.0608  0.2970
 6503TIP3   OH241143   3.856   7.048   1.525 -0.5347  0.6382  0.2233
 6503TIP3    H141144   3.895   7.127   1.562 -0.6471  0.0119  1.7268
 6503TIP3    H241145   3.763   7.068   1.519 -0.2835  1.3681 -1.3690
 6504TIP3   OH241146   3.233   6.122   1.770 -0.2667  0.0007 -0.1091
 6504TIP3    H141147   3.225   6.210   1.807 -0.8351 -0.4054  0.7495
 6504TIP3    H241148   3.143   6.091   1.764  0.0552 -1.4326  1.8396
 6505TIP3   OH241149   1.632   6.598   1.214  0.3736 -0.6295 -0.3362
 6505TIP3    H141150   1.613   6.529   1.277  0.0716 -1.1763 -1.0074
 6505TIP3    H241151   1.564   6.588   1.147  0.0113  0.6591 -0.1751
 6506TIP3   OH241152   3.926   6.290   0.291 -0.5136  0.1783  0.1720
 6506TIP3    H141153   3.891   6.271   0.204 -0.6990 -1.8802  0.6686
 6506TIP3    H241154   4.009   6.241   0.294 -0.3279  0.5401  1.0104
 6507TIP3   OH241155   1.960   5.584   0.855 -0.0176  0.1871  0.0278
 6507TIP3    H141156   2.011   5.659   0.825 -0.0968  0.7232  1.1727
 6507TIP3    H241157   2.017   5.539   0.917  0.8647 -1.9930 -2.2874
 6508TIP3   OH241158   0.555   6.049   6.609 -0.5887 -0.2980 -0.2182
 6508TIP3    H141159   0.491   6.067   6.678 -0.0831  1.2087 -0.1260
 6508TIP3    H241160   0.530   6.106   6.537 -1.1135 -1.8723 -1.3106
 6509TIP3   OH241161   3.442   6.690   1.815  0.6403 -0.0873 -0.1590
 6509TIP3    H141162   3.505   6.632   1.771  2.6185  2.2854 -0.5072
 6509TIP3    H241163   3.481   6.708   1.900  0.9805  2.3011 -0.8089
 6510TIP3   OH241164   3.045   0.537   7.805 -0.4327 -0.1267 -0.4339
 6510TIP3    H141165   3.066   0.491   7.887 -0.5149 -0.4917 -0.6163
 6510TIP3    H241166   2.968   0.590   7.826 -1.6040 -1.6347 -0.7576
 6511TIP3   OH241167   1.095   0.001   1.732 -0.0135  0.3837  0.5400
 6511TIP3    H141168   1.049   0.069   1.781 -3.3088 -1.5800  0.3122
 6511TIP3    H241169   1.042  -0.013   1.653  0.7872 -2.1742  0.3896
 6512TIP3   OH241170   0.908   6.236   1.861  0.0029 -0.1013  0.0529
 6512TIP3    H141171   0.948   6.149   1.868 -3.4106 -1.7787 -0.2150
 6512TIP3    H241172   0.894   6.263   1.952  0.1488 -0.2624  0.1242
 6513TIP3   OH241173   1.925   0.663   8.371 -0.0506 -0.1970 -0.0514
 6513TIP3    H141174   2.011   0.687   8.337 -0.1792  0.5759  0.1625
 6513TIP3    H241175   1.925   0.695   8.462  0.0321 -1.6202  0.4669
 6514TIP3   OH241176   2.621   0.567   1.295 -0.4128  0.0728 -0.3027
 6514TIP3    H141177   2.670   0.538   1.372 -0.3189 -1.4797 -0.9300
 6514TIP3    H241178   2.535   0.593   1.329 -1.3488 -3.2435 -0.0011
 6515TIP3   OH241179   3.195   5.364   2.250  0.2392 -0.1659 -0.6228
 6515TIP3    H141180   3.135   5.323   2.189  1.2634 -0.8818 -1.1691
 6515TIP3    H241181   3.184   5.315   2.332 -0.5911  0.3057 -0.4584
 6516TIP3   OH241182   3.756   3.745   2.312  0.1696  0.1663 -0.3029
 6516TIP3    H141183   3.721   3.795   2.385  2.1139  0.1447  0.6857
 6516TIP3    H241184   3.793   3.666   2.352  2.2292  0.6710 -1.1513
 6517TIP3   OH241185   1.683   6.274   1.037  0.0475  0.1676  0.2855
 6517TIP3    H141186   1.599   6.271   1.084  0.5627  1.9825  1.4024
 6517TIP3    H241187   1.742   6.219   1.090 -0.1412 -0.1922  0.1228
 6518TIP3   OH241188   1.431   5.995   2.011  0.3623  0.8737  0.3626
 6518TIP3    H141189   1.462   6.071   2.060  1.0218 -0.1656  1.6114
 6518TIP3    H241190   1.419   5.927   2.077 -1.5804  0.2931 -0.5416
 6519TIP3   OH241191   2.373   6.149   2.328  0.3580 -0.1905  0.2262
 6519TIP3    H141192   2.294   6.097   2.341  0.3335  0.0161  0.9258
 6519TIP3    H241193   2.350   6.211   2.258 -0.5543  0.7930  1.3870
 6520TIP3   OH241194   2.101   4.905   0.979 -0.2810 -0.3953 -0.1663
 6520TIP3    H141195   2.137   4.878   1.063 -1.3821  1.7337  1.0284
 6520TIP3    H241196   2.177   4.932   0.928  0.1725  0.7137  1.0762
 6521TIP3   OH241197   3.057   4.849   6.985 -0.3312  0.1995  0.4976
 6521TIP3    H141198   3.112   4.782   6.945 -1.0969 -0.1504  0.0394
 6521TIP3    H241199   3.110   4.929   6.980 -0.1922  0.0384 -0.6860
 6522TIP3   OH241200   1.687   6.164   1.931 -0.5389 -0.2008 -0.5336
 6522TIP3    H141201   1.625   6.156   2.003  0.3363  0.6595  0.3128
 6522TIP3    H241202   1.751   6.095   1.947  0.3191  0.7524  0.1721
 6523TIP3   OH241203   3.492   5.856   1.124 -0.5410 -0.3716 -0.5268
 6523TIP3    H141204   3.470   5.824   1.212  0.0817 -1.5427 -0.7867
 6523TIP3    H241205   3.565   5.915   1.138 -0.4887 -0.5007 -0.2437
 6524TIP3   OH241206   2.659   0.597   6.583 -0.0867  0.3520 -0.2516
 6524TIP3    H141207   2.710   0.616   6.662  1.6349  0.6885 -1.3974
 6524TIP3    H241208   2.614   0.679   6.563 -3.6514 -0.7947  2.5031
 6525TIP3   OH241209   4.070   5.756   0.715 -0.2708 -0.1895  0.2361
 6525TIP3    H141210   4.042   5.822   0.778  0.9897  0.9491 -0.3753
 6525TIP3    H241211   4.075   5.803   0.632 -0.1792 -1.2516 -0.3680
 6526TIP3   OH241212   4.595   4.903   1.499 -0.2257 -0.1291  0.0304
 6526TIP3    H141213   4.643   4.823   1.477 -1.0080 -0.5316 -0.2529
 6526TIP3    H241214   4.603   4.911   1.594  0.8144  0.0789 -0.0702
 6527TIP3   OH241215   1.628   7.052   1.721  0.1395 -0.1926  0.0047
 6527TIP3    H141216   1.707   7.034   1.772 -0.0105  0.7600  0.5750
 6527TIP3    H241217   1.569   7.096   1.782  0.0692  1.2436 -1.0808
 6528TIP3   OH241218   4.616   0.403   7.573 -0.2010  0.3915 -0.4938
 6528TIP3    H141219   4.565   0.331   7.533  1.2904 -0.7227 -0.4278
 6528TIP3    H241220   4.697   0.361   7.602 -0.0451  1.7772  1.1198
 6529TIP3   OH241221   4.181   6.033   0.767 -0.0469  0.1715 -0.1128
 6529TIP3    H141222   4.124   6.109   0.760  1.7218  1.5062 -0.2557
 6529TIP3    H241223   4.262   6.059   0.725  1.5677 -0.8077  2.2587
 6530TIP3   OH241224   4.562   6.175   2.187  0.2934  0.1571  0.1254
 6530TIP3    H141225   4.636   6.118   2.210  0.0936 -0.0672  0.2205
 6530TIP3    H241226   4.596   6.235   2.121  0.1190 -0.9805 -1.0098
 6531TIP3   OH241227   0.884   1.334   1.806  0.4662 -0.7088 -0.1241
 6531TIP3    H141228   0.898   1.423   1.837  0.5295 -0.4886 -0.7868
 6531TIP3    H241229   0.805   1.305   1.852  2.2490 -1.4934  2.6129
 6532TIP3   OH241230   3.567   3.541   2.127  0.1263  0.2557 -0.0035
 6532TIP3    H141231   3.646   3.579   2.088  0.5966  0.0724  0.7599
 6532TIP3    H241232   3.559   3.585   2.212  0.0722 -0.5826  0.4229
 6533TIP3   OH241233   2.850   6.159   0.724 -0.3048 -0.2969 -0.1170
 6533TIP3    H141234   2.792   6.152   0.800 -0.8873 -1.3269 -0.6260
 6533TIP3    H241235   2.924   6.102   0.745  0.2748  0.6261  0.3245
 6534TIP3   OH241236   2.358   6.432   0.120  0.3968 -0.1230 -0.4328
 6534TIP3    H141237   2.304   6.392   0.051  0.1580  0.2792 -0.4762
 6534TIP3    H241238   2.420   6.488   0.073 -1.1184  1.7904 -0.2105
 6535TIP3   OH241239   4.482   5.115   7.239  0.1551  0.3185  0.0283
 6535TIP3    H141240   4.570   5.080   7.257 -0.1485 -1.6388 -2.0794
 6535TIP3    H241241   4.481   5.200   7.283  2.8730  0.0696  0.6824
 6536TIP3   OH241242   5.129   5.528   2.096 -0.8344 -0.4904  0.3100
 6536TIP3    H141243   5.180   5.578   2.160 -0.6284  0.6302 -0.7176
 6536TIP3    H241244   5.041   5.527   2.132 -0.6425 -0.2006  0.8051
 6537TIP3   OH241245   2.404   4.929   1.530 -0.4928 -0.9071 -0.4392
 6537TIP3    H141246   2.344   4.887   1.469 -2.3677  1.0659 -0.0129
 6537TIP3    H241247   2.427   5.012   1.488  0.4558 -0.7986  0.2707
 6538TIP3   OH241248   1.263   0.039   8.242 -0.6359  0.6610 -0.2914
 6538TIP3    H141249   1.274   0.071   8.332 -1.5027 -2.2355  0.9172
 6538TIP3    H241250   1.351   0.012   8.215  0.2936  4.7468 -1.6912
 6539TIP3   OH241251   4.014   4.390   2.063  0.1573 -0.6274 -0.0222
 6539TIP3    H141252   4.067   4.392   1.982  0.4086 -1.1024  0.1281
 6539TIP3    H241253   4.013   4.481   2.093  0.4163 -0.5192 -0.3368
 6540TIP3   OH241254   2.140   6.949   0.524 -0.2785  0.4799 -0.2455
 6540TIP3    H141255   2.161   7.039   0.500  1.3688  0.6227  1.5943
 6540TIP3    H241256   2.225   6.904   0.524 -0.7307 -0.4205  1.4739
 6541TIP3   OH241257   2.883   5.061   0.540  0.0788  0.0291 -0.5382
 6541TIP3    H141258   2.799   5.041   0.581  0.3918 -0.4931 -0.1388
 6541TIP3    H241259   2.864   5.133   0.480 -0.4324  0.6806  0.3904
 6542TIP3   OH241260   2.239   5.899   2.054  0.3296 -0.4563  0.0605
 6542TIP3    H141261   2.305   5.840   2.090  1.4178  2.1075  2.4199
 6542TIP3    H241262   2.208   5.854   1.975 -0.3024 -5.1196  2.7294
 6543TIP3   OH241263   4.161   5.229   8.498 -0.4512 -0.1540  0.5351
 6543TIP3    H141264   4.176   5.247   8.405  0.5550 -0.8120  0.5726
 6543TIP3    H241265   4.228   5.166   8.522 -1.0358 -0.3906  1.5869
 6544TIP3   OH241266   1.409   6.534   0.875 -0.1356 -0.6070  0.7101
 6544TIP3    H141267   1.489   6.575   0.841 -0.5157 -0.0962  0.4222
 6544TIP3    H241268   1.376   6.483   0.801 -0.0265 -0.8878  0.8567
 6545TIP3   OH241269   3.751   6.570   7.167 -0.3140  0.2184  0.3040
 6545TIP3    H141270   3.675   6.580   7.224  1.9232  3.8593  2.8981
 6545TIP3    H241271   3.719   6.596   7.080 -2.7849 -1.4610  0.6723
 6546TIP3   OH241272   2.506   4.933   6.885 -0.1534  0.4688 -0.4772
 6546TIP3    H141273   2.519   5.026   6.865 -0.8347  0.9713  1.3335
 6546TIP3    H241274   2.582   4.910   6.939 -0.2108  0.0897 -0.5575
 6547TIP3   OH241275   2.883   1.667   0.688 -0.0665  0.3023 -0.0830
 6547TIP3    H141276   2.862   1.744   0.741  0.2386 -0.4615  1.1421
 6547TIP3    H241277   2.978   1.659   0.693 -0.1205 -0.2928 -0.0313
 6548TIP3   OH241278   1.782   5.255   7.843  0.1006  0.0725 -0.0467
 6548TIP3    H141279   1.738   5.182   7.800  0.5922  0.6742 -1.5984
 6548TIP3    H241280   1.761   5.331   7.789 -0.6088  1.1357  1.6887
 6549TIP3   OH241281   3.530   4.355   1.422 -0.8253  0.1154  0.4378
 6549TIP3    H141282   3.555   4.442   1.390 -1.9746 -0.2539 -1.5818
 6549TIP3    H241283   3.579   4.294   1.366 -0.3491 -0.5513  1.5642
 6550TIP3   OH241284   5.076   0.624   7.982 -0.0707  0.1905 -0.0975
 6550TIP3    H141285   5.155   0.584   7.945  0.4598 -0.3094  1.5294
 6550TIP3    H241286   5.109   0.683   8.049 -0.9692  1.8471 -1.0878
 6551TIP3   OH241287   3.413   7.308   8.229  0.0556 -0.2056  0.0461
 6551TIP3    H141288   3.505   7.297   8.204  0.5002  1.2666  0.9897
 6551TIP3    H241289   3.364   7.282   8.151  1.3173  0.3779 -0.9629
 6552TIP3   OH241290   2.574   0.200   2.059  0.3093 -0.6638 -0.5395
 6552TIP3    H141291   2.529   0.125   2.099  0.1545 -1.5816 -2.3524
 6552TIP3    H241292   2.503   0.258   2.031  0.4401  0.3855  1.2246
 6553TIP3   OH241293   5.217   6.558   2.315 -0.4908  0.6053  0.4205
 6553TIP3    H141294   5.155   6.497   2.355  0.2870  1.1548  2.5394
 6553TIP3    H241295   5.300   6.511   2.313  0.2417  1.7547  2.5870
 6554TIP3   OH241296   3.997   5.821   1.258 -0.0658  0.1174  0.2868
 6554TIP3    H141297   3.931   5.880   1.294 -0.8115 -0.7058  0.2899
 6554TIP3    H241298   3.980   5.737   1.300  1.2805  0.0062  0.6293
 6555TIP3   OH241299   2.470   5.706   0.931  0.8277  0.2547 -0.3002
 6555TIP3    H141300   2.509   5.700   1.018  2.6672 -0.7818 -1.1512
 6555TIP3    H241301   2.392   5.651   0.935  1.3087 -0.3779  0.4926
 6556TIP3   OH241302   2.692   4.761   1.534  0.3213 -0.0172  0.4547
 6556TIP3    H141303   2.645   4.800   1.459 -0.5646 -0.3216  0.8419
 6556TIP3    H241304   2.712   4.672   1.506 -0.4445 -0.2923  0.7498
 6557TIP3   OH241305   1.455   6.250   1.177 -0.1560 -0.1417  0.0387
 6557TIP3    H141306   1.456   6.165   1.133  0.1638  0.2124 -0.6391
 6557TIP3    H241307   1.380   6.245   1.236  0.1688 -1.0911  0.3863
 6558TIP3   OH241308   3.043   5.290   2.048  0.2223 -0.3264  0.1276
 6558TIP3    H141309   3.028   5.376   2.086  0.0205 -0.6144  0.7002
 6558TIP3    H241310   2.961   5.267   2.004  1.0039  0.7513 -1.9761
 6559TIP3   OH241311   3.120   5.748   8.301 -0.2172 -0.0704  0.2590
 6559TIP3    H141312   3.189   5.722   8.362 -0.1553 -1.4950 -0.3959
 6559TIP3    H241313   3.153   5.828   8.260  1.9566 -1.7803 -1.4726
 6560TIP3   OH241314   4.502   5.672   0.784 -0.4023 -0.6498  0.1368
 6560TIP3    H141315   4.560   5.740   0.749  1.5860 -1.6743  1.3957
 6560TIP3    H241316   4.535   5.655   0.872 -2.5080 -1.4110  0.8077
 6561TIP3   OH241317   3.476   5.159   0.354  0.4878  0.2908 -0.7367
 6561TIP3    H141318   3.501   5.235   0.406  1.4075 -1.3264  1.2600
 6561TIP3    H241319   3.559   5.115   0.335 -0.0954 -0.6506 -1.1447
 6562TIP3   OH241320   0.926   0.144   0.889 -0.3755  0.3844  0.6029
 6562TIP3    H141321   0.857   0.160   0.952  0.4058  2.0780  1.0561
 6562TIP3    H241322   0.967   0.062   0.919 -0.4844  0.7781  1.8763
 6563TIP3   OH241323   2.700   5.785   0.392 -0.2188  0.6119  0.0664
 6563TIP3    H141324   2.747   5.815   0.314  2.4203 -1.3907  0.8203
 6563TIP3    H241325   2.706   5.859   0.453  0.1639  1.1317 -0.5861
 6564TIP3   OH241326   2.620   5.859   2.004  0.3643  0.1310  0.6434
 6564TIP3    H141327   2.554   5.791   2.018  0.0248  0.0964 -1.0371
 6564TIP3    H241328   2.642   5.889   2.092 -2.4489  0.6581  1.2130
 6565TIP3   OH241329   1.841   5.907   1.914  0.2057 -0.0279 -0.1703
 6565TIP3    H141330   1.920   5.957   1.933 -0.8471  1.6204 -0.0442
 6565TIP3    H241331   1.862   5.818   1.943  1.4545  0.7158  1.3283
 6566TIP3   OH241332   4.953   0.752   2.095 -0.1733 -0.4594 -0.0097
 6566TIP3    H141333   4.989   0.778   2.179 -2.1947 -0.4448  0.8804
 6566TIP3    H241334   4.871   0.707   2.117 -1.1194  0.2294 -1.9945
 6567TIP3   OH241335   4.513   6.484   7.543  0.4904  0.6419  0.0052
 6567TIP3    H141336   4.529   6.460   7.634  1.3449  0.0406 -0.2901
 6567TIP3    H241337   4.435   6.436   7.518  0.6597  0.2597  0.2149
 6568TIP3   OH241338   3.254   6.331   7.382  0.6542  0.4221  0.6232
 6568TIP3    H141339   3.335   6.283   7.366  0.1565 -0.3576  0.3821
 6568TIP3    H241340   3.267   6.415   7.339  0.7347 -0.2915 -0.7857
 6569TIP3   OH241341   5.452   6.919   0.632 -0.1773  0.2570  0.2192
 6569TIP3    H141342   5.450   6.973   0.553  2.0066  0.9497  0.5904
 6569TIP3    H241343   5.433   6.981   0.703  0.6502  0.2060  0.4874
 6570TIP3   OH241344   3.815   6.972   0.609 -0.5764 -0.5152 -0.1917
 6570TIP3    H141345   3.789   6.897   0.663  0.1070 -0.3892  0.3248
 6570TIP3    H241346   3.881   7.018   0.662  0.1484 -0.4184 -1.1627
 6571TIP3   OH241347   6.096   3.932   7.220  0.3667  0.0068 -0.2237
 6571TIP3    H141348   6.186   3.898   7.216  0.1386 -0.5071 -0.9034
 6571TIP3    H241349   6.089   3.989   7.144  0.4124  0.7803  0.3440
 6572TIP3   OH241350   2.681   1.076   7.507  0.2858 -0.0960  0.7550
 6572TIP3    H141351   2.595   1.036   7.518 -0.1817  0.7179  0.1661
 6572TIP3    H241352   2.705   1.109   7.594  0.8034 -1.8856  1.3019
 6573TIP3   OH241353   4.781   0.998   7.950  0.4790  0.3754  0.0956
 6573TIP3    H141354   4.834   1.039   8.019 -0.4869  0.9505  0.4964
 6573TIP3    H241355   4.703   0.967   7.995  0.6800 -0.8887 -0.4172
 6574TIP3   OH241356   5.793   4.887   0.917 -0.6325 -0.6560 -0.5414
 6574TIP3    H141357   5.774   4.826   0.846  1.5119 -1.3869 -0.5479
 6574TIP3    H241358   5.884   4.868   0.941 -0.4810  1.3643  0.6378
 6575TIP3   OH241359   5.066   5.529   1.792  0.5474  0.3619 -0.3883
 6575TIP3    H141360   5.149   5.542   1.837  0.3910 -1.0154  0.3379
 6575TIP3    H241361   5.019   5.465   1.846 -0.1446 -0.4090 -1.8668
 6576TIP3   OH241362   5.090   4.692   0.409  0.2438 -0.1369  0.4905
 6576TIP3    H141363   5.132   4.730   0.332 -0.1752 -0.6917 -0.0151
 6576TIP3    H241364   5.161   4.685   0.474  1.2412 -2.1880 -0.7480
 6577TIP3   OH241365   6.353   5.401   0.212  0.0632 -0.4233  0.8156
 6577TIP3    H141366   6.329   5.360   0.129 -0.5871  0.3007  0.6514
 6577TIP3    H241367   6.428   5.457   0.191 -1.8417  1.9294  0.1521
 6578TIP3   OH241368   4.956   2.053   1.781  0.4283 -0.1444  0.1622
 6578TIP3    H141369   4.992   2.040   1.693  1.7654  0.3926  0.6115
 6578TIP3    H241370   5.005   1.992   1.836  0.3594  0.2974  0.7132
 6579TIP3   OH241371   6.327   7.045   7.793 -0.0346 -0.3637  0.9557
 6579TIP3    H141372   6.302   7.138   7.787 -0.7597 -0.6843 -1.3422
 6579TIP3    H241373   6.353   7.034   7.884  0.5032  2.2158  1.1595
 6580TIP3   OH241374   4.251   4.340   8.492  0.0362 -0.6417 -0.0199
 6580TIP3    H141375   4.273   4.431   8.511 -0.1252 -0.7440  0.6414
 6580TIP3    H241376   4.321   4.310   8.433  0.1804 -0.1461 -0.0994
 6581TIP3   OH241377   4.130   6.983   1.735  0.8976 -0.4523  0.6350
 6581TIP3    H141378   4.183   7.014   1.809 -0.0895 -0.0654  1.1876
 6581TIP3    H241379   4.131   7.056   1.673  0.3317 -0.1201  1.0096
 6582TIP3   OH241380   4.289   0.882   0.538 -0.2710 -0.0571 -0.2727
 6582TIP3    H141381   4.364   0.859   0.483 -0.0800 -0.3979  0.1331
 6582TIP3    H241382   4.233   0.804   0.538  0.8769 -0.9309  1.9431
 6583TIP3   OH241383   5.002   6.887   1.014 -0.3644  0.9422  0.3473
 6583TIP3    H141384   4.926   6.856   0.965 -0.7270  0.8163  0.9907
 6583TIP3    H241385   5.074   6.884   0.951 -0.9836  1.4978 -0.3936
 6584TIP3   OH241386   6.650   4.530   0.964  0.3662  0.4469  0.1099
 6584TIP3    H141387   6.598   4.457   0.997 -0.4333  0.0572 -1.9130
 6584TIP3    H241388   6.701   4.560   1.039 -0.6083 -1.0618  1.3919
 6585TIP3   OH241389   5.862   4.741   1.217  0.1464 -0.3807  0.4927
 6585TIP3    H141390   5.800   4.684   1.171  0.3404 -1.0699  1.0811
 6585TIP3    H241391   5.946   4.695   1.212  0.2101 -0.3724  1.3560
 6586TIP3   OH241392   4.757   6.363   1.733 -0.7330 -0.4841 -0.0668
 6586TIP3    H141393   4.685   6.425   1.719 -0.7762  0.2399  2.9328
 6586TIP3    H241394   4.813   6.372   1.656 -0.9912  2.9363  0.0999
 6587TIP3   OH241395   1.897   6.744   0.009  0.4651  0.5991 -0.0328
 6587TIP3    H141396   1.826   6.680   0.010  0.6823  0.3740  1.7419
 6587TIP3    H241397   1.911   6.762  -0.084 -0.5127 -0.9150 -0.4932
 6588TIP3   OH241398   4.652   5.061   1.759 -0.4655  0.4582  0.5265
 6588TIP3    H141399   4.658   5.139   1.703  1.3248  0.5334  0.8130
 6588TIP3    H241400   4.740   5.049   1.793 -1.0423 -0.9140  1.5653
 6589TIP3   OH241401   7.340   6.403   0.515  0.6147  0.4781  0.7269
 6589TIP3    H141402   7.349   6.379   0.607  0.5546 -2.2004  0.0983
 6589TIP3    H241403   7.429   6.402   0.481  0.3755 -1.9258  0.0345
 6590TIP3   OH241404   5.722   4.384   0.287  0.1634  0.4083  0.0848
 6590TIP3    H141405   5.791   4.444   0.314  0.8693  0.1185 -1.0604
 6590TIP3    H241406   5.641   4.435   0.295  0.7087  1.3543 -0.4275
 6591TIP3   OH241407   5.397   6.994   1.517  0.1226 -0.4618  0.0590
 6591TIP3    H141408   5.344   7.068   1.488 -0.3783 -1.3651 -1.3920
 6591TIP3    H241409   5.412   7.010   1.610 -0.2128  1.3083 -0.1739
 6592TIP3   OH241410   6.209   7.311   7.784  0.4312 -0.3848 -0.1881
 6592TIP3    H141411   6.242   7.354   7.705 -0.9628 -0.4826 -0.8538
 6592TIP3    H241412   6.179   7.383   7.840 -0.3614 -0.4024 -0.5847
 6593TIP3   OH241413   4.475   5.735   0.477 -0.1653  0.0429 -0.2852
 6593TIP3    H141414   4.538   5.761   0.545  1.2542  1.5615 -2.1380
 6593TIP3    H241415   4.443   5.650   0.506  3.7207 -1.3731  0.0412
 6594TIP3   OH241416   5.233   0.275   0.903  0.2360 -1.0270  0.4045
 6594TIP3    H141417   5.196   0.324   0.830 -0.5076  0.1870  1.5833
 6594TIP3    H241418   5.325   0.262   0.879  1.2290  3.4325  1.2739
 6595TIP3   OH241419   3.860   5.725   7.750  0.5607  0.0508 -0.3977
 6595TIP3    H141420   3.886   5.738   7.658  0.2916 -0.3015 -0.5229
 6595TIP3    H241421   3.842   5.632   7.757 -2.0540  0.5017 -0.6725
 6596TIP3   OH241422   4.301   5.228   2.342  0.0857  0.0777 -0.5334
 6596TIP3    H141423   4.277   5.315   2.374 -0.7899  0.3352 -1.8428
 6596TIP3    H241424   4.396   5.225   2.351  0.0427  0.8599  0.2930
 6597TIP3   OH241425   6.024   6.627   1.958  0.1113 -0.0952  0.0510
 6597TIP3    H141426   6.057   6.710   1.993 -0.6386  0.4646 -0.5493
 6597TIP3    H241427   6.025   6.567   2.033  0.4812  0.5031  0.5311
 6598TIP3   OH241428   6.305   3.865   1.308 -0.1231 -0.5115 -0.0773
 6598TIP3    H141429   6.269   3.942   1.354  0.1611  0.1805 -0.9999
 6598TIP3    H241430   6.233   3.802   1.309 -0.6087  0.0313  0.0611
 6599TIP3   OH241431   4.512   6.017   0.856 -0.0019  0.2656 -0.1173
 6599TIP3    H141432   4.439   5.957   0.869 -0.1457  0.8286  1.7414
 6599TIP3    H241433   4.588   5.971   0.890  0.0555  0.7282  0.3884
 6600TIP3   OH241434   3.281   5.716   0.489 -0.1999 -0.2510 -0.0596
 6600TIP3    H141435   3.294   5.644   0.427  1.6506 -0.0422  0.0583
 6600TIP3    H241436   3.345   5.782   0.463 -0.1095  0.2781  1.4405
 6601TIP3   OH241437   4.578   6.471   0.880  0.1089 -0.2130 -0.0515
 6601TIP3    H141438   4.635   6.396   0.864 -2.5281 -1.6643 -3.0238
 6601TIP3    H241439   4.631   6.547   0.854  1.7068 -1.2681  0.0716
 6602TIP3   OH241440   4.960   0.137   1.411 -0.5638 -0.5781 -0.3975
 6602TIP3    H141441   4.976   0.131   1.317  0.4098 -1.7906 -0.1729
 6602TIP3    H241442   4.951   0.046   1.439  0.5830 -0.3044  0.9103
 6603TIP3   OH241443   3.053   0.360   0.894 -0.2852 -0.2507 -0.6369
 6603TIP3    H141444   3.046   0.272   0.929 -0.0490 -0.5769 -1.3984
 6603TIP3    H241445   3.144   0.368   0.865 -0.7557 -0.3800 -2.1899
 6604TIP3   OH241446   3.463   0.502   7.575 -0.2666  0.2988 -0.0452
 6604TIP3    H141447   3.542   0.535   7.619  0.0894  0.1218 -0.5521
 6604TIP3    H241448   3.401   0.484   7.647  0.0839  0.6195  0.3382
 6605TIP3   OH241449   3.033   5.647   1.902  0.1782  0.1784  0.5315
 6605TIP3    H141450   2.989   5.591   1.966  3.5320 -1.9860  1.0675
 6605TIP3    H241451   3.101   5.691   1.953  1.9813 -0.5248 -1.2151
 6606TIP3   OH241452   5.218   1.035   1.104 -0.1969 -0.3014 -0.3065
 6606TIP3    H141453   5.256   1.073   1.183  0.1837 -0.5671 -0.3591
 6606TIP3    H241454   5.228   1.103   1.038 -0.4445 -0.1080 -0.1450
 6607TIP3   OH241455   3.825   0.232   0.351 -0.2563  0.0676  0.0584
 6607TIP3    H141456   3.855   0.141   0.356  0.2396  0.2934  1.2190
 6607TIP3    H241457   3.735   0.229   0.385  0.0921  0.1630  1.0016
 6608TIP3   OH241458   5.023   5.149   0.153  0.4373  0.4686  0.1882
 6608TIP3    H141459   4.944   5.202   0.152  0.3302  0.3052 -0.1597
 6608TIP3    H241460   4.992   5.059   0.153  0.6195  0.4019  0.9831
 6609TIP3   OH241461   4.771   6.963   0.055  0.1666  0.3894  0.7990
 6609TIP3    H141462   4.801   7.048   0.088 -1.7100  1.1729  0.5692
 6609TIP3    H241463   4.683   6.953   0.091  0.3474 -1.4412  0.7733
 6610TIP3   OH241464   6.113   0.213   7.897 -0.1743 -0.2984 -0.2656
 6610TIP3    H141465   6.102   0.258   7.813  0.5774 -0.0534 -0.2351
 6610TIP3    H241466   6.070   0.271   7.960 -0.0615 -0.0983 -0.3702
 6611TIP3   OH241467   4.033   6.259   0.796 -0.3692  0.1254 -0.2102
 6611TIP3    H141468   4.044   6.242   0.889  0.5879 -2.4727 -0.7396
 6611TIP3    H241469   3.942   6.236   0.777  0.2509 -2.2777 -0.4469
 6612TIP3   OH241470   3.767   5.880   6.693 -0.0125  0.1935  0.1361
 6612TIP3    H141471   3.719   5.799   6.673 -0.7595  0.6550  0.0223
 6612TIP3    H241472   3.783   5.876   6.787 -0.0932 -0.0649  0.1390
 6613TIP3   OH241473   4.923   5.967   2.319 -0.2049  0.2142  0.2458
 6613TIP3    H141474   4.942   6.011   2.237  0.2316 -0.5369 -0.0611
 6613TIP3    H241475   5.001   5.984   2.374 -1.6223  2.9999  1.5002
 6614TIP3   OH241476   4.531   6.508   1.688 -0.2843 -0.2381  0.1492
 6614TIP3    H141477   4.483   6.573   1.740  0.5634  2.4637 -2.3059
 6614TIP3    H241478   4.463   6.451   1.653 -1.3270  0.8924  0.2813
 6615TIP3   OH241479   4.916   5.704   2.172 -0.8084  0.1916  0.1925
 6615TIP3    H141480   4.905   5.664   2.259  2.3664 -0.7631  0.2077
 6615TIP3    H241481   4.946   5.793   2.189 -0.9838  0.2767  0.0651
 6616TIP3   OH241482   3.566   0.172   0.433 -0.1584 -0.1373 -0.3253
 6616TIP3    H141483   3.483   0.219   0.431  0.1327  0.4770  1.3233
 6616TIP3    H241484   3.560   0.116   0.510  1.8528  1.6304  1.1805
 6617TIP3   OH241485   4.356   5.832   1.706  0.1220  0.1103  0.0020
 6617TIP3    H141486   4.414   5.897   1.666 -0.1539 -0.1833 -0.8839
 6617TIP3    H241487   4.376   5.751   1.660  0.0425 -0.3114  0.7053
 6618TIP3   OH241488   3.274   5.776   0.037 -0.1772 -0.3713 -0.5819
 6618TIP3    H141489   3.281   5.714   0.110 -0.0125 -0.2368 -0.4821
 6618TIP3    H241490   3.271   5.862   0.079  3.6759 -0.0274 -0.8604
 6619TIP3   OH241491   4.414   5.633   1.909  0.5577  0.0188  0.6040
 6619TIP3    H141492   4.396   5.540   1.898 -1.0621  0.4818 -1.0559
 6619TIP3    H241493   4.506   5.643   1.887  0.4887 -1.0601 -0.2070
 6620TIP3   OH241494   4.930   6.783   7.448  0.1525 -0.0646  0.5748
 6620TIP3    H141495   4.861   6.748   7.504  0.0359 -0.5949  0.1108
 6620TIP3    H241496   4.992   6.710   7.438 -0.9071 -0.6923 -1.7362
 6621TIP3   OH241497   5.586   4.945   0.657  0.1024 -0.2329 -0.3770
 6621TIP3    H141498   5.613   4.995   0.579 -2.8134  0.0606 -1.2623
 6621TIP3    H241499   5.579   5.011   0.726  2.6750 -0.4894  0.1779
 6622TIP3   OH241500   4.915   4.567   0.996 -0.2963 -0.2509 -0.0442
 6622TIP3    H141501   4.841   4.513   1.025  0.0383  1.1530  3.7356
 6622TIP3    H241502   4.877   4.628   0.932 -1.9452 -1.0318  0.1709
 6623TIP3   OH241503   4.123   7.030   8.256 -0.1857 -0.6167  0.0960
 6623TIP3    H141504   4.203   7.077   8.234 -1.0025  1.3341  1.1699
 6623TIP3    H241505   4.153   6.943   8.283  1.2415 -1.2151 -3.1887
 6624TIP3   OH241506   4.479   0.294   0.931  0.7503  0.4558  0.2310
 6624TIP3    H141507   4.553   0.265   0.878  0.0099 -0.7971 -0.1531
 6624TIP3    H241508   4.409   0.312   0.868 -0.0525 -0.8045  0.7356
 6625TIP3   OH241509   5.389   6.281   7.855  0.3868 -0.1237 -0.1802
 6625TIP3    H141510   5.429   6.352   7.805  0.1174 -0.1703 -0.4691
 6625TIP3    H241511   5.363   6.217   7.789  0.5912 -0.4711  0.0772
 6626TIP3   OH241512   4.981   6.789   0.065 -0.0807  0.3377  0.0923
 6626TIP3    H141513   4.992   6.763   0.156 -0.1968 -1.9238 -0.5115
 6626TIP3    H241514   4.901   6.842   0.064 -0.5568 -0.3575  1.1584
 6627TIP3   OH241515   2.101   2.637   1.096  0.2078 -0.0047  0.2745
 6627TIP3    H141516   2.169   2.584   1.055  0.0362  1.6714 -2.2268
 6627TIP3    H241517   2.025   2.629   1.038 -0.9899  0.0566  1.7941
 6628TIP3   OH241518   2.547   0.518   2.021  0.4085  0.3626 -0.2610
 6628TIP3    H141519   2.527   0.607   1.989  0.3161 -0.0492 -1.3778
 6628TIP3    H241520   2.549   0.527   2.116  3.8326  2.3380 -0.4111
 6629TIP3   OH241521   4.413   5.209   1.557  0.5586  0.6581  0.3983
 6629TIP3    H141522   4.340   5.221   1.495  0.7349 -0.0990  0.0407
 6629TIP3    H241523   4.420   5.115   1.568  0.9623  0.7681  1.0655
 6630TIP3   OH241524   3.441   0.634   8.377 -0.1080 -0.0952 -0.3017
 6630TIP3    H141525   3.488   0.702   8.328  0.4995  0.7362  1.4117
 6630TIP3    H241526   3.500   0.611   8.449 -1.0409 -1.2284  0.1204
 6631TIP3   OH241527   0.158   7.062   1.227  0.6628  0.1365 -0.2091
 6631TIP3    H141528   0.212   7.112   1.166  0.5511  0.3251 -0.1539
 6631TIP3    H241529   0.071   7.100   1.219  0.6964  0.3182  0.2391
 6632TIP3   OH241530   5.415   5.869   0.562 -0.7280  0.2042 -1.6459
 6632TIP3    H141531   5.345   5.833   0.508  0.8529 -1.2682 -2.7515
 6632TIP3    H241532   5.387   5.959   0.580 -3.9608 -1.0338 -0.1638
 6633TIP3   OH241533   4.694   7.070   7.466  0.1109 -0.1212 -0.3884
 6633TIP3    H141534   4.771   7.021   7.494 -0.7207 -0.4527  1.3415
 6633TIP3    H241535   4.663   7.023   7.388  2.2530  0.6423 -1.7629
 6634TIP3   OH241536   5.233   3.492   7.101 -0.0917  0.3500 -0.3918
 6634TIP3    H141537   5.299   3.434   7.140 -0.2374 -0.0731 -0.7703
 6634TIP3    H241538   5.278   3.533   7.027 -0.6639 -1.0245 -1.5383
 6635TIP3   OH241539   4.461   5.857   6.597 -0.1963  0.2849  0.3714
 6635TIP3    H141540   4.466   5.846   6.692 -1.9941  0.1036  0.4563
 6635TIP3    H241541   4.470   5.952   6.583  1.0290  0.2117  0.6510
 6636TIP3   OH241542   5.895   6.093   7.040 -0.1883 -0.0448 -0.1687
 6636TIP3    H141543   5.952   6.164   7.009 -1.7392  0.9826 -0.7164
 6636TIP3    H241544   5.887   6.108   7.134  0.0602  0.0816 -0.1678
 6637TIP3   OH241545   3.815   5.362   1.943  0.1082 -0.4663  0.5004
 6637TIP3    H141546   3.764   5.300   1.996 -2.3132 -0.4503 -1.6957
 6637TIP3    H241547   3.812   5.326   1.855  1.5403  1.0453 -0.1878
 6638TIP3   OH241548   5.297   6.719   8.210  0.1423  0.1093  0.5686
 6638TIP3    H141549   5.289   6.813   8.226  2.0796  0.4575 -0.3096
 6638TIP3    H241550   5.294   6.711   8.114 -0.4501 -0.7739  0.6560
 6639TIP3   OH241551   4.127   6.455   0.093  0.6810  0.0529 -0.9456
 6639TIP3    H141552   4.119   6.405   0.012  0.0349 -0.2484 -0.6987
 6639TIP3    H241553   4.075   6.534   0.079  1.9500  0.8141 -1.4483
 6640TIP3   OH241554   4.744   6.010   1.908 -0.2623  0.2440 -0.0616
 6640TIP3    H141555   4.824   6.045   1.948 -0.2889 -1.2153  1.3187
 6640TIP3    H241556   4.740   5.919   1.937 -1.6195 -0.1397 -1.3813
 6641TIP3   OH241557   4.422   6.225   0.123 -0.1170  0.2702  0.2914
 6641TIP3    H141558   4.357   6.224   0.193  0.1160 -2.1869  0.5051
 6641TIP3    H241559   4.496   6.175   0.158  0.8110  0.7544 -0.9457
 6642TIP3   OH241560   6.302   1.008   1.212 -0.1892  0.1731 -0.1263
 6642TIP3    H141561   6.319   1.101   1.226 -0.0286  0.4385 -1.9955
 6642TIP3    H241562   6.233   1.006   1.146 -1.2652 -1.0222  1.0088
 6643TIP3   OH241563   4.666   5.280   6.791  1.1080  0.1144 -0.0597
 6643TIP3    H141564   4.588   5.313   6.747  0.8011 -0.6651 -0.0923
 6643TIP3    H241565   4.636   5.206   6.843  1.8027 -0.1157  0.0256
 6644TIP3   OH241566   7.119   6.909   1.516  0.0161  0.0885 -0.4947
 6644TIP3    H141567   7.166   6.828   1.535  0.1846  0.4278  0.5578
 6644TIP3    H241568   7.038   6.902   1.567  0.5466  1.0841  0.4949
 6645TIP3   OH241569   4.059   5.430   1.063 -0.5743 -0.1202 -1.0042
 6645TIP3    H141570   4.001   5.412   1.138  0.5473  3.2653  0.8015
 6645TIP3    H241571   4.001   5.461   0.995 -1.1599  1.0513  0.0099
 6646TIP3   OH241572   2.806   0.419   6.943  0.0822  0.1558  0.3732
 6646TIP3    H141573   2.845   0.452   7.024  1.3551  1.1264 -0.6066
 6646TIP3    H241574   2.881   0.386   6.893 -0.7286 -0.6784 -0.2889
 6647TIP3   OH241575   3.968   5.867   7.073  0.1052 -0.3109 -0.1821
 6647TIP3    H141576   4.030   5.935   7.100  0.1780 -0.0219 -1.0625
 6647TIP3    H241577   4.012   5.785   7.095 -0.5763 -0.0771  2.1861
 6648TIP3   OH241578   3.421   6.609   7.988  0.2755 -0.6314  0.3658
 6648TIP3    H141579   3.443   6.618   7.895 -0.4393  0.0884  0.2661
 6648TIP3    H241580   3.505   6.599   8.032  1.0384  4.3063  0.2647
 6649TIP3   OH241581   6.207   6.616   1.418 -0.3215  0.0636  0.2038
 6649TIP3    H141582   6.228   6.677   1.488  1.1559 -0.2311  0.0322
 6649TIP3    H241583   6.251   6.652   1.341 -1.5052  0.1109 -0.4629
 6650TIP3   OH241584   4.027   6.022   2.343  0.4104  0.1683 -0.4924
 6650TIP3    H141585   4.109   6.046   2.301  0.9597  0.6353  0.8159
 6650TIP3    H241586   4.008   5.933   2.312  0.7710  0.5201 -1.7446
 6651TIP3   OH241587   3.065   6.310   7.840 -0.4503 -0.2169  0.4859
 6651TIP3    H141588   3.023   6.264   7.768 -0.8428 -0.8670  1.1216
 6651TIP3    H241589   3.061   6.249   7.914 -0.1944  0.4931  1.1027
 6652TIP3   OH241590   4.918   0.116   0.360 -0.1439 -0.6077 -0.4925
 6652TIP3    H141591   4.927   0.052   0.290  0.6551  0.5624 -1.4798
 6652TIP3    H241592   4.834   0.158   0.343 -0.1692 -0.6518 -0.4774
 6653TIP3   OH241593   6.903   6.189   0.220 -0.4007 -0.2238  0.3811
 6653TIP3    H141594   6.824   6.193   0.274 -1.1729 -0.7323 -0.6957
 6653TIP3    H241595   6.975   6.196   0.283 -1.2879 -0.4630  1.4491
 6654TIP3   OH241596   3.866   6.543   1.305  0.2625 -0.4214 -0.3298
 6654TIP3    H141597   3.773   6.544   1.329  0.6668  0.5127  1.2303
 6654TIP3    H241598   3.912   6.522   1.386  1.6126  2.0881 -0.3894
 6655TIP3   OH241599   1.742   0.399   7.854 -0.2329 -0.0479 -0.1038
 6655TIP3    H141600   1.649   0.419   7.864 -0.5932 -1.7142  0.0735
 6655TIP3    H241601   1.767   0.444   7.773 -1.6415 -0.9900 -1.1076
 6656TIP3   OH241602   5.050   6.563   0.553 -0.0667 -0.2065  0.0606
 6656TIP3    H141603   5.107   6.621   0.502  1.7122 -1.0498  1.0249
 6656TIP3    H241604   5.025   6.494   0.492  0.2687 -0.0270 -0.2804
 6657TIP3   OH241605   4.271   5.553   0.694 -0.2806 -0.1311  0.5434
 6657TIP3    H141606   4.345   5.596   0.736  0.4153  0.2449 -1.0224
 6657TIP3    H241607   4.194   5.598   0.729  0.2827  0.1530  1.4167
 6658TIP3   OH241608   4.477   0.276   7.971 -0.2263  0.4613  0.2456
 6658TIP3    H141609   4.494   0.357   7.923  2.9092 -1.6934 -2.5248
 6658TIP3    H241610   4.383   0.275   7.986 -0.6822  3.2085 -2.2366
 6659TIP3   OH241611   5.023   2.247   1.109 -0.5022  0.7530  0.0494
 6659TIP3    H141612   5.116   2.270   1.114  0.1550 -1.5290 -0.9179
 6659TIP3    H241613   4.998   2.229   1.199  0.1875  0.7535  0.2486
 6660TIP3   OH241614   2.844   6.724   0.772 -0.0682  0.5359  0.0058
 6660TIP3    H141615   2.939   6.733   0.778  0.0596  0.4082 -1.5063
 6660TIP3    H241616   2.809   6.795   0.826  0.8778  0.1338  1.1719
 6661TIP3   OH241617   4.441   7.321   1.276 -0.0000 -0.0473  0.0363
 6661TIP3    H141618   4.413   7.235   1.307  0.2893 -0.6112 -1.2110
 6661TIP3    H241619   4.536   7.321   1.286 -0.2150  1.0740  2.3236
 6662TIP3   OH241620   3.173   6.154   2.120 -0.0232  0.2711 -0.3053
 6662TIP3    H141621   3.105   6.086   2.122 -0.2204  0.4926  1.8221
 6662TIP3    H241622   3.244   6.119   2.174  0.9221  0.7133 -1.2379
 6663TIP3   OH241623   1.247   6.222   0.929 -0.6074  0.3273  0.4959
 6663TIP3    H141624   1.323   6.276   0.909  0.1855  0.2272  3.0211
 6663TIP3    H241625   1.275   6.133   0.909 -0.0195  0.2809  1.5016
 6664TIP3   OH241626   3.105   0.039   0.252  0.1910 -0.2162 -0.0232
 6664TIP3    H141627   3.069  -0.049   0.243  2.1333 -1.1068  0.5702
 6664TIP3    H241628   3.082   0.084   0.171  2.0040 -2.3341 -1.7737
 6665TIP3   OH241629   2.964   7.104   1.343  0.0572 -0.0732 -0.2970
 6665TIP3    H141630   2.879   7.143   1.363  0.6945 -0.1453  2.6829
 6665TIP3    H241631   2.956   7.013   1.373  1.5622  0.2352  1.0915
 6666TIP3   OH241632   4.315   0.960   8.395  0.1153 -0.5370 -0.3654
 6666TIP3    H141633   4.392   0.957   8.338 -0.2947  2.3458 -1.1389
 6666TIP3    H241634   4.349   0.935   8.481  1.5823 -0.9583 -1.0527
 6667TIP3   OH241635   3.842   0.184   0.077 -0.5181  1.3741 -0.5997
 6667TIP3    H141636   3.817   0.206   0.167 -0.0357 -0.4446 -0.0174
 6667TIP3    H241637   3.778   0.118   0.050  0.2598  0.8185 -1.0726
 6668TIP3   OH241638   5.442   5.663   7.471  0.3306  0.2343  0.3395
 6668TIP3    H141639   5.367   5.607   7.452 -0.8144  2.4244 -1.7784
 6668TIP3    H241640   5.518   5.614   7.439 -0.3741 -1.1401  0.7308
 6669TIP3   OH241641   3.463   4.612   7.236  0.1168 -0.5674 -0.1445
 6669TIP3    H141642   3.470   4.669   7.313  0.0409 -1.0992  0.2643
 6669TIP3    H241643   3.529   4.646   7.176  0.5178 -0.4383  0.3549
 6670TIP3   OH241644   3.549   7.032   1.555 -0.2785 -0.1201  0.1851
 6670TIP3    H141645   3.505   7.113   1.529  0.6334  0.8014  1.4211
 6670TIP3    H241646   3.491   6.993   1.620 -1.3648 -1.1531 -1.4014
 6671TIP3   OH241647   3.339   0.649   1.000 -0.3102 -0.1434 -0.5284
 6671TIP3    H141648   3.300   0.632   0.914  0.4950 -2.0185 -0.5470
 6671TIP3    H241649   3.354   0.561   1.036  0.6229  0.6217  0.9470
 6672TIP3   OH241650   4.777   5.863   1.555 -0.3224  0.1953  0.4285
 6672TIP3    H141651   4.844   5.796   1.570 -1.1773 -1.4694 -2.6615
 6672TIP3    H241652   4.707   5.841   1.616  0.1841 -0.6171  0.7246
 6673TIP3   OH241653   2.466   5.412   0.153  0.3878 -0.7144  0.8912
 6673TIP3    H141654   2.473   5.505   0.130 -1.9362 -1.0645 -1.3335
 6673TIP3    H241655   2.505   5.366   0.078  0.8856 -1.5902  1.6766
 6674TIP3   OH241656   4.776   0.794   0.393 -0.3759 -0.1210  0.4154
 6674TIP3    H141657   4.845   0.825   0.334 -1.1053 -0.9106 -0.8810
 6674TIP3    H241658   4.786   0.847   0.472 -0.0574  1.6991 -0.8182
 6675TIP3   OH241659   5.928   4.502   2.029 -0.2508 -0.5281 -0.3697
 6675TIP3    H141660   5.849   4.496   2.084 -0.2341  0.1455 -0.2707
 6675TIP3    H241661   5.928   4.420   1.979 -2.2937  0.4699 -2.0986
 6676TIP3   OH241662   6.167   4.956   2.094  0.3127 -0.1720 -0.1918
 6676TIP3    H141663   6.128   4.998   2.171  0.1994 -1.5039  0.5016
 6676TIP3    H241664   6.125   4.870   2.090 -2.1778  1.1224 -3.7866
 6677TIP3   OH241665   6.461   6.535   1.078  0.0215  0.6479 -0.3437
 6677TIP3    H141666   6.482   6.488   1.158  1.4829  2.4562  0.3535
 6677TIP3    H241667   6.405   6.608   1.107 -0.5147  0.5597 -1.1406
 6678TIP3   OH241668   5.360   5.965   1.357 -0.5256 -0.3515 -0.7144
 6678TIP3    H141669   5.392   6.033   1.296 -0.2087  0.1021 -0.0485
 6678TIP3    H241670   5.265   5.973   1.353 -0.4972 -0.0528 -0.8507
 6679TIP3   OH241671   3.602   5.727   0.055  0.1119 -0.1926 -0.4259
 6679TIP3    H141672   3.683   5.755   0.012 -0.9618  1.9791 -1.0838
 6679TIP3    H241673   3.533   5.773   0.007 -1.3874 -0.7269  1.2008
 6680TIP3   OH241674   3.971   6.979   1.283 -0.7152  0.4909  0.4286
 6680TIP3    H141675   3.926   7.026   1.354  0.0212  1.7032  0.1108
 6680TIP3    H241676   3.931   7.012   1.203 -1.1786 -0.4898  0.2448
 6681TIP3   OH241677   0.199   5.053   0.023  0.4416  0.8556  0.0402
 6681TIP3    H141678   0.232   5.109   0.093 -0.9583  0.1272  1.3089
 6681TIP3    H241679   0.253   4.974   0.027  0.3462  0.8041  0.3197
 6682TIP3   OH241680   3.237   0.391   1.789  0.0745 -0.3897  0.2267
 6682TIP3    H141681   3.147   0.364   1.769  0.1375  0.2688 -1.0445
 6682TIP3    H241682   3.231   0.486   1.802  0.5210 -0.3989  0.4988
 6683TIP3   OH241683   5.224   0.084   7.777  0.7444  0.2183 -0.2673
 6683TIP3    H141684   5.168   0.047   7.709  0.6967  0.6136 -0.4457
 6683TIP3    H241685   5.163   0.124   7.839  0.7462 -0.8294  0.4286
 6684TIP3   OH241686   3.694   7.106   1.203 -0.3884  0.1359 -0.9965
 6684TIP3    H141687   3.668   7.194   1.231  0.1226  0.4928 -1.6409
 6684TIP3    H241688   3.630   7.048   1.245  0.8038  0.5945  1.5218
 6685TIP3   OH241689   5.348   0.285   0.254 -0.5595  0.2315  0.2278
 6685TIP3    H141690   5.272   0.326   0.296  1.0030  2.4607  0.9818
 6685TIP3    H241691   5.423   0.313   0.307  1.0060 -0.1530 -1.7261
 6686TIP3   OH241692   2.794   6.818   1.257 -0.5804  0.2452 -0.1017
 6686TIP3    H141693   2.724   6.779   1.204 -1.2600  0.7057  0.4388
 6686TIP3    H241694   2.753   6.894   1.298  0.2260  0.4851  0.2756
 6687TIP3   OH241695   4.973   5.932   8.352  0.2935 -0.2331 -0.0760
 6687TIP3    H141696   5.022   5.955   8.274 -1.8050 -1.1666 -1.7025
 6687TIP3    H241697   5.019   5.855   8.388  0.2757 -0.8512 -1.3574
 6688TIP3   OH241698   4.142   6.568   1.146 -0.1114  0.0421 -0.1717
 6688TIP3    H141699   4.195   6.548   1.224  0.1433  1.5570  0.0554
 6688TIP3    H241700   4.052   6.549   1.173  0.1556 -1.2712 -0.1339
 6689TIP3   OH241701   4.808   6.564   2.296  0.0002 -0.1123  0.5976
 6689TIP3    H141702   4.873   6.621   2.336  0.2215  0.6586 -0.8249
 6689TIP3    H241703   4.849   6.532   2.216 -1.9158  1.6369 -1.1453
 6690TIP3   OH241704   3.528   4.434   0.037  0.0364 -0.1891  0.0623
 6690TIP3    H141705   3.593   4.487  -0.010  1.3885  0.0689  2.1703
 6690TIP3    H241706   3.516   4.357  -0.019  2.2615 -0.3059 -0.3172
 6691TIP3   OH241707   6.543   6.865   7.690  0.4836  0.1307  0.3129
 6691TIP3    H141708   6.450   6.879   7.709  0.0094 -0.1895 -1.6254
 6691TIP3    H241709   6.579   6.954   7.682 -0.2285  0.3001 -1.4026
 6692TIP3   OH241710   4.165   7.165   1.530 -0.2661 -0.4261  0.0936
 6692TIP3    H141711   4.131   7.223   1.461 -0.6127 -1.1841 -0.3740
 6692TIP3    H241712   4.230   7.111   1.486  0.1121 -0.3449  0.5508
 6693TIP3   OH241713   4.364   2.286   0.833 -0.5299  0.1384  0.2003
 6693TIP3    H141714   4.455   2.290   0.802 -0.0762  2.4664  1.6749
 6693TIP3    H241715   4.371   2.246   0.920 -0.6157  2.4439  1.2891
 6694TIP3   OH241716   3.892   0.473   1.756 -0.0891 -0.6219 -0.1054
 6694TIP3    H141717   3.930   0.388   1.731  3.2251  0.0222  2.4118
 6694TIP3    H241718   3.891   0.472   1.852 -0.8148  1.8625 -0.0493
 6695TIP3   OH241719   5.261   5.485   1.120 -0.6484  0.3063 -0.0473
 6695TIP3    H141720   5.201   5.472   1.047  0.6700 -0.7356 -0.9603
 6695TIP3    H241721   5.271   5.580   1.125  0.8899  0.3383 -2.6068
 6696TIP3   OH241722   2.195   6.308   2.136  0.0423  0.1143  0.3396
 6696TIP3    H141723   2.113   6.280   2.176  0.0067  0.9149  0.8367
 6696TIP3    H241724   2.170   6.373   2.070  0.0607 -1.5297 -1.3346
 6697TIP3   OH241725   5.650   4.532   1.435 -0.0896 -0.4601 -0.4511
 6697TIP3    H141726   5.643   4.623   1.406  0.4494 -0.0552  0.6441
 6697TIP3    H241727   5.745   4.516   1.440 -0.1794 -0.8872 -0.0896
 6698TIP3   OH241728   3.821   6.548   0.234  0.4045  0.0873  0.2058
 6698TIP3    H141729   3.856   6.467   0.271 -0.8517 -0.6864 -0.2734
 6698TIP3    H241730   3.726   6.537   0.238  0.2276  0.5973 -1.8742
 6699TIP3   OH241731   5.563   7.235   0.900 -0.2303  0.4927 -0.6245
 6699TIP3    H141732   5.595   7.267   0.985 -0.3751  0.6468 -0.6278
 6699TIP3    H241733   5.569   7.310   0.842 -2.5199  1.1235 -0.1169
 6700TIP3   OH241734   6.644   5.428   0.704  0.4696 -0.3736  0.7457
 6700TIP3    H141735   6.619   5.452   0.793 -0.0191 -0.9196  0.7592
 6700TIP3    H241736   6.628   5.334   0.699  1.8930 -0.6195  0.5465
 6701TIP3   OH241737   4.133   6.668   1.950  0.4371  0.3852  0.1027
 6701TIP3    H141738   4.167   6.581   1.972 -3.4791 -1.1045  0.7176
 6701TIP3    H241739   4.170   6.687   1.864  3.6503 -0.5735  1.2032
 6702TIP3   OH241740   4.715   4.031   1.886 -0.1513 -0.8119 -0.1165
 6702TIP3    H141741   4.738   4.084   1.810 -2.1550 -0.2463 -0.3752
 6702TIP3    H241742   4.782   4.050   1.951  0.3229  0.4244 -0.9599
 6703TIP3   OH241743   4.617   7.214   0.843  0.5466  0.2770 -0.2479
 6703TIP3    H141744   4.535   7.235   0.889 -0.4433 -1.8968 -0.9753
 6703TIP3    H241745   4.591   7.204   0.752  1.5516 -0.7205 -0.4322
 6704TIP3   OH241746   5.367   5.591   2.269  0.3893 -0.5509  0.5148
 6704TIP3    H141747   5.394   5.656   2.204  0.8736  0.0475  1.3076
 6704TIP3    H241748   5.439   5.588   2.332  0.1206 -1.4469  0.7938
 6705TIP3   OH241749   5.824   7.070   8.422 -0.6086  0.0324  0.0079
 6705TIP3    H141750   5.863   7.084   8.508  3.1641 -0.3214 -1.5541
 6705TIP3    H241751   5.800   7.158   8.392  1.3237  0.5650 -0.0242
 6706TIP3   OH241752   5.429   6.896   2.035  0.3333 -0.5447 -0.3331
 6706TIP3    H141753   5.363   6.954   2.072  0.5542 -0.3545 -0.2346
 6706TIP3    H241754   5.492   6.883   2.106  1.3617  0.7373 -0.9800
 6707TIP3   OH241755   4.679   4.129   2.219 -0.1194  0.3701  0.4139
 6707TIP3    H141756   4.607   4.066   2.235  0.9992 -0.7895  0.9917
 6707TIP3    H241757   4.745   4.077   2.173  0.3105  1.4705 -0.2073
 6708TIP3   OH241758   6.107   5.930   0.321 -0.7429 -0.2083 -0.3140
 6708TIP3    H141759   6.119   5.835   0.327  1.5677 -0.0154 -1.3690
 6708TIP3    H241760   6.088   5.945   0.228  0.1712  0.4858 -0.3915
 6709TIP3   OH241761   4.291   7.328   6.867 -0.3810  0.3132 -0.2649
 6709TIP3    H141762   4.318   7.353   6.778  0.2530 -0.1819 -0.2192
 6709TIP3    H241763   4.196   7.323   6.863 -0.3366 -0.0199 -1.0043
 6710TIP3   OH241764   4.039   6.260   7.899 -0.0539 -0.0860  0.6943
 6710TIP3    H141765   3.986   6.181   7.911 -1.5712  0.4244 -2.2078
 6710TIP3    H241766   3.987   6.315   7.841  1.9203  2.1836  1.0061
 6711TIP3   OH241767   3.050   6.277   1.476  0.1656  0.1919 -0.3474
 6711TIP3    H141768   3.066   6.370   1.459 -3.4621  1.0558  0.5041
 6711TIP3    H241769   3.008   6.275   1.563  1.4868 -2.3968  0.2917
 6712TIP3   OH241770   5.324   0.626   0.523  0.7076 -0.7697  0.5659
 6712TIP3    H141771   5.392   0.690   0.546 -0.3420  0.0707  1.3879
 6712TIP3    H241772   5.338   0.609   0.430 -0.0682  2.0273 -0.1381
 6713TIP3   OH241773   5.306   7.304   1.481  0.2602  0.4814  0.4643
 6713TIP3    H141774   5.223   7.259   1.467  1.1214 -0.3266 -2.4979
 6713TIP3    H241775   5.324   7.349   1.398  2.2853  1.4875  1.3887
 6714TIP3   OH241776   5.854   5.704   0.231  0.2419  0.4003 -0.2025
 6714TIP3    H141777   5.823   5.614   0.231  2.9275 -0.5774  0.2154
 6714TIP3    H241778   5.824   5.740   0.314  2.2381 -1.2907  1.3145
 6715TIP3   OH241779   3.464   7.261   1.813  0.4548  0.2030  0.4695
 6715TIP3    H141780   3.458   7.183   1.868  1.4858 -1.1189 -1.2452
 6715TIP3    H241781   3.516   7.323   1.864  0.7563 -0.7237  1.2991
 6716TIP3   OH241782   5.655   6.905   0.241  0.2316  0.4304  0.8778
 6716TIP3    H141783   5.626   6.982   0.193  0.3332  1.6716  2.7772
 6716TIP3    H241784   5.585   6.841   0.228 -0.7881  1.5243  0.9325
 6717TIP3   OH241785   4.424   4.544   0.636  0.6582  0.1848 -0.0405
 6717TIP3    H141786   4.465   4.516   0.555 -0.3490  0.3030 -0.5934
 6717TIP3    H241787   4.395   4.634   0.619  1.6708  0.7159  0.9086
 6718TIP3   OH241788   3.699   7.060   0.385  0.6165 -0.0486  0.4413
 6718TIP3    H141789   3.738   7.027   0.466  0.7322  0.7080  0.6921
 6718TIP3    H241790   3.605   7.050   0.399  0.6446 -0.1352  0.5751
 6719TIP3   OH241791   3.384   0.091   0.714  0.2438  0.1410 -0.1050
 6719TIP3    H141792   3.320   0.028   0.681  0.2461 -0.4008  0.9072
 6719TIP3    H241793   3.341   0.176   0.704 -0.5765 -0.2027  0.3977
 6720TIP3   OH241794   4.505   6.568   2.110 -0.8326  0.1760 -0.9536
 6720TIP3    H141795   4.426   6.519   2.089 -0.4490  0.2617 -2.6136
 6720TIP3    H241796   4.574   6.501   2.114 -0.8283  0.2114 -0.3174
 6721TIP3   OH241797   4.918   6.422   1.498  0.5080 -0.1274 -0.2458
 6721TIP3    H141798   4.873   6.451   1.418  1.5652 -1.4107 -1.3315
 6721TIP3    H241799   5.011   6.435   1.479  0.9392 -2.8536 -0.2464
 6722TIP3   OH241800   4.271   5.952   7.763  0.3989 -0.3518  0.0433
 6722TIP3    H141801   4.327   5.974   7.689 -1.0226 -0.8658 -1.2098
 6722TIP3    H241802   4.312   5.995   7.838  0.4801  2.2634 -1.4533
 6723TIP3   OH241803   4.701   0.228   1.175 -0.4353 -0.3145 -0.7231
 6723TIP3    H141804   4.715   0.154   1.233 -1.3725  0.2257  0.2278
 6723TIP3    H241805   4.676   0.189   1.091  2.4373 -1.1359 -1.2222
 6724TIP3   OH241806   6.577   5.492   1.437 -0.2697 -0.0691  0.4577
 6724TIP3    H141807   6.519   5.561   1.470 -1.8332 -0.9349 -0.4115
 6724TIP3    H241808   6.664   5.532   1.436 -1.0735  1.7364  0.4014
 6725TIP3   OH241809   6.024   3.410   0.961  0.0425 -0.4021 -0.3856
 6725TIP3    H141810   6.103   3.463   0.969  0.6892 -1.6258  1.5660
 6725TIP3    H241811   6.040   3.355   0.884  1.0808 -0.6061 -0.0383
 6726TIP3   OH241812   2.689   5.418   1.747  0.0940 -0.6671  0.4812
 6726TIP3    H141813   2.711   5.442   1.837 -0.3636  0.8856  0.1878
 6726TIP3    H241814   2.773   5.404   1.705  0.4941  2.5270  0.1074
 6727TIP3   OH241815   7.317   7.023   7.773 -0.0040  0.2814 -0.3930
 6727TIP3    H141816   7.317   7.119   7.773  1.8350  0.3002 -0.0186
 6727TIP3    H241817   7.256   6.999   7.843  0.0663  1.1763 -0.0166
 6728TIP3   OH241818   5.734   5.777   0.818 -0.0750 -0.0716 -0.2432
 6728TIP3    H141819   5.791   5.760   0.744 -1.4989 -0.5981 -1.2504
 6728TIP3    H241820   5.766   5.719   0.887  0.0627 -0.9974 -1.0775
 6729TIP3   OH241821   2.590   5.453   1.413  0.0523  0.0953  0.0204
 6729TIP3    H141822   2.637   5.471   1.332 -0.1894  0.8199  0.0397
 6729TIP3    H241823   2.573   5.539   1.451  2.2308 -0.3161  2.0253
 6730TIP3   OH241824   2.973   6.285   1.729  0.3445  0.0817  0.3048
 6730TIP3    H141825   2.955   6.222   1.798  1.7705 -0.5614  0.1063
 6730TIP3    H241826   2.906   6.353   1.740 -1.9260 -2.0257 -0.2016
 6731TIP3   OH241827   4.012   0.809   1.562 -0.0999  0.2236  0.3147
 6731TIP3    H141828   3.944   0.809   1.494  1.2464 -0.5287 -1.0751
 6731TIP3    H241829   3.966   0.785   1.642 -1.2319 -1.8089 -0.8924
 6732TIP3   OH241830   6.779   5.693   8.149  0.1817 -0.3879 -0.6949
 6732TIP3    H141831   6.857   5.722   8.196  1.2441 -1.7008 -1.6115
 6732TIP3    H241832   6.709   5.698   8.214  1.3310 -0.7382  0.6030
 6733TIP3   OH241833   3.886   1.108   7.545  0.3919  0.3630 -0.1334
 6733TIP3    H141834   3.908   1.018   7.565  1.6008  0.7567  0.3181
 6733TIP3    H241835   3.793   1.105   7.522  0.4347 -0.9929 -0.1621
 6734TIP3   OH241836   3.067   0.255   1.166 -0.1595 -0.2499  0.0234
 6734TIP3    H141837   3.096   0.178   1.213  1.5468  0.5532  0.3221
 6734TIP3    H241838   3.085   0.328   1.225 -3.2939  0.2709  0.4472
 6735TIP3   OH241839   4.202   5.294   1.403 -0.4672  0.5708  0.0443
 6735TIP3    H141840   4.201   5.311   1.309 -1.6577 -1.7368 -0.3910
 6735TIP3    H241841   4.223   5.378   1.442  0.5133  1.4632 -2.3064
 6736TIP3   OH241842   1.948   6.780   0.678 -0.2834 -0.3129 -0.0457
 6736TIP3    H141843   1.869   6.830   0.697 -0.2432 -0.3140  0.1210
 6736TIP3    H241844   2.001   6.838   0.624 -1.2912 -1.0426 -1.8786
 6737TIP3   OH241845   4.256   6.323   1.610 -0.6616  0.2996 -0.6470
 6737TIP3    H141846   4.172   6.306   1.654 -1.5390 -0.7900 -2.6986
 6737TIP3    H241847   4.321   6.300   1.676 -1.9597 -1.4190  0.0966
 6738TIP3   OH241848   3.977   6.412   1.525  0.9078 -0.1061 -0.1286
 6738TIP3    H141849   4.037   6.461   1.580  1.1251 -0.0609 -0.4084
 6738TIP3    H241850   3.901   6.396   1.580  0.2274  1.8041 -0.4939
 6739TIP3   OH241851   5.973   7.267   1.544  0.1516 -0.4404  0.0178
 6739TIP3    H141852   5.956   7.173   1.538 -0.2858 -0.4343  0.9876
 6739TIP3    H241853   5.961   7.288   1.637  1.5694  0.3259  0.0453
 6740TIP3   OH241854   3.612   0.525   0.077 -0.2537 -0.2421 -0.1597
 6740TIP3    H141855   3.543   0.479   0.126  1.0051 -2.2456 -0.1853
 6740TIP3    H241856   3.685   0.528   0.139  0.6174 -0.8254 -1.1561
 6741TIP3   OH241857   6.471   6.374   0.845 -0.2651  0.8554  0.2256
 6741TIP3    H141858   6.480   6.427   0.925  0.4192  1.6413 -0.3669
 6741TIP3    H241859   6.377   6.369   0.830 -0.3363  1.8892  0.3022
 6742TIP3   OH241860   0.323   7.058   0.522  0.4259  0.5807  0.3184
 6742TIP3    H141861   0.354   7.029   0.608 -0.8674  0.4329  0.7391
 6742TIP3    H241862   0.403   7.084   0.475  1.6586 -3.2465  0.0875
 6743TIP3   OH241863   4.486   6.644   0.352  0.4131  0.6865  0.0001
 6743TIP3    H141864   4.429   6.718   0.373  0.6406  1.0988 -0.8243
 6743TIP3    H241865   4.464   6.578   0.418  0.8435  1.8106  1.2850
 6744TIP3   OH241866   2.091   4.220   7.910 -0.1815  0.1512  0.4870
 6744TIP3    H141867   2.069   4.142   7.961 -2.4781  1.0182  0.8899
 6744TIP3    H241868   2.174   4.198   7.867 -0.2202 -2.0739  1.4779
 6745TIP3   OH241869   5.561   6.975   7.249  0.2645  0.5910 -0.4565
 6745TIP3    H141870   5.540   6.918   7.175  0.5436 -0.5970  0.3753
 6745TIP3    H241871   5.631   7.032   7.216 -1.8492  2.3071 -2.1513
 6746TIP3   OH241872   4.391   4.854   0.755 -0.0606  0.0643 -0.0794
 6746TIP3    H141873   4.316   4.834   0.698 -1.0198  0.6283  0.9706
 6746TIP3    H241874   4.453   4.900   0.698 -1.3527  1.3401 -0.4695
 6747TIP3   OH241875   1.360   5.294   7.205  0.0437 -0.1849  0.1173
 6747TIP3    H141876   1.414   5.367   7.173 -1.2197  0.6456 -0.1580
 6747TIP3    H241877   1.270   5.327   7.201 -0.4112 -1.2192  1.4808
 6748TIP3   OH241878   3.366   7.247   0.217  0.8856  0.0401  0.1477
 6748TIP3    H141879   3.276   7.274   0.202  0.6203 -1.1832 -0.4966
 6748TIP3    H241880   3.365   7.207   0.304  0.7186 -0.3662 -0.0419
 6749TIP3   OH241881   4.632   2.852   0.329 -0.2415 -0.0527 -0.4723
 6749TIP3    H141882   4.663   2.770   0.368 -0.2271 -0.2244 -0.8444
 6749TIP3    H241883   4.558   2.825   0.274 -0.4421  0.2274 -0.3360
 6750TIP3   OH241884   5.183   7.203   0.524  0.2838  0.0689  0.1077
 6750TIP3    H141885   5.183   7.145   0.601  1.5525  1.9319  1.5670
 6750TIP3    H241886   5.224   7.152   0.455  0.1753 -1.2342  0.9910
 6751TIP3   OH241887   4.448   6.702   1.862 -0.5855 -0.3734  0.3930
 6751TIP3    H141888   4.458   6.658   1.946 -0.5331 -0.1646  0.4955
 6751TIP3    H241889   4.465   6.794   1.880 -0.1129 -0.3928  0.0679
 6752TIP3   OH241890   6.506   6.032   1.553  0.2372  0.7404 -0.0373
 6752TIP3    H141891   6.473   6.048   1.464 -0.1244  1.8504  0.2911
 6752TIP3    H241892   6.579   5.971   1.540  0.7333  1.5470 -1.1885
 6753TIP3   OH241893   5.332   6.261   8.125 -0.0492  0.0915 -0.0164
 6753TIP3    H141894   5.356   6.250   8.033  1.2846 -0.8755  0.4260
 6753TIP3    H241895   5.406   6.309   8.163 -0.0627 -0.5161  0.7888
 6754TIP3   OH241896   3.685   0.158   1.632  0.0132 -0.2853  0.6081
 6754TIP3    H141897   3.658   0.199   1.551 -0.0242  0.1469  0.8388
 6754TIP3    H241898   3.615   0.177   1.694 -0.9690 -2.3843  0.1901
 6755TIP3   OH241899   5.784   5.088   1.103 -0.3596 -0.2881 -0.0036
 6755TIP3    H141900   5.787   5.040   1.021 -0.0233 -0.1736 -0.0604
 6755TIP3    H241901   5.859   5.054   1.153  0.5720  1.0010 -0.5080
 6756TIP3   OH241902   1.275   7.155   0.517 -0.4663  0.5791  0.4571
 6756TIP3    H141903   1.308   7.066   0.520 -2.4089 -0.1963 -0.2248
 6756TIP3    H241904   1.332   7.200   0.454 -0.3977 -0.5813 -0.3274
 6757TIP3   OH241905   7.008   6.491   1.358  0.3025 -0.1508 -0.0921
 6757TIP3    H141906   7.011   6.524   1.448 -0.5154  0.4459 -0.2759
 6757TIP3    H241907   6.930   6.532   1.320 -0.0703 -1.3982 -0.6899
 6758TIP3   OH241908   6.528   6.742   1.577 -0.5302 -0.3372 -0.7298
 6758TIP3    H141909   6.490   6.746   1.665 -0.4476 -0.7114 -0.6767
 6758TIP3    H241910   6.614   6.700   1.590 -0.8580 -1.1409 -1.1049
 6759TIP3   OH241911   6.956   6.808   0.116 -0.2715 -0.2548  0.2288
 6759TIP3    H141912   6.982   6.775   0.202 -0.1847  0.6735  0.5655
 6759TIP3    H241913   6.919   6.895   0.133 -0.8904 -0.3463 -0.5913
 6760TIP3   OH241914   5.857   6.175   0.704  0.0377  0.1071  0.6084
 6760TIP3    H141915   5.766   6.154   0.727  0.1927  0.4608  1.5743
 6760TIP3    H241916   5.873   6.127   0.623 -0.9587 -0.0991  0.5253
 6761TIP3   OH241917   0.504   0.331   0.287  0.2441 -0.0382  0.0953
 6761TIP3    H141918   0.506   0.263   0.220 -0.9414  0.5520 -0.5549
 6761TIP3    H241919   0.590   0.327   0.328  2.1693  1.6864 -3.5391
 6762TIP3   OH241920   6.023   0.519   0.980 -0.4239  0.1965 -0.0621
 6762TIP3    H141921   6.081   0.443   0.982 -0.9436 -0.1851  0.6245
 6762TIP3    H241922   6.058   0.578   1.047 -2.1271 -1.0129  1.9796
 6763TIP3   OH241923   1.455   4.468   1.231  0.1076 -0.0979  0.4916
 6763TIP3    H141924   1.363   4.471   1.205  0.2127 -2.9431 -0.4121
 6763TIP3    H241925   1.491   4.552   1.201 -1.8852  0.5266 -0.2684
 6764TIP3   OH241926   7.189   5.720   1.860  0.1222  0.2231 -0.2461
 6764TIP3    H141927   7.117   5.682   1.809 -0.0788 -1.1778  1.0453
 6764TIP3    H241928   7.145   5.762   1.934  0.6997 -2.1601  1.5093
 6765TIP3   OH241929   6.822   5.844   0.576 -0.6621 -0.0712 -0.2772
 6765TIP3    H141930   6.827   5.853   0.671 -0.5424 -0.2664 -0.2652
 6765TIP3    H241931   6.907   5.808   0.551 -1.1703 -1.2406 -0.3247
 6766TIP3   OH241932   6.145   5.999   0.771  0.2199 -0.3745 -0.6461
 6766TIP3    H141933   6.132   5.918   0.721  1.2227 -1.3882  0.6650
 6766TIP3    H241934   6.117   5.976   0.860 -0.7687  1.1385 -0.5594
 6767TIP3   OH241935   1.465   0.532   8.146  0.1673  0.1202  0.3062
 6767TIP3    H141936   1.430   0.477   8.215  2.5295 -2.4583 -0.4641
 6767TIP3    H241937   1.560   0.525   8.155  0.5157  1.2010 -2.0448
 6768TIP3   OH241938   6.687   6.208   0.382 -0.1391  0.0255  0.5859
 6768TIP3    H141939   6.621   6.276   0.371  0.2577  0.1358 -1.2434
 6768TIP3    H241940   6.755   6.248   0.437  0.1215  1.1283 -0.5335
 6769TIP3   OH241941   6.006   7.103   0.558  0.1417 -0.3286  0.3166
 6769TIP3    H141942   5.912   7.092   0.563  0.0044  0.4759 -0.2967
 6769TIP3    H241943   6.037   7.026   0.509  0.0047 -1.4329  1.9407
 6770TIP3   OH241944   3.521   5.606   7.403  0.3451  0.4218  0.4281
 6770TIP3    H141945   3.616   5.616   7.416  0.2536  1.8225 -0.0098
 6770TIP3    H241946   3.514   5.547   7.328  0.8607 -0.3372  0.9585
 6771TIP3   OH241947   0.795   4.578   0.655  0.1371  0.9430 -0.5147
 6771TIP3    H141948   0.805   4.515   0.727 -3.2527 -0.0176 -0.7960
 6771TIP3    H241949   0.799   4.663   0.697 -0.8819  0.4075  0.6898
 6772TIP3   OH241950   5.942   4.885   1.804  0.0211 -0.0331  0.3903
 6772TIP3    H141951   5.878   4.830   1.760  2.1678 -1.4152 -1.1058
 6772TIP3    H241952   5.942   4.854   1.894  0.3654 -1.7366 -0.1729
 6773TIP3   OH241953   1.184   0.412   0.924 -0.1001 -0.5412 -0.4692
 6773TIP3    H141954   1.190   0.318   0.908  3.4205 -0.1334 -1.8844
 6773TIP3    H241955   1.176   0.450   0.836 -1.1427  0.5305  0.0732
 6774TIP3   OH241956   6.184   0.236   7.093  0.3033  0.3527  0.1678
 6774TIP3    H141957   6.125   0.311   7.082  0.4807  0.3965 -0.5230
 6774TIP3    H241958   6.174   0.186   7.012 -0.5705 -0.9223  1.0408
 6775TIP3   OH241959   2.325   7.130   1.969 -0.2846  0.0173 -0.3670
 6775TIP3    H141960   2.288   7.178   2.043 -0.5828 -1.4093  0.4096
 6775TIP3    H241961   2.419   7.124   1.988 -0.2591  0.1973 -0.4283
 6776TIP3   OH241962   0.732   4.906   1.454  0.5890 -0.2782  0.2686
 6776TIP3    H141963   0.787   4.843   1.503  1.4189 -0.8356 -1.3273
 6776TIP3    H241964   0.795   4.968   1.418  0.1983 -0.9433 -1.6152
 6777TIP3   OH241965   6.932   3.873   0.422 -0.4074  0.0938 -0.7438
 6777TIP3    H141966   6.847   3.910   0.398 -1.0371  0.1533  1.4654
 6777TIP3    H241967   6.930   3.868   0.518  1.2494 -1.8980 -0.7751
 6778TIP3   OH241968   7.036   0.187   2.397  0.2688  0.2824  0.1860
 6778TIP3    H141969   6.977   0.250   2.355  1.9374  1.5099 -0.3696
 6778TIP3    H241970   6.982   0.110   2.412 -1.8768  1.9216  1.0828
 6779TIP3   OH241971   7.333   0.437   1.400 -0.0402  0.3052 -0.2805
 6779TIP3    H141972   7.423   0.466   1.413  0.1334 -0.8385  1.1890
 6779TIP3    H241973   7.318   0.446   1.306  1.3871  1.1154 -0.4400
 6780TIP3   OH241974   1.270   0.133   0.964  0.3136 -0.1391 -0.0133
 6780TIP3    H141975   1.214   0.074   1.013  1.0026  0.3022  1.3378
 6780TIP3    H241976   1.275   0.095   0.876 -0.6396 -1.1381  0.3612
 6781TIP3   OH241977   5.960   0.069   1.081 -0.0205 -0.0746  0.0732
 6781TIP3    H141978   5.973  -0.008   1.136  0.3782 -0.3604 -0.4222
 6781TIP3    H241979   6.015   0.054   1.005 -2.1663 -0.6551 -1.3994
 6782TIP3   OH241980   6.578   6.091   0.907  0.1431 -0.0526  0.4146
 6782TIP3    H141981   6.533   6.154   0.962  0.3811  2.1905 -1.8930
 6782TIP3    H241982   6.510   6.053   0.852 -0.0331 -2.0180  1.9113
 6783TIP3   OH241983   6.216   5.188   8.083  0.5429  0.0290 -0.3653
 6783TIP3    H141984   6.224   5.277   8.119 -0.0572 -0.0045 -0.1434
 6783TIP3    H241985   6.228   5.199   7.989  1.6528  0.1847 -0.2086
 6784TIP3   OH241986   0.520   7.079   0.812  0.3471  0.2718  0.0947
 6784TIP3    H141987   0.607   7.041   0.799  1.6695  3.1746  0.0898
 6784TIP3    H241988   0.490   7.043   0.895  2.3590  0.6343  0.9977
 6785TIP3   OH241989   4.905   6.092   1.515 -0.5676  0.5249  0.2133
 6785TIP3    H141990   4.883   6.176   1.556  0.9501  0.2628  1.5948
 6785TIP3    H241991   4.846   6.029   1.555 -0.0879  0.5243  0.9241
 6786TIP3   OH241992   6.414   5.892   1.821  0.2416 -0.2337 -0.1521
 6786TIP3    H141993   6.464   5.926   1.747 -0.9038  0.3221 -0.6911
 6786TIP3    H241994   6.337   5.851   1.781 -0.1507 -0.3401  0.7015
 6787TIP3   OH241995   7.016   0.094   1.877  0.8486 -0.5403  0.0105
 6787TIP3    H141996   7.093   0.044   1.902  0.3524 -0.0177  2.7862
 6787TIP3    H241997   6.942   0.039   1.903  0.2995  1.2826  2.5774
 6788TIP3   OH241998   0.599   7.228   0.199  0.3114 -0.4749 -0.6833
 6788TIP3    H141999   0.680   7.194   0.159  0.2191 -1.7639  0.2152
 6788TIP3    H242000   0.629   7.277   0.276  0.5563  2.6966 -2.6842
 6789TIP3   OH242001   5.625   0.029   2.086 -0.7946  0.1209  0.3189
 6789TIP3    H142002   5.704   0.061   2.130 -0.8589  2.8368 -1.3985
 6789TIP3    H242003   5.589  -0.036   2.146  1.9221 -0.0752  1.8274
 6790TIP3   OH242004   5.420   4.117   2.024  0.3594 -0.2266  0.2606
 6790TIP3    H142005   5.359   4.181   2.060 -0.2468 -1.8491  2.1856
 6790TIP3    H242006   5.370   4.072   1.956  0.9040  1.5476 -1.3643
 6791TIP3   OH242007   6.236   6.402   2.041 -0.5719  0.2210  0.1424
 6791TIP3    H142008   6.155   6.417   2.090 -1.5167 -2.4320 -0.5054
 6791TIP3    H242009   6.212   6.340   1.973  1.6178  0.8143 -1.2349
 6792TIP3   OH242010   3.980   0.511   0.917 -0.4607 -0.3614  0.6827
 6792TIP3    H142011   3.926   0.433   0.925  1.5118 -2.0323 -1.6265
 6792TIP3    H242012   3.921   0.578   0.883 -1.1425 -2.1664 -1.8299
 6793TIP3   OH242013   5.162   0.604   2.422 -0.1110  0.2349  0.0257
 6793TIP3    H142014   5.068   0.589   2.418  0.1258 -2.1855  2.1332
 6793TIP3    H242015   5.172   0.699   2.417 -2.6099  0.4858 -0.7460
 6794TIP3   OH242016   0.253   4.812   0.678 -0.5406 -0.6589  0.0218
 6794TIP3    H142017   0.240   4.877   0.748  2.5678 -1.1814  1.2149
 6794TIP3    H242018   0.165   4.787   0.651 -1.8214  0.5595  2.8403
 6795TIP3   OH242019   3.649   5.481   8.318 -0.0574 -0.4831 -0.2980
 6795TIP3    H142020   3.729   5.481   8.371  1.2490  1.3637 -2.1737
 6795TIP3    H242021   3.639   5.390   8.291  1.8432 -0.6278 -0.6324
 6796TIP3   OH242022   0.637   7.191   1.139 -0.3930  0.1535 -0.7340
 6796TIP3    H142023   0.572   7.221   1.203  1.7254 -0.1594  1.6264
 6796TIP3    H242024   0.665   7.106   1.171  0.8182  0.0702 -1.9896
 6797TIP3   OH242025   6.010   6.170   0.931  0.0941  0.1943 -0.1690
 6797TIP3    H142026   6.063   6.250   0.930 -0.7184  0.7594  1.0778
 6797TIP3    H242027   5.975   6.163   0.842  2.3715 -0.2767 -1.0769
 6798TIP3   OH242028   6.096   6.418   1.554  0.2063  0.1410  0.2196
 6798TIP3    H142029   6.159   6.480   1.518 -2.3155  1.7668 -1.5100
 6798TIP3    H242030   6.049   6.385   1.478 -0.0535 -2.1813  1.3595
 6799TIP3   OH242031   5.761   5.987   1.450 -0.7873  0.5425 -0.3549
 6799TIP3    H142032   5.853   5.963   1.437 -0.9643 -1.1541  1.2391
 6799TIP3    H242033   5.713   5.923   1.398 -1.0749  1.7487 -1.6001
 6800TIP3   OH242034   7.020   5.805   8.240  0.1577  0.1625  0.0016
 6800TIP3    H142035   7.043   5.833   8.329  0.2010 -0.0312  0.0503
 6800TIP3    H242036   7.096   5.757   8.209 -0.6413 -1.5345  0.6127
 6801TIP3   OH242037   7.092   6.297   2.227 -0.0851  0.0199  0.0275
 6801TIP3    H142038   7.037   6.231   2.185 -0.5102 -0.6029  1.5125
 6801TIP3    H242039   7.037   6.334   2.296 -0.1464  2.5526 -1.3356
 6802TIP3   OH242040   7.062   5.175   0.363 -0.0542 -0.2237 -0.4526
 6802TIP3    H142041   7.070   5.082   0.384 -0.4856 -0.8236 -2.7035
 6802TIP3    H242042   6.974   5.199   0.392 -0.1253 -0.6534 -0.3162
 6803TIP3   OH242043   5.039   6.977   1.627 -0.3389 -0.3370 -0.2069
 6803TIP3    H142044   5.005   6.923   1.698  2.6014 -2.3869 -0.2834
 6803TIP3    H242045   4.979   6.960   1.554 -2.4729  0.6022  1.2565
 6804TIP3   OH242046   1.460   5.972   1.038  0.4679  0.1910  0.2017
 6804TIP3    H142047   1.546   5.930   1.049  1.5728  1.6981 -2.2460
 6804TIP3    H242048   1.423   5.932   0.960 -0.4200  0.6230  0.3940
 6805TIP3   OH242049   0.562   6.725   6.090  1.1904 -0.0734 -0.5318
 6805TIP3    H142050   0.486   6.716   6.032  0.9483  1.0209 -0.3877
 6805TIP3    H242051   0.584   6.635   6.114 -1.4328 -0.3091  1.1794
 6806TIP3   OH242052   6.988   6.381   1.684  0.1319 -0.0259  0.0263
 6806TIP3    H142053   6.934   6.411   1.756  0.5229 -1.2505  0.8479
 6806TIP3    H242054   6.946   6.300   1.655 -0.4429  0.8371 -1.6092
 6807TIP3   OH242055   6.419   6.525   2.405  0.5123  0.3640  0.2141
 6807TIP3    H142056   6.360   6.516   2.479  0.0405 -0.8573 -0.2912
 6807TIP3    H242057   6.362   6.530   2.328  0.9630  2.4610 -0.0289
 6808TIP3   OH242058   5.745   6.313   8.357  0.0211  0.1960 -0.0916
 6808TIP3    H142059   5.836   6.309   8.326 -0.0552 -1.4754 -0.1501
 6808TIP3    H242060   5.742   6.390   8.413  1.1606  0.9856 -1.0866
 6809TIP3   OH242061   6.235   5.732   1.720 -0.2725  0.0265 -0.5821
 6809TIP3    H142062   6.216   5.680   1.798 -1.4839  0.9781 -0.2404
 6809TIP3    H242063   6.166   5.709   1.659  0.1106  0.0385 -1.0228
 6810TIP3   OH242064   7.246   6.063   8.366  0.2289  0.0580 -0.0769
 6810TIP3    H142065   7.246   5.984   8.420 -1.0307 -1.0471 -1.6485
 6810TIP3    H242066   7.166   6.109   8.393  0.5986  0.4576  0.3449
 6811TIP3   OH242067   6.541   6.387   1.324  0.0922 -0.1280 -0.2357
 6811TIP3    H142068   6.616   6.329   1.308  1.1081  1.4589 -1.3662
 6811TIP3    H242069   6.522   6.377   1.417  1.8747 -0.3734  0.1164
 6812TIP3   OH242070   5.775   0.278   1.065  0.6336  0.4071  0.3878
 6812TIP3    H142071   5.788   0.337   1.139  2.4493 -1.8183  1.9346
 6812TIP3    H242072   5.838   0.207   1.080  0.5317 -0.4511 -2.9325
 6813TIP3   OH242073   5.913   6.021   0.490  0.6069  0.6772  0.4564
 6813TIP3    H142074   5.976   6.008   0.419 -0.9120  0.2467 -0.8599
 6813TIP3    H242075   5.890   5.932   0.518  0.3763  0.8209  0.7247
 6814TIP3   OH242076   1.850   6.426   8.313  0.3923 -0.4769  0.0538
 6814TIP3    H142077   1.863   6.362   8.383  2.0050  0.5628  0.7401
 6814TIP3    H242078   1.758   6.449   8.319  0.2355 -1.3133  1.0419
 6815TIP3   OH242079   6.153   0.231   0.566 -0.1188  0.0742  0.0062
 6815TIP3    H142080   6.169   0.140   0.591  0.2094  0.4235  1.0752
 6815TIP3    H242081   6.208   0.283   0.624  0.3562  0.9292 -1.1721
 6816TIP3   OH242082   3.361   5.665   0.744  0.2322  0.1508  0.5004
 6816TIP3    H142083   3.327   5.662   0.655 -0.3545  5.7563  0.3512
 6816TIP3    H242084   3.291   5.627   0.798 -1.6576  1.5637 -0.9183
 6817TIP3   OH242085   7.220   6.209   7.874 -0.2402 -0.9126  0.1291
 6817TIP3    H142086   7.315   6.204   7.866 -0.1664 -0.3726  0.6295
 6817TIP3    H242087   7.197   6.293   7.833 -0.8297 -2.4379 -2.8130
 6818TIP3   OH242088   6.954   4.510   1.243  0.1234 -0.1955 -0.0378
 6818TIP3    H142089   6.870   4.502   1.287 -0.9552 -2.0318 -2.3388
 6818TIP3    H242090   7.010   4.444   1.284 -0.1081 -0.1936  0.2764
 6819TIP3   OH242091   6.318   6.689   2.114 -0.0430 -0.4745  0.6351
 6819TIP3    H142092   6.268   6.613   2.084  1.3510 -1.0047 -0.3779
 6819TIP3    H242093   6.259   6.763   2.100 -0.8927 -1.1991  0.3159
 6820TIP3   OH242094   6.018   7.247   8.318  0.0390  0.0410  0.1698
 6820TIP3    H142095   6.040   7.272   8.408 -0.3863 -0.4806  0.4252
 6820TIP3    H242096   6.021   7.151   8.319 -0.9167  0.0010 -0.1188
 6821TIP3   OH242097   0.258   6.589   2.494  0.1158 -0.2824  0.5355
 6821TIP3    H142098   0.163   6.594   2.494  0.1253 -0.0885  0.0988
 6821TIP3    H242099   0.286   6.669   2.450  0.5724  1.4828  3.8525
 6822TIP3   OH242100   6.717   7.001   2.096  0.1704  0.8362  0.3550
 6822TIP3    H142101   6.666   6.962   2.026 -0.0211 -2.0206  2.0049
 6822TIP3    H242102   6.756   7.079   2.057 -1.7126  0.5328 -2.2476
 6823TIP3   OH242103   6.987   4.759   7.148 -0.0304 -0.6067  0.4812
 6823TIP3    H142104   6.934   4.690   7.109 -0.0599  0.7143 -1.8951
 6823TIP3    H242105   6.924   4.817   7.190 -0.5729  1.3320 -2.9277
 6824TIP3   OH242106   5.579   6.832   2.254 -0.0031  0.2335  0.5456
 6824TIP3    H142107   5.510   6.840   2.319  0.5078 -2.8890  1.5673
 6824TIP3    H242108   5.636   6.763   2.288  0.7228 -0.9066 -2.7968
 6825TIP3   OH242109   5.991   6.342   7.685 -0.5903 -0.0563 -0.1645
 6825TIP3    H142110   6.009   6.435   7.674 -2.1394  0.0629 -1.9936
 6825TIP3    H242111   6.072   6.298   7.660 -0.0744  0.7696  0.0538
 6826TIP3   OH242112   0.265   7.229   1.034  0.2916 -0.3303 -0.3644
 6826TIP3    H142113   0.232   7.259   0.949 -1.8247 -0.2367  0.4606
 6826TIP3    H242114   0.360   7.240   1.028  0.1310  0.0594 -2.5645
 6827TIP3   OH242115   6.887   6.177   7.634 -0.0356 -0.1397  0.5273
 6827TIP3    H142116   6.826   6.230   7.684  0.3241  0.1197  0.6928
 6827TIP3    H242117   6.938   6.240   7.583 -0.3840 -0.4028 -0.1411
 6828TIP3   OH242118   5.512   6.028   1.019 -0.1782  0.1744  0.3400
 6828TIP3    H142119   5.594   6.024   0.970  0.0198 -0.1520  0.6986
 6828TIP3    H242120   5.538   6.055   1.107 -0.2973 -1.2237  0.8179
 6829TIP3   OH242121   5.466   0.676   0.282  0.1613  0.3464  0.0142
 6829TIP3    H142122   5.484   0.732   0.207  0.3928 -0.7227 -0.7401
 6829TIP3    H242123   5.532   0.607   0.277  0.7668  0.7469  1.7246
 6830TIP3   OH242124   4.717   5.733   1.981  0.2318  0.0062 -0.5458
 6830TIP3    H142125   4.718   5.677   1.903  2.4962 -1.3606  0.4427
 6830TIP3    H242126   4.799   5.715   2.025 -0.8847  0.9950  2.0366
 6831TIP3   OH242127   5.405   0.127   1.227 -0.0245  0.2822 -0.0070
 6831TIP3    H142128   5.479   0.181   1.200 -0.0017 -0.0393 -0.5817
 6831TIP3    H242129   5.337   0.144   1.162 -0.5002  0.6665  0.5867
 6832TIP3   OH242130   4.911   6.809   1.765 -0.4178 -0.7288  0.4378
 6832TIP3    H142131   4.853   6.852   1.828 -0.1787  1.7470 -0.9765
 6832TIP3    H242132   4.853   6.773   1.699 -0.4210  1.3021 -0.7057
 6833TIP3   OH242133   6.934   5.696   1.671  0.0752  0.3703 -0.2118
 6833TIP3    H142134   6.953   5.774   1.618 -0.4305  0.2322 -0.6014
 6833TIP3    H242135   6.926   5.625   1.608 -0.8274  0.2576  0.0247
 6834TIP3   OH242136   6.915   0.367   0.818 -0.2076  0.0407  0.1442
 6834TIP3    H142137   6.840   0.368   0.878 -0.4142  0.3212 -0.1178
 6834TIP3    H242138   6.912   0.279   0.779  0.8909 -0.7344  1.7399
 6835TIP3   OH242139   1.615   5.381   0.837  0.1772  0.2549  0.1906
 6835TIP3    H142140   1.675   5.455   0.839  0.1420  0.3263 -1.0326
 6835TIP3    H242141   1.536   5.414   0.880 -0.2508  1.3045 -1.3594
 6836TIP3   OH242142   5.873   5.729   0.555  0.2157 -0.5445 -0.4330
 6836TIP3    H142143   5.848   5.636   0.551  1.7578 -0.9284 -1.7182
 6836TIP3    H242144   5.957   5.729   0.601 -0.6137  0.4104  1.1106
 6837TIP3   OH242145   0.121   4.945   0.867  0.1709 -0.3369  0.0198
 6837TIP3    H142146   0.071   4.889   0.926 -0.3809 -1.6889 -1.6806
 6837TIP3    H242147   0.057   5.008   0.834  0.5033  0.4877  0.9378
 6838TIP3   OH242148   3.998   6.718   0.017 -0.2221 -0.8368  0.0757
 6838TIP3    H142149   3.982   6.811   0.004  1.1680 -0.4621  0.8306
 6838TIP3    H242150   3.912   6.677   0.012 -0.8357  0.4795 -0.3378
 6839TIP3   OH242151   7.147   5.430   8.265  0.4058 -0.4940  0.4851
 6839TIP3    H142152   7.160   5.515   8.224  0.5792  0.2593  2.0650
 6839TIP3    H242153   7.107   5.376   8.197  1.5650  0.4471 -0.9507
 6840TIP3   OH242154   5.705   6.683   0.813  0.4775 -0.0836 -0.1991
 6840TIP3    H142155   5.754   6.761   0.784 -1.3060  1.6285  1.2464
 6840TIP3    H242156   5.733   6.670   0.903  1.3264 -1.5967 -0.6743
 6841TIP3   OH242157   4.814   0.703   0.802  0.2218 -0.1519  0.7435
 6841TIP3    H142158   4.753   0.646   0.849  0.3411 -1.3640 -0.5421
 6841TIP3    H242159   4.834   0.655   0.721  2.6573  0.3550  1.0113
 6842TIP3   OH242160   1.105   0.508   0.660  0.0765  0.5738  0.0498
 6842TIP3    H142161   1.012   0.526   0.673  0.4084  1.6892  0.9089
 6842TIP3    H242162   1.106   0.432   0.602 -1.3788  1.4108 -1.1489
 6843TIP3   OH242163   5.702   5.150   0.455  0.0243 -0.0891  0.2666
 6843TIP3    H142164   5.793   5.153   0.487  0.4258 -2.6886 -0.5166
 6843TIP3    H242165   5.709   5.169   0.362 -0.1958 -0.5717  0.1511
 6844TIP3   OH242166   5.108   0.365   1.425  0.0469 -0.3053  0.4783
 6844TIP3    H142167   5.071   0.277   1.422  0.4623 -0.4954  1.0013
 6844TIP3    H242168   5.166   0.370   1.349 -1.4610  0.1790 -0.6669
 6845TIP3   OH242169   4.084   4.393   0.981 -0.1963 -0.6282  0.3167
 6845TIP3    H142170   4.092   4.299   0.993 -0.4912 -0.6644  0.2067
 6845TIP3    H242171   4.139   4.413   0.905  0.8092 -0.5456  1.0442
 6846TIP3   OH242172   1.147   6.649   8.168 -0.4588  0.4913 -0.3551
 6846TIP3    H142173   1.209   6.651   8.095 -0.2182  1.1970 -0.1354
 6846TIP3    H242174   1.172   6.572   8.219  0.2226  0.7604 -0.2780
 6847TIP3   OH242175   6.264   7.215   1.971  0.5305  0.0913 -0.3642
 6847TIP3    H142176   6.273   7.309   1.986  0.2774  0.3963 -2.0877
 6847TIP3    H242177   6.286   7.175   2.056  0.0744  1.7157  0.5355
 6848TIP3   OH242178   0.665   0.433   0.790  0.2658  0.4758  0.1080
 6848TIP3    H142179   0.612   0.432   0.870  0.2239  0.5574  0.0813
 6848TIP3    H242180   0.602   0.450   0.720  0.4061  1.1174  0.1341
 6849TIP3   OH242181   5.520   0.634   8.130 -0.5803 -0.5243  0.6694
 6849TIP3    H142182   5.485   0.723   8.122  0.1814 -0.1471  1.4689
 6849TIP3    H242183   5.468   0.582   8.068 -0.8105  0.5392 -0.0411
 6850TIP3   OH242184   5.709   6.672   7.417  0.2176 -0.1850  0.3851
 6850TIP3    H142185   5.749   6.601   7.365  1.2349 -0.8616  2.0612
 6850TIP3    H242186   5.739   6.752   7.374  2.7495 -0.6932  1.1197
 6851TIP3   OH242187   0.794   5.616   7.637 -1.0269  0.3007 -0.2751
 6851TIP3    H142188   0.757   5.688   7.585 -1.2644  1.0179  0.8888
 6851TIP3    H242189   0.888   5.635   7.641 -1.5186  2.3778  2.8373
 6852TIP3   OH242190   5.599   1.544   8.015 -0.1449  0.0448  0.4631
 6852TIP3    H142191   5.528   1.579   8.069 -1.6391 -1.2322 -0.6056
 6852TIP3    H242192   5.641   1.478   8.071 -2.2489 -1.9094 -0.1634
 6853TIP3   OH242193   6.638   5.806   7.368 -0.4179 -0.2387 -0.2883
 6853TIP3    H142194   6.653   5.901   7.366 -3.4977  0.2832 -1.9272
 6853TIP3    H242195   6.687   5.772   7.292  2.5179 -0.3236  1.5739
 6854TIP3   OH242196   6.401   5.217   2.000 -0.1110  0.1111  0.6820
 6854TIP3    H142197   6.409   5.309   2.026  1.1039  0.5133 -1.0419
 6854TIP3    H242198   6.481   5.199   1.951 -1.2178 -1.3114 -0.6495
 6855TIP3   OH242199   4.701   5.833   1.019 -0.2083 -0.2255  0.3721
 6855TIP3    H142200   4.634   5.765   1.028 -1.3277  0.9573  1.2469
 6855TIP3    H242201   4.719   5.861   1.108  3.2305 -2.1594  0.3413
 6856TIP3   OH242202   2.930   6.959   0.455 -0.1171  0.3308 -0.4586
 6856TIP3    H142203   2.877   6.999   0.523 -0.6639 -0.4660 -0.4100
 6856TIP3    H242204   2.929   7.022   0.383 -2.3036 -0.2752 -1.0024
 6857TIP3   OH242205   6.801   5.773   0.911  0.1810  0.1776 -0.0343
 6857TIP3    H142206   6.855   5.713   0.859 -1.0629 -1.1384  0.1589
 6857TIP3    H242207   6.720   5.781   0.862  0.0318  1.0891  0.3503
 6858TIP3   OH242208   6.522   7.107   2.524  0.1555  0.0501 -0.1649
 6858TIP3    H142209   6.563   7.037   2.474  1.1511 -0.4755  1.3475
 6858TIP3    H242210   6.431   7.077   2.537 -0.2338  0.4002 -2.0021
 6859TIP3   OH242211   6.874   5.911   0.195 -0.0886  0.5590  0.1932
 6859TIP3    H142212   6.909   5.998   0.216  0.0880  0.4558  0.3244
 6859TIP3    H242213   6.791   5.907   0.243 -0.1234  0.6739  0.1449
 6860TIP3   OH242214   4.518   6.969   0.157  0.0581 -0.2175 -0.6521
 6860TIP3    H142215   4.493   6.923   0.237 -1.8989  0.4787 -0.8235
 6860TIP3    H242216   4.472   6.923   0.087 -1.3189  1.4743 -0.9061
 6861TIP3   OH242217   4.392   6.901   0.387 -0.0708  0.2065  0.3413
 6861TIP3    H142218   4.360   6.861   0.468  0.7001 -1.3593 -0.1059
 6861TIP3    H242219   4.361   6.991   0.391  0.6979  0.3938  2.7876
 6862TIP3   OH242220   6.209   4.672   7.335 -0.0298  0.0734 -0.3573
 6862TIP3    H142221   6.197   4.699   7.426 -0.3411 -1.2062 -0.0135
 6862TIP3    H242222   6.287   4.618   7.336  0.5805  0.9228 -1.0452
 6863TIP3   OH242223   5.100   0.230   7.995  0.6117  0.3437  0.4173
 6863TIP3    H142224   5.006   0.230   8.011  0.5147  1.3322 -0.1527
 6863TIP3    H242225   5.136   0.182   8.070 -0.3867 -0.6402  0.2960
 6864TIP3   OH242226   0.260   6.920   0.111  0.0918 -0.6572  0.1139
 6864TIP3    H142227   0.310   6.998   0.134  1.1850 -0.4046 -2.9241
 6864TIP3    H242228   0.299   6.850   0.164  1.0446  0.2785  0.6593
 6865TIP3   OH242229   6.133   0.306   2.194 -0.0859  0.0320  0.3108
 6865TIP3    H142230   6.193   0.289   2.267  0.3786  1.5887  0.3235
 6865TIP3    H242231   6.171   0.260   2.120  1.1971  1.0880  0.2962
 6866TIP3   OH242232   5.094   1.001   0.631 -0.0200 -0.3933  0.1085
 6866TIP3    H142233   5.149   0.930   0.664 -0.9454 -1.3155 -0.3063
 6866TIP3    H242234   5.134   1.025   0.546  0.2404 -0.4616  0.2102
 6867TIP3   OH242235   5.947   7.326   1.816 -0.3540 -0.4677  0.4459
 6867TIP3    H142236   5.905   7.411   1.804 -0.5484 -0.6253 -0.0009
 6867TIP3    H242237   5.956   7.317   1.911 -0.1110  0.1562  0.4850
 6868TIP3   OH242238   4.193   5.781   2.310  0.3033 -0.4389 -0.2701
 6868TIP3    H142239   4.151   5.777   2.223 -1.2380  3.2175  0.2311
 6868TIP3    H242240   4.258   5.850   2.302  0.2875 -0.2137  1.4394
 6869TIP3   OH242241   7.281   6.235   1.367  0.8955 -0.2662  0.0841
 6869TIP3    H142242   7.213   6.239   1.299  0.0231 -3.9647  0.6668
 6869TIP3    H242243   7.362   6.221   1.318  0.5814 -0.6888 -0.3228
 6870TIP3   OH242244   6.140   5.672   0.365 -0.3155 -0.6966 -0.0788
 6870TIP3    H142245   6.207   5.651   0.430  1.0329 -0.5023 -1.3820
 6870TIP3    H242246   6.107   5.587   0.337  1.0523 -0.8855 -1.1419
 6871TIP3   OH242247   6.541   6.271   7.538 -0.2982 -0.1005  0.8259
 6871TIP3    H142248   6.597   6.293   7.612  0.5406  0.8222 -0.0763
 6871TIP3    H242249   6.600   6.272   7.462 -2.0251  3.6969 -0.5896
 6872TIP3   OH242250   6.394   5.901   2.710  0.2530 -0.2176  0.3286
 6872TIP3    H142251   6.381   5.838   2.781 -1.5471  0.4095  0.5715
 6872TIP3    H242252   6.447   5.854   2.646 -1.3056 -2.0978  0.3771
 6873TIP3   OH242253   6.782   5.753   7.580  0.2529  0.4657 -0.2226
 6873TIP3    H142254   6.703   5.753   7.525 -0.5616 -0.5331  0.9126
 6873TIP3    H242255   6.854   5.764   7.518 -0.6261 -0.9230 -1.5507
 6874TIP3   OH242256   5.851   6.265   1.890  0.1902 -0.4651 -0.1546
 6874TIP3    H142257   5.872   6.242   1.980  0.1057  0.5312  0.1250
 6874TIP3    H242258   5.936   6.278   1.848  0.2008  1.4289  0.4118
 6875TIP3   OH242259   6.204   5.990   2.543  0.3012  0.4639 -0.3228
 6875TIP3    H142260   6.265   6.017   2.474  0.8272 -0.2893 -0.1673
 6875TIP3    H242261   6.261   5.948   2.608 -0.6171 -1.9924 -1.0641
 6876TIP3   OH242262   6.101   6.340   1.825  0.2035  0.1308  0.4786
 6876TIP3    H142263   6.121   6.432   1.839 -0.1895  0.0630  1.4723
 6876TIP3    H242264   6.096   6.331   1.729  2.2042  0.7112  0.2934
 6877TIP3   OH242265   6.425   5.223   8.297  0.1127 -0.1398  0.3840
 6877TIP3    H142266   6.402   5.202   8.206  0.3182 -0.6897  0.4556
 6877TIP3    H242267   6.386   5.309   8.312  0.4291  0.1400 -0.3580
 6878TIP3   OH242268   0.865   1.028   1.743 -0.0401  0.0953 -0.7676
 6878TIP3    H142269   0.807   1.036   1.668  0.5927  0.1931 -1.2512
 6878TIP3    H242270   0.828   1.087   1.809  0.5981  1.6314 -1.7561
 6879TIP3   OH242271   0.431   6.120   1.735  0.5213 -0.2811 -0.2291
 6879TIP3    H142272   0.442   6.036   1.779  0.6735 -0.2341 -0.1775
 6879TIP3    H242273   0.337   6.127   1.721  0.5260 -0.5494 -0.4074
 6880TIP3   OH242274   4.908   5.529   0.729 -0.4896 -0.5460  0.4516
 6880TIP3    H142275   4.869   5.447   0.700 -0.0072 -0.4264 -0.5540
 6880TIP3    H242276   4.866   5.547   0.813 -0.7831 -1.6890  0.5582
 6881TIP3   OH242277   4.822   5.136   2.126  0.8095 -0.1943 -0.5698
 6881TIP3    H142278   4.769   5.206   2.164  2.3361  0.7136 -0.0822
 6881TIP3    H242279   4.842   5.078   2.200  1.5814  0.1674 -0.4877
 6882TIP3   OH242280   6.462   6.823   0.241 -0.0227  0.0442  0.1234
 6882TIP3    H142281   6.492   6.769   0.314 -0.5898 -0.8531 -0.3043
 6882TIP3    H242282   6.432   6.761   0.175  1.5856  0.7998 -1.3767
 6883TIP3   OH242283   0.005   6.330   2.310  0.0393 -0.5083  0.4568
 6883TIP3    H142284  -0.005   6.409   2.364  0.0190  0.5096 -0.9998
 6883TIP3    H242285  -0.082   6.292   2.308  0.1460 -0.8438  1.5544
 6884TIP3   OH242286   2.108   0.085   1.694  0.0513 -0.1953  0.1976
 6884TIP3    H142287   2.109   0.167   1.745  1.8706 -0.0863  0.0411
 6884TIP3    H242288   2.031   0.038   1.726 -2.3255  2.5258 -1.2741
 6885TIP3   OH242289   5.488   0.079   0.512  0.0575  0.4466 -0.5079
 6885TIP3    H142290   5.518   0.067   0.603 -0.1382  0.8335 -0.3897
 6885TIP3    H242291   5.434   0.158   0.516 -1.6118 -0.6766 -0.5661
 6886TIP3   OH242292   4.638   6.755   1.077 -0.5536 -0.2998  0.0316
 6886TIP3    H142293   4.576   6.682   1.080  1.7113 -2.3555 -1.1127
 6886TIP3    H242294   4.688   6.740   0.997  0.4588  2.1269  0.1699
 6887TIP3   OH242295   6.813   6.692   2.125 -0.2844 -0.1494 -0.3624
 6887TIP3    H142296   6.730   6.672   2.168 -1.4090  2.0723 -1.3681
 6887TIP3    H242297   6.858   6.750   2.186  0.4963 -1.3191  0.1629
 6888TIP3   OH242298   2.706   6.903   0.894 -0.1502 -0.5647 -0.2052
 6888TIP3    H142299   2.625   6.935   0.856 -0.4626  1.1054  1.7917
 6888TIP3    H242300   2.682   6.820   0.935 -0.6484 -0.5180 -0.3988
 6889TIP3   OH242301   0.646   7.036   1.976 -0.2455  0.0086  0.1435
 6889TIP3    H142302   0.570   6.978   1.979 -1.0507  0.9378 -1.5408
 6889TIP3    H242303   0.636   7.092   2.053 -1.1773 -0.0003  0.0350
 6890TIP3   OH242304   1.440   4.936   0.767  0.1564 -0.1830 -0.3115
 6890TIP3    H142305   1.496   5.004   0.806  0.9769 -0.1919 -1.4497
 6890TIP3    H242306   1.501   4.871   0.733 -0.6065 -0.9892 -0.1642
 6891TIP3   OH242307   0.058   5.731   6.640  0.4927 -0.1363 -0.1100
 6891TIP3    H142308  -0.023   5.681   6.639  0.0312  0.5622  1.3213
 6891TIP3    H242309   0.104   5.703   6.561 -0.9839 -0.7730 -0.7649
 6892TIP3   OH242310   6.794   6.051   8.353  0.1477 -0.0206 -0.5737
 6892TIP3    H142311   6.706   6.015   8.365  0.2605 -0.5239 -1.2440
 6892TIP3    H242312   6.821   6.022   8.266  1.2021 -0.3342 -0.1493
 6893TIP3   OH242313   4.681   6.491   1.353  0.5610  0.4326 -0.5195
 6893TIP3    H142314   4.629   6.430   1.301  1.6879 -0.6210 -0.4291
 6893TIP3    H242315   4.635   6.575   1.345 -0.9223 -0.3822 -0.7599
 6894TIP3   OH242316   1.038   6.734   1.960  0.3813 -0.3928 -0.1614
 6894TIP3    H142317   0.988   6.740   2.041  0.2842  0.4626 -0.2807
 6894TIP3    H242318   0.974   6.754   1.891  1.2553  2.4506 -0.2069
 6895TIP3   OH242319   7.108   0.031   8.446 -0.4354  0.4822 -0.1374
 6895TIP3    H142320   7.093  -0.026   8.370  0.6853  0.5775 -0.4320
 6895TIP3    H242321   7.046  -0.001   8.511 -1.7847  0.7415 -1.2693
 6896TIP3   OH242322   5.524   6.786   1.041  0.5308 -0.1595 -0.5649
 6896TIP3    H142323   5.579   6.850   1.085 -0.4587  0.0113  0.4476
 6896TIP3    H242324   5.554   6.701   1.075  0.3463 -0.0835 -0.2100
 6897TIP3   OH242325   6.319   6.376   0.184  0.5408 -0.2585 -0.2252
 6897TIP3    H142326   6.223   6.365   0.182  0.4222  0.6253  0.3091
 6897TIP3    H242327   6.342   6.370   0.277  0.8944  0.4255 -0.2667
 6898TIP3   OH242328   0.595   7.088   0.514 -0.3723 -0.0890  0.4860
 6898TIP3    H142329   0.648   7.160   0.479 -1.8456  1.3056  1.0922
 6898TIP3    H242330   0.633   7.070   0.600  0.2207 -0.3044  0.1877
 6899TIP3   OH242331   4.837   4.463   1.286  0.0452 -0.0688  0.0752
 6899TIP3    H142332   4.916   4.515   1.278 -0.1916  0.4243  0.9076
 6899TIP3    H242333   4.816   4.437   1.196 -0.1494  1.7270 -0.4189
 6900TIP3   OH242334   0.777   6.978   0.789 -0.2106 -0.6561  0.3469
 6900TIP3    H142335   0.852   6.925   0.761  1.0567  1.2629  0.0100
 6900TIP3    H242336   0.806   7.020   0.870 -0.2812  1.3731 -0.6341
 6901TIP3   OH242337   0.196   5.699   7.616 -0.4982 -0.0185 -0.1049
 6901TIP3    H142338   0.252   5.760   7.664 -1.4695 -0.6234  1.8328
 6901TIP3    H242339   0.188   5.623   7.673 -1.8279 -0.6894 -1.1494
 6902TIP3   OH242340   4.842   2.228   1.608 -0.7341  0.2590 -0.2441
 6902TIP3    H142341   4.920   2.284   1.611 -0.3836 -0.2082 -0.4996
 6902TIP3    H242342   4.850   2.173   1.685 -2.0769  1.8656  1.0698
 6903TIP3   OH242343   4.119   7.108   7.393 -0.1548 -0.1648  0.3317
 6903TIP3    H142344   4.206   7.148   7.388  0.0355 -0.5210  0.7982
 6903TIP3    H242345   4.108   7.063   7.309 -0.6962  1.5247 -0.5380
 6904TIP3   OH242346   5.087   5.536   7.848 -0.3047 -0.6053 -0.8473
 6904TIP3    H142347   5.165   5.562   7.800  0.3604  0.1594  0.6020
 6904TIP3    H242348   5.035   5.485   7.786  2.1772 -2.6350 -1.3250
 6905TIP3   OH242349   5.469   7.164   2.279  0.4378 -0.4066  0.2343
 6905TIP3    H142350   5.428   7.082   2.306 -0.9200  0.3885  0.7114
 6905TIP3    H242351   5.535   7.181   2.346 -0.1877 -0.4522  0.8705
 6906TIP3   OH242352   4.907   7.180   1.944  0.6398  0.6089 -0.1024
 6906TIP3    H142353   4.935   7.215   2.028 -1.0101  0.4781  0.5181
 6906TIP3    H242354   4.884   7.089   1.962  0.6552  0.4691 -0.7751
 6907TIP3   OH242355   4.409   0.086   0.343  0.3214  0.0007 -0.7780
 6907TIP3    H142356   4.446   0.047   0.264  2.3710 -3.4169  1.7445
 6907TIP3    H242357   4.484   0.106   0.397 -1.1219  0.9562  0.9202
 6908TIP3   OH242358   4.119   0.089   0.802  0.1244  0.4736 -0.5308
 6908TIP3    H142359   4.193   0.028   0.799  0.9258  1.2472  1.7833
 6908TIP3    H242360   4.105   0.115   0.711  0.2875 -2.5158 -1.4670
 6909TIP3   OH242361   6.598   6.689   0.889  0.2088 -0.1323 -0.4455
 6909TIP3    H142362   6.533   6.661   0.954 -0.3070  0.4749 -0.6981
 6909TIP3    H242363   6.673   6.719   0.941  0.0407 -0.2335 -0.1449
 6910TIP3   OH242364   6.077   4.715   1.497 -0.2077  0.1412  0.4940
 6910TIP3    H142365   5.996   4.762   1.518 -0.3989 -0.3531  0.8762
 6910TIP3    H242366   6.146   4.779   1.514 -0.4052  0.0042  1.9276
 6911TIP3   OH242367   5.600   6.681   0.554 -0.1772 -0.2245  0.3235
 6911TIP3    H142368   5.661   6.691   0.627  0.3865 -1.0858 -0.0182
 6911TIP3    H242369   5.538   6.753   0.564  2.4913  2.3238 -0.8812
 6912TIP3   OH242370   6.071   5.191   7.742 -0.5876  0.0650 -0.0178
 6912TIP3    H142371   6.072   5.286   7.757  0.0256 -0.0331  0.5649
 6912TIP3    H242372   6.087   5.182   7.648  2.2001  0.4488  0.3774
 6913TIP3   OH242373   5.701   5.623   8.008 -0.2671  0.1031  0.5688
 6913TIP3    H142374   5.730   5.701   8.055  4.1430 -1.4549  0.6844
 6913TIP3    H242375   5.754   5.622   7.928 -1.3079 -1.9732 -0.1296
 6914TIP3   OH242376   6.103   5.728   0.712 -0.0279 -0.3132 -0.2598
 6914TIP3    H142377   6.075   5.659   0.771 -3.0497 -0.9703 -2.3354
 6914TIP3    H242378   6.161   5.684   0.649 -0.4264 -0.5578 -0.4560
 6915TIP3   OH242379   6.838   6.175   0.806  0.2133  0.2064  0.2209
 6915TIP3    H142380   6.762   6.117   0.800 -0.9692  1.1872  4.0204
 6915TIP3    H242381   6.801   6.263   0.800  1.1191  0.6832  1.4913
 6916TIP3   OH242382   6.634   6.564   0.172  0.9864 -0.0288  0.4979
 6916TIP3    H142383   6.623   6.608   0.256 -0.3911  1.2858 -0.3436
 6916TIP3    H242384   6.628   6.634   0.107 -2.2045 -1.4950 -0.9363
 6917TIP3   OH242385   0.570   6.991   8.057 -0.3357 -0.0552 -0.4400
 6917TIP3    H142386   0.541   6.921   8.116  0.4202  0.1818  0.2170
 6917TIP3    H242387   0.647   6.955   8.012  0.4178  0.5640  0.3370
 6918TIP3   OH242388   6.144   5.675   0.086  0.6365  0.2791 -0.4817
 6918TIP3    H142389   6.128   5.669   0.180  2.3613  1.7969 -0.0473
 6918TIP3    H242390   6.101   5.756   0.060  1.2174  0.5085 -0.7431
 6919TIP3   OH242391   5.068   5.931   1.375  0.0540  0.1619  0.1669
 6919TIP3    H142392   5.067   5.850   1.427 -1.6673  0.2411  0.2855
 6919TIP3    H242393   5.000   5.985   1.415  0.4771  1.2469 -0.5853
 6920TIP3   OH242394   0.319   6.971   1.837 -1.0342 -0.2009  0.5001
 6920TIP3    H142395   0.309   7.060   1.803  1.2277 -0.0867  0.0936
 6920TIP3    H242396   0.308   6.915   1.761  0.2192 -0.1332  0.2671
 6921TIP3   OH242397   7.098   5.267   2.569  0.5957  0.0346  0.4333
 6921TIP3    H142398   7.109   5.353   2.610 -0.3507  0.2375  0.2825
 6921TIP3    H242399   7.105   5.205   2.642 -0.6163  0.3631  0.8371
 6922TIP3   OH242400   1.602   5.861   0.389  0.1430  0.1463  0.2432
 6922TIP3    H142401   1.583   5.779   0.433  1.1029 -0.1397  0.1301
 6922TIP3    H242402   1.537   5.865   0.318  0.7047 -0.9698 -0.3385
 6923TIP3   OH242403   7.300   0.452   2.248 -0.2792  0.0208 -0.2965
 6923TIP3    H142404   7.361   0.496   2.307 -0.6549  1.0850 -0.6833
 6923TIP3    H242405   7.343   0.454   2.163  0.4239 -1.8446  0.0145
 6924TIP3   OH242406   6.806   0.032   2.437 -0.0520 -0.1250 -0.2226
 6924TIP3    H142407   6.732   0.092   2.448  0.6864  0.9684 -1.0861
 6924TIP3    H242408   6.810  -0.016   2.520 -0.4947  1.2120  0.5887
 6925TIP3   OH242409   0.358   0.487   2.376 -0.0640 -0.0560 -0.0898
 6925TIP3    H142410   0.266   0.498   2.399 -0.7904 -1.4637 -2.1683
 6925TIP3    H242411   0.384   0.573   2.341 -0.1818  0.7416  1.7002
 6926TIP3   OH242412   0.868   1.438   2.326  0.9907  0.4978 -0.6126
 6926TIP3    H142413   0.843   1.408   2.413  2.2752 -1.4529 -0.8847
 6926TIP3    H242414   0.904   1.526   2.340 -1.9691  1.6165  0.3295
 6927TIP3   OH242415   0.018   0.836   2.468 -0.5007  0.0578 -0.2171
 6927TIP3    H142416  -0.017   0.881   2.391 -0.8045  0.5505  0.2039
 6927TIP3    H242417   0.112   0.855   2.466 -0.4184 -0.3924 -0.7709
 6928TIP3   OH242418   0.202   1.170   2.196 -0.8724  0.8280 -0.8294
 6928TIP3    H142419   0.249   1.194   2.276  0.9683  2.5511 -2.3740
 6928TIP3    H242420   0.186   1.076   2.204 -0.7014  0.9886  1.5419
 6929TIP3   OH242421   1.987   0.754   1.784  0.3994 -0.3725  0.1430
 6929TIP3    H142422   2.040   0.741   1.862  1.8084 -1.6640 -0.9928
 6929TIP3    H242423   1.947   0.669   1.767  0.2694 -0.1623 -0.6353
 6930TIP3   OH242424   0.659   0.799   1.857  0.3606 -0.6289 -0.4814
 6930TIP3    H142425   0.583   0.855   1.838  0.6534 -0.6852 -1.9319
 6930TIP3    H242426   0.706   0.795   1.773  3.2435  1.2970  0.9435
 6931TIP3   OH242427   1.023   3.041   1.851 -0.0005 -0.3488 -0.0572
 6931TIP3    H142428   1.083   3.091   1.907 -0.4293  0.0389  0.0585
 6931TIP3    H242429   0.935   3.071   1.877 -0.1526  1.2426 -2.2472
 6932TIP3   OH242430   2.519   0.663   1.684  0.3800 -0.0166  0.0670
 6932TIP3    H142431   2.568   0.581   1.676  1.2908  0.6102 -0.8464
 6932TIP3    H242432   2.427   0.635   1.685  0.7364 -1.1869  1.7565
 6933TIP3   OH242433   0.923   0.847   2.303 -0.3421 -1.0482 -0.4603
 6933TIP3    H142434   0.883   0.860   2.217 -2.4162 -0.6644  0.5216
 6933TIP3    H242435   1.003   0.899   2.301 -0.3460 -1.0802 -2.1667
 6934TIP3   OH242436   6.433   2.765   1.344  0.7754 -0.1410 -0.3649
 6934TIP3    H142437   6.430   2.776   1.439 -0.7520 -0.3918 -0.3760
 6934TIP3    H242438   6.498   2.695   1.331 -1.6648 -2.7376  0.7692
 6935TIP3   OH242439   2.053   7.241   1.379 -0.1110 -0.0077 -0.2892
 6935TIP3    H142440   1.975   7.199   1.415 -0.5596 -1.6283 -3.0562
 6935TIP3    H242441   2.020   7.320   1.336  0.3264  1.4739  1.9763
 6936TIP3   OH242442   6.538   0.289   2.298 -0.2962  0.2907 -0.1158
 6936TIP3    H142443   6.494   0.279   2.383 -0.0614 -0.0625 -0.0331
 6936TIP3    H242444   6.488   0.235   2.238 -2.3727  2.9855 -0.9334
 6937TIP3   OH242445   0.590   0.406   2.518 -1.0314  0.2587 -0.1069
 6937TIP3    H142446   0.586   0.358   2.601  1.0623 -1.5851 -1.0178
 6937TIP3    H242447   0.501   0.402   2.483 -0.8920 -3.1206 -0.2131
 6938TIP3   OH242448   4.298   7.203   0.825  0.0430  0.4496 -0.5171
 6938TIP3    H142449   4.346   7.249   0.756  0.2029 -2.2945 -2.3214
 6938TIP3    H242450   4.317   7.252   0.905  0.3345  3.3561 -2.3128
 6939TIP3   OH242451   3.641   1.808   2.012 -0.1395 -0.4295  0.4010
 6939TIP3    H142452   3.571   1.874   2.012  0.1182 -0.1572  0.6127
 6939TIP3    H242453   3.609   1.740   1.953 -0.4180 -0.1275  0.2023
 6940TIP3   OH242454   4.676   0.929   0.625  0.4495  0.4435  0.0197
 6940TIP3    H142455   4.741   0.918   0.695 -0.4324 -0.9733  0.6451
 6940TIP3    H242456   4.711   0.999   0.571  0.9253  1.9329  2.1654
 6941TIP3   OH242457   1.590   0.869   2.495  0.7445 -0.0588  0.0020
 6941TIP3    H142458   1.601   0.932   2.424 -0.1031  1.0396  0.8506
 6941TIP3    H242459   1.656   0.894   2.560  0.2555  0.0927  0.4407
 6942TIP3   OH242460   2.792   1.424   2.203 -0.7099 -0.4119 -0.2397
 6942TIP3    H142461   2.856   1.434   2.133  0.9550  0.4739  1.3570
 6942TIP3    H242462   2.821   1.346   2.251 -0.8614 -0.0408  0.4632
 6943TIP3   OH242463   2.505   2.330   1.074 -0.2057  0.4096 -0.2661
 6943TIP3    H142464   2.582   2.272   1.070 -0.4957 -0.0414  0.6425
 6943TIP3    H242465   2.477   2.326   1.166  0.9035  3.4558  0.2675
 6944TIP3   OH242466   3.066   1.316   2.592  0.2515  0.4512  0.6592
 6944TIP3    H142467   3.155   1.289   2.569  0.6276  1.4127  0.9444
 6944TIP3    H242468   3.020   1.235   2.612  0.2166 -0.3327 -2.4211
 6945TIP3   OH242469   2.045   0.306   1.043  0.1634 -0.3938 -0.1506
 6945TIP3    H142470   2.023   0.227   1.093 -0.5540  0.5121  0.9728
 6945TIP3    H242471   1.978   0.370   1.067  1.6914  1.1118  0.2645
 6946TIP3   OH242472   3.350   1.358   7.815 -0.0882  0.5405  0.1989
 6946TIP3    H142473   3.371   1.434   7.761 -2.3215  0.9512 -0.1440
 6946TIP3    H242474   3.303   1.300   7.755 -0.5540 -0.0254  1.1214
 6947TIP3   OH242475   2.409   0.798   2.040  0.3585  0.0054  0.0245
 6947TIP3    H142476   2.439   0.858   1.972  2.2113 -0.4372  0.4125
 6947TIP3    H242477   2.432   0.843   2.122  0.0785 -0.4120  0.3301
 6948TIP3   OH242478   1.697   5.857   1.059 -0.0981 -0.1070 -0.4111
 6948TIP3    H142479   1.712   5.764   1.042  0.4054  0.1952 -1.6531
 6948TIP3    H242480   1.738   5.872   1.144  1.0160 -0.7307 -0.8157
 6949TIP3   OH242481   2.214   1.407   2.392 -0.6703 -0.6755 -0.2217
 6949TIP3    H142482   2.155   1.332   2.383 -0.7121 -0.6840  0.1076
 6949TIP3    H242483   2.186   1.449   2.474 -0.8111 -0.1599 -0.5309
 6950TIP3   OH242484   4.972   0.445   2.589  0.2943  0.2112  0.0466
 6950TIP3    H142485   4.955   0.421   2.498 -0.5788  0.6976  0.0764
 6950TIP3    H242486   4.936   0.373   2.640  0.5449  0.0631  0.0125
 6951TIP3   OH242487   4.579   0.868   2.082 -0.6182 -0.5796 -0.5175
 6951TIP3    H142488   4.534   0.923   2.146  0.7141 -1.0187  0.8431
 6951TIP3    H242489   4.644   0.926   2.043  0.2827 -0.9632  0.3808
 6952TIP3   OH242490   5.458   5.416   0.847 -0.0762  0.0285  0.1775
 6952TIP3    H142491   5.472   5.427   0.753 -1.1480  2.1610  0.2566
 6952TIP3    H242492   5.363   5.417   0.858  0.0804  1.5588  1.4858
 6953TIP3   OH242493   4.568   0.622   1.990  0.5235  0.0237 -0.0189
 6953TIP3    H142494   4.627   0.602   1.918  0.1757 -0.6940 -0.1043
 6953TIP3    H242495   4.569   0.717   1.996  1.5680  0.0233 -0.1255
 6954TIP3   OH242496   1.752   1.948   1.099  0.6791 -0.5985 -1.2125
 6954TIP3    H142497   1.694   1.926   1.172  1.7282  0.9936  0.1446
 6954TIP3    H242498   1.694   1.969   1.026 -0.4284 -0.2539 -0.2380
 6955TIP3   OH242499   5.151   5.837   0.423 -0.1237  0.0291 -0.3686
 6955TIP3    H142500   5.151   5.747   0.391  0.5826 -1.0006  2.3449
 6955TIP3    H242501   5.087   5.838   0.494  0.0182  1.6144 -0.2286
 6956TIP3   OH242502   4.982   7.254   2.198  0.2452  0.4477  0.5889
 6956TIP3    H142503   4.980   7.204   2.279 -2.9385 -0.2159  0.1850
 6956TIP3    H242504   4.914   7.321   2.209  1.4238  1.9009 -0.6016
 6957TIP3   OH242505   4.531   0.078   1.668 -0.1505 -0.5997 -0.2290
 6957TIP3    H142506   4.588   0.134   1.616  0.1654  0.0240  0.7783
 6957TIP3    H242507   4.563  -0.010   1.653  0.0786 -0.3996 -0.9134
 6958TIP3   OH242508   2.685   2.826   1.183 -0.1158 -0.0712 -0.1157
 6958TIP3    H142509   2.591   2.816   1.167 -0.3389  1.6001  0.0166
 6958TIP3    H242510   2.705   2.914   1.150  1.3125 -0.2340  0.2861
 6959TIP3   OH242511   4.373   0.674   2.186 -0.4904 -0.2271  0.0808
 6959TIP3    H142512   4.429   0.657   2.109 -0.3704  1.2718 -0.1704
 6959TIP3    H242513   4.292   0.626   2.167 -0.5686  0.3640 -1.1119
 6960TIP3   OH242514   4.720   0.247   1.474  0.1914 -0.2197  0.3103
 6960TIP3    H142515   4.717   0.342   1.482 -0.3175 -0.3381  1.6244
 6960TIP3    H242516   4.805   0.230   1.433 -0.7984  0.9323 -2.3141
 6961TIP3   OH242517   5.909   1.022   2.285  0.1874 -0.4655  0.2681
 6961TIP3    H142518   5.906   0.950   2.347 -0.9714 -1.0970 -0.5117
 6961TIP3    H242519   5.874   1.097   2.334 -0.6896 -0.9510  0.3930
 6962TIP3   OH242520   0.059   0.501   2.002 -0.2158  0.7744  0.6930
 6962TIP3    H142521   0.094   0.568   2.060  1.4632  0.3508  0.2028
 6962TIP3    H242522   0.136   0.465   1.958 -1.1404 -1.0474  0.5036
 6963TIP3   OH242523   6.235   0.043   2.549 -0.2805 -0.2576  0.6400
 6963TIP3    H142524   6.238  -0.033   2.491  0.4524  0.2070  0.0544
 6963TIP3    H242525   6.172   0.019   2.617 -0.2235 -1.3000  0.3402
 6964TIP3   OH242526   6.497   2.751   1.610  0.1357  0.0038 -0.0587
 6964TIP3    H142527   6.438   2.799   1.668 -0.1356  0.5056 -0.7459
 6964TIP3    H242528   6.495   2.661   1.643 -0.7816  0.0796  0.1049
 6965TIP3   OH242529   5.757   7.002   0.531 -0.6880 -0.0702 -0.1842
 6965TIP3    H142530   5.674   7.047   0.516 -1.7623 -1.2294  2.0173
 6965TIP3    H242531   5.766   6.941   0.457 -2.6440 -1.1213  0.4207
 6966TIP3   OH242532   4.593   1.054   1.575 -0.3427  0.0689  0.4044
 6966TIP3    H142533   4.587   0.976   1.520 -1.8518  0.5090 -0.0941
 6966TIP3    H242534   4.636   1.024   1.655  0.0576 -1.0264 -0.2187
 6967TIP3   OH242535   6.564   6.682   2.222 -0.6496 -0.5045  0.3077
 6967TIP3    H142536   6.520   6.640   2.296 -2.8127 -0.5759 -0.9822
 6967TIP3    H242537   6.493   6.705   2.162  1.0708 -0.6238 -1.8417
 6968TIP3   OH242538   6.503   0.024   2.490  0.4797 -0.6597 -0.4977
 6968TIP3    H142539   6.420   0.041   2.535  0.7269 -0.9516  0.0777
 6968TIP3    H242540   6.519  -0.069   2.504  0.0355 -0.9851 -2.0955
 6969TIP3   OH242541   6.305   0.719   1.747  0.0598 -0.5420  0.1533
 6969TIP3    H142542   6.390   0.682   1.726 -0.5210 -0.8517 -1.6902
 6969TIP3    H242543   6.254   0.712   1.667 -1.8663 -0.7671  1.3487
 6970TIP3   OH242544   6.268   0.171   1.195 -0.1199 -0.1639 -0.1850
 6970TIP3    H142545   6.220   0.091   1.213  0.0125 -0.3157 -0.5140
 6970TIP3    H242546   6.274   0.215   1.280 -0.5737 -0.2895 -0.0869
 6971TIP3   OH242547   7.214   0.690   1.930  0.1361 -0.0706 -0.6040
 6971TIP3    H142548   7.245   0.738   1.853 -0.8268 -0.6756 -1.3760
 6971TIP3    H242549   7.270   0.612   1.934 -0.4132 -0.4997 -1.2286
 6972TIP3   OH242550   0.161   7.202   1.662 -0.2247 -0.3707 -0.1490
 6972TIP3    H142551   0.069   7.181   1.647 -0.3972 -0.5821  1.1318
 6972TIP3    H242552   0.170   7.294   1.636 -0.3675 -0.8543 -2.0084
 6973TIP3   OH242553   4.813   1.151   0.474 -0.3265 -0.2215  0.1230
 6973TIP3    H142554   4.894   1.192   0.446 -0.7153  0.6104  0.1787
 6973TIP3    H242555   4.777   1.213   0.538  0.2448 -1.7867  1.9838
 6974TIP3   OH242556   2.111   5.948   1.161  0.0641 -0.0568  0.1543
 6974TIP3    H142557   2.141   6.032   1.195 -0.0466  0.0714 -0.0620
 6974TIP3    H242558   2.081   5.967   1.072 -0.3716 -0.2345  0.2580
 6975TIP3   OH242559   6.541   7.275   1.496  0.0511  0.2589 -0.2654
 6975TIP3    H142560   6.588   7.197   1.526 -0.3864  0.0169 -0.2129
 6975TIP3    H242561   6.468   7.285   1.557  0.1940  0.7983 -0.1819
 6976TIP3   OH242562   5.305   7.120   1.764  0.1494  0.1794  0.2491
 6976TIP3    H142563   5.227   7.171   1.787 -0.5714  0.3410 -2.3982
 6976TIP3    H242564   5.378   7.180   1.780 -0.3174  0.3385  1.8663
 6977TIP3   OH242565   4.998   0.628   1.508  0.0776 -0.0776 -0.6105
 6977TIP3    H142566   5.044   0.545   1.509  0.8315  0.3353  0.1897
 6977TIP3    H242567   5.064   0.692   1.483 -0.6994  0.1830 -2.0570
 6978TIP3   OH242568   7.089   3.537   0.882 -0.0316  0.4837 -0.2383
 6978TIP3    H142569   7.066   3.534   0.975 -0.7961 -0.6565 -0.4542
 6978TIP3    H242570   7.015   3.496   0.838  1.1400 -0.6185 -1.2074
 6979TIP3   OH242571   1.575   3.632   1.963 -0.4476  0.2776 -0.4243
 6979TIP3    H142572   1.556   3.725   1.968 -1.7632 -0.0612  1.6879
 6979TIP3    H242573   1.653   3.626   1.909 -0.5794  2.5606 -0.9159
 6980TIP3   OH242574   0.197   3.245   1.003 -0.0917 -0.0564 -0.2400
 6980TIP3    H142575   0.170   3.246   1.094  1.8775  2.1555  0.3659
 6980TIP3    H242576   0.137   3.183   0.961 -4.2605  2.5724  1.5387
 6981TIP3   OH242577   0.530   4.189   2.133 -0.4931  0.1180  0.0365
 6981TIP3    H142578   0.582   4.108   2.132  0.0062  0.4343  0.1301
 6981TIP3    H242579   0.525   4.213   2.225  1.6161  1.6219 -0.1992
 6982TIP3   OH242580   1.908   3.359   2.190  0.0123 -0.3373  0.3407
 6982TIP3    H142581   1.829   3.359   2.137 -0.4155 -1.6240  0.9445
 6982TIP3    H242582   1.955   3.439   2.166 -1.1285  0.0635 -0.5292
 6983TIP3   OH242583   0.281   2.575   2.376  0.8913  0.0396 -0.1428
 6983TIP3    H142584   0.346   2.623   2.428  1.1734  2.0556 -2.3174
 6983TIP3    H242585   0.316   2.575   2.287  0.7928 -4.0543 -0.3068
 6984TIP3   OH242586   0.016   1.961   2.169  0.1588 -0.5297  0.1603
 6984TIP3    H142587   0.112   1.962   2.168  0.1790 -1.2786  0.9983
 6984TIP3    H242588  -0.008   2.054   2.176  0.8438 -0.4288  1.2849
 6985TIP3   OH242589   7.293   3.807   2.170  0.2811 -0.2259  0.5721
 6985TIP3    H142590   7.201   3.794   2.148  0.5207 -1.5555  0.2903
 6985TIP3    H242591   7.295   3.886   2.223 -1.0893 -0.5350  1.0841
 6986TIP3   OH242592   5.336   2.723   1.090 -0.6002  0.0068  0.3514
 6986TIP3    H142593   5.300   2.634   1.083 -0.9919  0.1978 -0.0920
 6986TIP3    H242594   5.304   2.768   1.012 -1.2788  0.8475  1.1026
 6987TIP3   OH242595   0.273   2.695   1.545  0.3525  0.0720 -0.0250
 6987TIP3    H142596   0.183   2.667   1.562  0.2937  0.5235  0.4485
 6987TIP3    H242597   0.327   2.631   1.590  0.2068  0.9663  1.4625
 6988TIP3   OH242598   6.329   2.056   2.159  0.2659  0.1593 -0.0683
 6988TIP3    H142599   6.352   2.131   2.214 -2.0348  0.8014  0.0788
 6988TIP3    H242600   6.273   2.002   2.214 -1.2053  0.2766 -1.4002
 6989TIP3   OH242601   0.331   1.405   1.860  0.2728 -0.3237 -0.1157
 6989TIP3    H142602   0.282   1.480   1.827  0.5024  0.8427  2.1056
 6989TIP3    H242603   0.410   1.402   1.807  0.5115  1.3360  0.1340
 6990TIP3   OH242604   0.872   2.479   1.763  0.0062 -0.3941  0.1068
 6990TIP3    H142605   0.956   2.445   1.794  0.7568 -0.9708 -2.3840
 6990TIP3    H242606   0.832   2.406   1.716 -2.0726 -0.2208  1.5347
 6991TIP3   OH242607   3.793   2.967   2.352  0.4584  0.2870  0.1581
 6991TIP3    H142608   3.811   2.923   2.435  0.3903  0.1714  0.1116
 6991TIP3    H242609   3.702   2.995   2.358  0.4419  0.2451  0.1073
 6992TIP3   OH242610   3.138   5.193   2.458 -0.1424  0.9363  0.5201
 6992TIP3    H142611   3.130   5.098   2.453 -2.3143  1.0998  0.8144
 6992TIP3    H242612   3.088   5.218   2.535 -2.4010  2.6112 -1.4135
 6993TIP3   OH242613   2.288   0.173   1.019 -0.3131  0.3457 -0.2208
 6993TIP3    H142614   2.209   0.224   1.038 -0.0467  1.4978 -1.9744
 6993TIP3    H242615   2.349   0.238   0.984  0.8813 -0.7960 -0.2699
 6994TIP3   OH242616   1.602   4.268   0.688  0.3219 -0.4113 -0.3739
 6994TIP3    H142617   1.541   4.309   0.627  0.4442  0.1074 -0.1530
 6994TIP3    H242618   1.549   4.206   0.737 -0.1747  0.5179  0.2773
 6995TIP3   OH242619   2.184   4.113   2.281 -0.3611 -0.0023 -0.1055
 6995TIP3    H142620   2.266   4.112   2.331  0.1625 -0.4900 -0.9592
 6995TIP3    H242621   2.126   4.170   2.331  0.4769  0.2866  0.5512
 6996TIP3   OH242622   0.224   3.818   1.177 -0.7471  0.1659 -0.1026
 6996TIP3    H142623   0.171   3.746   1.144  2.5812 -1.3631 -2.3983
 6996TIP3    H242624   0.264   3.856   1.098  3.2712 -0.1575  1.6574
 6997TIP3   OH242625   2.788   3.827   2.412 -0.0973  0.2580  0.2022
 6997TIP3    H142626   2.868   3.825   2.464 -0.2352  0.6997  0.4370
 6997TIP3    H242627   2.745   3.909   2.438 -0.2277  0.4161 -0.5188
 6998TIP3   OH242628   1.130   3.953   1.055 -0.1302  0.2120 -0.7580
 6998TIP3    H142629   1.084   4.013   0.997  0.6350  0.5372 -1.0394
 6998TIP3    H242630   1.098   3.975   1.142 -0.5252  0.4191 -0.9555
 6999TIP3   OH242631   1.418   1.877   2.029 -0.9133  0.1256 -0.1394
 6999TIP3    H142632   1.326   1.849   2.032 -0.8130 -0.0920  0.8024
 6999TIP3    H242633   1.463   1.805   1.985 -0.9392 -0.4458  0.7629
 7000TIP3   OH242634   3.059   4.027   2.308  0.0052 -0.2000 -1.2450
 7000TIP3    H142635   2.981   4.004   2.258 -0.0323 -2.2006 -0.3324
 7000TIP3    H242636   3.070   3.954   2.369  1.7138  0.7962 -0.3299
 7001TIP3   OH242637   3.014   5.948   0.880  0.2124  0.7198  0.2878
 7001TIP3    H142638   3.030   5.887   0.809 -0.3859 -1.2304  1.7748
 7001TIP3    H242639   3.096   5.951   0.929 -0.1588  0.0142  0.9862
 7002TIP3   OH242640   2.389   4.576   1.428 -0.0471 -0.1419 -0.0870
 7002TIP3    H142641   2.330   4.651   1.432 -0.3742 -0.3964 -0.1189
 7002TIP3    H242642   2.331   4.500   1.431  0.3916 -0.4127  1.6351
 7003TIP3   OH242643   2.757   2.300   1.511  0.1251 -0.3586  0.5074
 7003TIP3    H142644   2.818   2.236   1.548  1.5645  0.6026 -0.1860
 7003TIP3    H242645   2.704   2.328   1.585  1.6930  0.0916  1.4742
 7004TIP3   OH242646   3.942   3.859   2.661 -0.5255  0.0264  0.1146
 7004TIP3    H142647   3.961   3.766   2.665  1.5337  0.4154 -0.0142
 7004TIP3    H242648   3.874   3.868   2.594 -0.5388 -1.3371 -0.0530
 7005TIP3   OH242649   1.221   4.174   1.319  0.0651  0.0702  0.1527
 7005TIP3    H142650   1.152   4.108   1.321  0.9376 -0.9353 -1.8355
 7005TIP3    H242651   1.184   4.246   1.267 -0.4093  0.6458  1.2540
 7006TIP3   OH242652   3.809   3.262   2.014 -0.1705 -0.6133  0.4194
 7006TIP3    H142653   3.784   3.271   2.106 -0.2235 -1.1792  0.4565
 7006TIP3    H242654   3.799   3.351   1.978 -0.8984 -0.5545  0.7657
 7007TIP3   OH242655   2.766   1.842   1.810 -0.4712  0.7803 -0.4161
 7007TIP3    H142656   2.750   1.820   1.718  0.5347 -0.4263 -0.3078
 7007TIP3    H242657   2.711   1.920   1.826 -0.4025  1.1881 -2.1166
 7008TIP3   OH242658   4.977   2.268   2.224  0.7390  1.0847 -0.2659
 7008TIP3    H142659   5.020   2.349   2.254  1.2247  0.3891  0.9719
 7008TIP3    H242660   5.028   2.198   2.265  0.9459  0.1103 -2.1649
 7009TIP3   OH242661   3.413   3.686   2.350 -0.9398 -0.4165  0.2342
 7009TIP3    H142662   3.382   3.732   2.273 -0.4819 -1.1398 -0.3866
 7009TIP3    H242663   3.343   3.698   2.415 -1.7781 -0.6654 -0.6164
 7010TIP3   OH242664   2.481   3.277   1.829 -0.3264 -0.0873 -0.5983
 7010TIP3    H142665   2.486   3.313   1.918  1.6647  0.2960 -0.8535
 7010TIP3    H242666   2.448   3.349   1.775 -2.4079 -0.5905 -0.0364
 7011TIP3   OH242667   6.938   1.997   2.192  0.4635  0.2470  0.6597
 7011TIP3    H142668   6.947   2.090   2.209  0.6649  0.6174 -1.3675
 7011TIP3    H242669   6.849   1.987   2.157  0.0037 -0.5150  1.9765
 7012TIP3   OH242670   4.575   2.817   1.718  0.3493 -0.1752  0.0685
 7012TIP3    H142671   4.601   2.839   1.808 -0.4965  3.9557 -0.5920
 7012TIP3    H242672   4.485   2.850   1.711  0.2075 -0.9782 -2.1177
 7013TIP3   OH242673   4.909   2.635   2.286  0.0859  0.2489 -0.0127
 7013TIP3    H142674   4.999   2.616   2.260  0.3586  1.8231 -0.2782
 7013TIP3    H242675   4.856   2.608   2.211  0.4582  0.5521 -0.3869
 7014TIP3   OH242676   4.729   2.716   2.498 -0.8083  0.4979 -0.2769
 7014TIP3    H142677   4.811   2.710   2.449 -0.8399  2.1389 -0.5421
 7014TIP3    H242678   4.743   2.789   2.559 -1.5778 -0.0928  0.6247
 7015TIP3   OH242679   4.371   2.477   0.430  0.0038  0.2528  0.4269
 7015TIP3    H142680   4.406   2.390   0.447 -0.7832 -0.1726 -0.1424
 7015TIP3    H242681   4.365   2.518   0.516  0.7433 -0.1026  0.6561
 7016TIP3   OH242682   4.740   3.063   2.482 -0.1740 -0.6891 -0.0773
 7016TIP3    H142683   4.809   3.129   2.477  0.0442 -1.0201 -2.1166
 7016TIP3    H242684   4.758   3.015   2.562 -0.2944  1.6697  1.4014
 7017TIP3   OH242685   4.196   2.376   2.586  0.0277 -0.3479  0.5619
 7017TIP3    H142686   4.256   2.432   2.636 -2.4010  2.8298  0.0640
 7017TIP3    H242687   4.220   2.390   2.495 -0.9053  0.3274  0.4088
 7018TIP3   OH242688   4.033   4.930   1.904 -0.5750  0.2943  0.1514
 7018TIP3    H142689   3.994   4.971   1.981 -0.5070 -0.4497  0.5948
 7018TIP3    H242690   4.019   4.836   1.917  0.2548  0.0971 -0.2897
 7019TIP3   OH242691   2.228   5.443   1.301  0.1407 -0.0700 -0.1308
 7019TIP3    H142692   2.210   5.530   1.337 -0.0748 -0.7064  1.3344
 7019TIP3    H242693   2.301   5.457   1.242 -0.1697  1.1911 -0.2378
 7020TIP3   OH242694   5.166   2.507   2.209 -0.5520 -0.4439 -0.2766
 7020TIP3    H142695   5.228   2.580   2.207 -0.3858 -0.5042  1.4004
 7020TIP3    H242696   5.218   2.430   2.187 -0.2017 -0.3715  0.2767
 7021TIP3   OH242697   5.675   3.907   1.381  0.2511 -0.3894  0.3070
 7021TIP3    H142698   5.656   3.937   1.292 -0.3826  1.0001  0.9000
 7021TIP3    H242699   5.589   3.891   1.420  0.3627  2.2601  1.7592
 7022TIP3   OH242700   3.999   3.148   1.821 -0.2197 -0.4182  0.3161
 7022TIP3    H142701   4.012   3.069   1.874 -0.2209 -0.9738 -0.4941
 7022TIP3    H242702   3.919   3.187   1.855 -0.3913 -0.9358  0.5248
 7023TIP3   OH242703   5.142   2.379   1.367  0.0599 -0.1354 -0.3030
 7023TIP3    H142704   5.076   2.393   1.435 -0.6904 -0.6881 -0.9079
 7023TIP3    H242705   5.215   2.337   1.412  0.1771  0.8800  0.4569
 7024TIP3   OH242706   3.933   2.349   2.539 -0.3414  0.5611 -0.3846
 7024TIP3    H142707   4.019   2.354   2.580  1.0763 -0.7284 -3.0327
 7024TIP3    H242708   3.914   2.440   2.513  0.6164  0.7443 -0.4963
 7025TIP3   OH242709   3.144   0.979   2.407  0.0548 -0.1893  0.0264
 7025TIP3    H142710   3.085   0.931   2.349 -0.6298  0.2941  0.3087
 7025TIP3    H242711   3.226   0.986   2.358 -0.1535 -0.7837 -0.4073
 7026TIP3   OH242712   2.865   1.533   1.495 -0.2010 -0.2076  0.5360
 7026TIP3    H142713   2.915   1.462   1.454 -1.9122 -2.1278  1.6294
 7026TIP3    H242714   2.828   1.492   1.574 -1.2424  1.9315  1.1774
 7027TIP3   OH242715   4.949   3.629   2.345 -0.1627  0.6436 -0.3213
 7027TIP3    H142716   4.926   3.536   2.350  0.7084  0.4048 -0.6624
 7027TIP3    H242717   4.976   3.651   2.435 -1.0341  0.7420 -0.0847
 7028TIP3   OH242718   6.030   0.474   0.288 -0.2578  0.9078 -0.0827
 7028TIP3    H142719   5.970   0.542   0.257 -1.5328  0.8135  2.1063
 7028TIP3    H242720   5.992   0.392   0.256 -1.1742  0.8722  1.0596
 7029TIP3   OH242721   6.807   3.621   2.119 -0.3999 -0.0029  0.0643
 7029TIP3    H142722   6.747   3.631   2.045  0.7894  2.4023 -0.6228
 7029TIP3    H242723   6.754   3.640   2.196 -1.1199 -0.3617 -0.3421
 7030TIP3   OH242724   7.304   2.275   1.921 -0.1624  0.1346 -0.2130
 7030TIP3    H142725   7.256   2.289   2.003  1.9198  1.3118  0.8350
 7030TIP3    H242726   7.262   2.333   1.858 -2.5016 -1.5915 -0.3085
 7031TIP3   OH242727   6.155   1.537   2.500 -0.3180 -0.6035 -0.3901
 7031TIP3    H142728   6.238   1.584   2.503  0.3907 -1.8527 -0.0027
 7031TIP3    H242729   6.099   1.583   2.563  0.6606 -0.8265  0.6510
 7032TIP3   OH242730   6.418   3.671   1.975 -0.5379  0.0645  0.4669
 7032TIP3    H142731   6.394   3.757   2.008 -0.5046  0.5488 -0.7416
 7032TIP3    H242732   6.429   3.617   2.053  2.2930  1.8940  1.4104
 7033TIP3   OH242733   6.914   1.658   2.057 -0.2240  0.1505 -0.2522
 7033TIP3    H142734   6.901   1.571   2.095  1.6095 -0.7901 -1.6977
 7033TIP3    H242735   7.006   1.678   2.074 -0.5703  1.6823 -0.1865
 7034TIP3   OH242736   6.941   2.622   2.122  0.0036 -0.5560 -0.5024
 7034TIP3    H142737   7.022   2.572   2.112  1.4689  1.8303 -0.7923
 7034TIP3    H242738   6.923   2.619   2.216 -0.7726 -2.8958 -0.6961
 7035TIP3   OH242739   0.294   2.490   2.053  0.0022  0.1747 -0.6563
 7035TIP3    H142740   0.380   2.531   2.052 -0.3877  1.0296  0.5262
 7035TIP3    H242741   0.233   2.560   2.029 -0.7800  0.6066  2.3481
 7036TIP3   OH242742   0.180   3.533   1.671  0.2464 -0.1706 -0.6456
 7036TIP3    H142743   0.170   3.625   1.646 -1.9201 -0.3866 -0.6971
 7036TIP3    H242744   0.208   3.490   1.591  0.1310  0.2607 -0.9217
 7037TIP3   OH242745   6.077   3.471   2.172 -0.2045 -0.6772 -0.0569
 7037TIP3    H142746   6.112   3.483   2.260  1.6470 -2.7933 -0.4733
 7037TIP3    H242747   5.995   3.423   2.186 -1.3691  1.4575  0.6833
 7038TIP3   OH242748   5.057   3.836   1.534 -0.5392 -0.1505  0.0415
 7038TIP3    H142749   5.074   3.930   1.547 -1.6877  0.2112 -1.0229
 7038TIP3    H242750   5.028   3.829   1.443 -0.0177 -1.6101 -0.0310
 7039TIP3   OH242751   6.195   2.722   1.879 -0.2101  0.3741  0.1328
 7039TIP3    H142752   6.100   2.717   1.886 -0.2600  2.9167  2.0051
 7039TIP3    H242753   6.212   2.770   1.798 -0.5209 -0.1185 -0.2217
 7040TIP3   OH242754   6.115   2.769   1.437 -0.2463  0.2715 -0.4741
 7040TIP3    H142755   6.107   2.830   1.510  1.0206 -0.2301  0.1128
 7040TIP3    H242756   6.127   2.684   1.478  0.0277 -0.0783 -1.2631
 7041TIP3   OH242757   6.718   4.233   0.500  0.1291  0.1621 -0.1449
 7041TIP3    H142758   6.763   4.313   0.473  0.4433  0.3284  0.8603
 7041TIP3    H242759   6.626   4.258   0.506  0.1546  0.3064 -0.3738
 7042TIP3   OH242760   6.333   2.647   2.191 -0.7548  0.1437 -0.9856
 7042TIP3    H142761   6.414   2.699   2.190 -1.7798  1.8182 -4.0696
 7042TIP3    H242762   6.265   2.709   2.215 -1.3433 -0.9650  0.2831
 7043TIP3   OH242763   5.791   2.823   1.130 -0.0542  0.4118 -0.3179
 7043TIP3    H142764   5.760   2.756   1.070 -0.0898  1.4415 -1.4597
 7043TIP3    H242765   5.716   2.880   1.143  0.1854  0.6365  0.0903
 7044TIP3   OH242766   5.912   3.288   1.963  0.4312 -0.1615 -0.0922
 7044TIP3    H142767   5.918   3.362   1.902  0.9576 -0.3732 -0.2948
 7044TIP3    H242768   5.885   3.328   2.046  0.6828  0.2517 -0.2096
 7045TIP3   OH242769   6.615   0.587   0.690  0.2351  0.0232 -0.2293
 7045TIP3    H142770   6.691   0.530   0.690 -0.5247 -1.0174 -1.7209
 7045TIP3    H242771   6.606   0.615   0.599 -1.4804 -0.2957 -0.1703
 7046TIP3   OH242772   4.626   1.376   1.650 -0.4929  0.4858  0.1325
 7046TIP3    H142773   4.690   1.312   1.618  0.1947  1.6048 -0.7755
 7046TIP3    H242774   4.657   1.400   1.737 -1.7783 -1.7737  1.2574
 7047TIP3   OH242775   0.006   6.069   1.009  0.1735 -0.0254 -0.0853
 7047TIP3    H142776  -0.085   6.099   1.011  0.2725  0.2301  1.1312
 7047TIP3    H242777   0.042   6.097   1.094  1.5343  0.3651 -0.7819
 7048TIP3   OH242778   1.134   3.838   2.715 -0.1010 -0.3431 -0.0051
 7048TIP3    H142779   1.097   3.839   2.627  0.4658  0.3538 -0.2426
 7048TIP3    H242780   1.228   3.847   2.702 -0.1941  2.3902  0.7424
 7049TIP3   OH242781   6.806   5.301   2.505  0.2960 -0.1765 -0.1313
 7049TIP3    H142782   6.764   5.230   2.552  0.3806 -1.0101 -1.3068
 7049TIP3    H242783   6.892   5.267   2.480  0.3212  0.3128 -0.7487
 7050TIP3   OH242784   1.321   4.462   2.298  0.8413 -0.3145  0.4092
 7050TIP3    H142785   1.328   4.445   2.392  0.1626  0.8846  0.6720
 7050TIP3    H242786   1.237   4.423   2.273 -0.8903  2.8421  1.0809
 7051TIP3   OH242787   1.124   5.029   1.539 -0.1465 -0.1362  0.0607
 7051TIP3    H142788   1.184   5.081   1.485 -0.3583  0.7266  0.6537
 7051TIP3    H242789   1.049   5.012   1.482 -0.2177  0.4776 -0.0286
 7052TIP3   OH242790   7.261   5.573   0.817  0.3080 -0.1769  0.1149
 7052TIP3    H142791   7.301   5.566   0.904  2.5041 -0.8756 -0.8981
 7052TIP3    H242792   7.294   5.657   0.783 -1.1698  0.4651  0.2517
 7053TIP3   OH242793   1.255   5.003   1.787 -0.0565 -0.2117  0.1601
 7053TIP3    H142794   1.206   5.012   1.705  1.9552  1.3655 -0.9007
 7053TIP3    H242795   1.324   4.940   1.767 -1.3775 -2.1576  1.5507
 7054TIP3   OH242796   1.010   4.560   1.571  0.5843 -0.6337  0.0405
 7054TIP3    H142797   0.977   4.500   1.504 -1.1777  0.2861  0.0522
 7054TIP3    H242798   1.098   4.582   1.542  0.7819 -2.2167 -0.6349
 7055TIP3   OH242799   1.350   4.743   2.365  0.2469  0.2843  0.3820
 7055TIP3    H142800   1.423   4.800   2.339 -0.3032  0.5476 -0.6221
 7055TIP3    H242801   1.371   4.658   2.327  0.8950 -0.1071  1.5870
 7056TIP3   OH242802   6.393   4.210   0.601  0.2762 -0.4729 -0.0968
 7056TIP3    H142803   6.349   4.194   0.518  0.3178 -1.4600  0.0621
 7056TIP3    H242804   6.378   4.302   0.619 -0.6501 -0.5050 -0.6745
 7057TIP3   OH242805   0.445   6.187   2.388  0.3364 -0.2195  0.3686
 7057TIP3    H142806   0.456   6.282   2.380  0.6448 -0.3853 -1.3729
 7057TIP3    H242807   0.529   6.155   2.419  0.0585  0.1293  1.5055
 7058TIP3   OH242808   3.031   4.608   1.975  0.1287 -0.0362  0.5103
 7058TIP3    H142809   2.964   4.676   1.980 -0.0316 -0.1643  0.1442
 7058TIP3    H242810   3.111   4.655   1.950 -0.0777 -0.0387 -0.1619
 7059TIP3   OH242811   0.609   5.119   1.830  0.4874 -0.1202 -0.7801
 7059TIP3    H142812   0.695   5.079   1.827  1.1591  1.1350  0.7373
 7059TIP3    H242813   0.551   5.049   1.862  1.1940 -0.5702 -0.4781
 7060TIP3   OH242814   1.971   4.776   1.294  0.1803 -0.2577  0.4535
 7060TIP3    H142815   1.936   4.864   1.288  1.2819  0.2852  1.7874
 7060TIP3    H242816   1.908   4.728   1.347 -1.2383 -0.7195 -1.6061
 7061TIP3   OH242817   1.848   4.846   0.873 -0.2288 -1.4182  0.1468
 7061TIP3    H142818   1.925   4.901   0.882  0.0368 -1.5767 -1.0087
 7061TIP3    H242819   1.775   4.907   0.868 -0.1936 -1.2686  1.3146
 7062TIP3   OH242820   2.191   3.806   2.287 -0.0142 -0.0615 -0.8427
 7062TIP3    H142821   2.219   3.896   2.275 -1.7049  0.6185  0.1435
 7062TIP3    H242822   2.126   3.791   2.217  0.0302 -0.4123 -0.8130
 7063TIP3   OH242823   0.119   3.981   1.943  0.1090 -0.2384 -0.2153
 7063TIP3    H142824   0.024   3.975   1.948  0.0217  1.5734  1.0009
 7063TIP3    H242825   0.147   3.995   2.034  1.2200  2.8838 -0.9667
 7064TIP3   OH242826   7.278   4.619   2.395 -0.3115 -0.5833 -0.2296
 7064TIP3    H142827   7.357   4.633   2.343 -0.1085 -1.8394 -0.2701
 7064TIP3    H242828   7.255   4.528   2.381 -2.3836  0.0236 -1.0496
 7065TIP3   OH242829   0.066   6.675   2.107 -0.2661 -0.1572 -0.0523
 7065TIP3    H142830   0.006   6.717   2.168 -0.7426  0.6418 -1.0571
 7065TIP3    H242831   0.121   6.619   2.162 -2.0763 -1.0852  0.8328
 7066TIP3   OH242832   3.508   5.277   2.483  0.2903 -0.0757  0.3618
 7066TIP3    H142833   3.581   5.304   2.538  0.5106 -1.8179  0.9636
 7066TIP3    H242834   3.431   5.316   2.524  0.7354  0.7024  0.4625
 7067TIP3   OH242835   2.280   5.305   1.764 -0.3072 -0.3899  0.0133
 7067TIP3    H142836   2.223   5.235   1.792  1.9384 -3.1511 -1.9759
 7067TIP3    H242837   2.364   5.287   1.807  0.3482  0.9479 -0.6535
 7068TIP3   OH242838   3.988   4.962   2.187 -0.6972 -0.0697  0.0867
 7068TIP3    H142839   3.991   4.868   2.168 -0.7766  0.2565 -1.6431
 7068TIP3    H242840   4.042   4.973   2.265  0.4225 -1.3712 -0.4893
 7069TIP3   OH242841   2.722   3.399   1.569  0.0217  1.0558 -0.0025
 7069TIP3    H142842   2.765   3.364   1.647 -0.9082  0.2176  0.1395
 7069TIP3    H242843   2.793   3.407   1.505  0.5263  0.3191  0.4517
 7070TIP3   OH242844   2.747   4.968   1.682  0.1985  0.3451  0.2100
 7070TIP3    H142845   2.671   5.025   1.696 -1.4447 -2.0316  1.2250
 7070TIP3    H242846   2.712   4.893   1.634  2.2244 -0.1018 -0.6078
 7071TIP3   OH242847   2.709   6.199   2.292  0.0354  0.3603  0.4741
 7071TIP3    H142848   2.616   6.180   2.286  0.1981 -0.0702 -0.6916
 7071TIP3    H242849   2.719   6.285   2.251  0.3324 -0.1309 -0.4824
 7072TIP3   OH242850   3.335   5.480   2.599 -0.4543  0.2287  0.6008
 7072TIP3    H142851   3.425   5.510   2.616 -0.7935  2.4046 -1.2729
 7072TIP3    H242852   3.280   5.556   2.617 -1.5336  0.1443 -2.2289
 7073TIP3   OH242853   2.651   4.034   1.777 -0.2526  0.0792  0.1349
 7073TIP3    H142854   2.587   4.078   1.833  0.9056  1.6576  0.2646
 7073TIP3    H242855   2.735   4.054   1.818  0.4474 -0.5825 -0.9652
 7074TIP3   OH242856   2.681   5.145   2.257 -0.0516  0.0073  0.5194
 7074TIP3    H142857   2.614   5.080   2.276  1.1201 -0.9870  1.2863
 7074TIP3    H242858   2.759   5.114   2.302  1.3861  0.3018 -1.6665
 7075TIP3   OH242859   2.358   7.263   0.888  0.3344  0.0697  0.0281
 7075TIP3    H142860   2.452   7.267   0.907  0.2212 -0.4270  0.6985
 7075TIP3    H242861   2.321   7.339   0.933  0.5210  0.7359 -0.9153
 7076TIP3   OH242862   2.886   5.966   1.591  0.7098  0.0713 -0.2246
 7076TIP3    H142863   2.847   6.045   1.554 -0.7284 -0.5214 -0.0058
 7076TIP3    H242864   2.938   5.930   1.520  0.1554  0.4097 -0.8097
 7077TIP3   OH242865   2.171   4.739   2.276  0.3470 -0.0860  0.1534
 7077TIP3    H142866   2.178   4.780   2.189  0.0541 -0.5490 -0.0926
 7077TIP3    H242867   2.204   4.650   2.263 -2.7607 -1.2296 -0.2610
 7078TIP3   OH242868   1.372   5.159   2.305  0.0287  0.2540 -0.4327
 7078TIP3    H142869   1.397   5.085   2.250 -0.6899  1.0092 -1.8213
 7078TIP3    H242870   1.277   5.166   2.294  0.0693  1.2630 -0.1894
 7079TIP3   OH242871   3.029   5.537   0.459  0.6812  0.0278 -0.6963
 7079TIP3    H142872   2.975   5.511   0.384  0.5608  1.8164 -1.2425
 7079TIP3    H242873   3.110   5.570   0.421  1.3318 -0.6692  0.0437
 7080TIP3   OH242874   0.756   4.907   0.973  0.3464  0.1341 -0.4134
 7080TIP3    H142875   0.717   4.888   0.887  0.9268  0.5319 -0.7665
 7080TIP3    H242876   0.692   4.873   1.036  0.3239 -0.9474 -1.0093
 7081TIP3   OH242877   5.699   5.827   1.189  0.1630 -0.0432  0.5436
 7081TIP3    H142878   5.629   5.765   1.208 -0.4940  1.0060  1.6265
 7081TIP3    H242879   5.753   5.783   1.123 -0.4633 -1.6190  1.0598
 7082TIP3   OH242880   3.821   4.685   1.725  0.1272 -0.1952 -0.5428
 7082TIP3    H142881   3.739   4.676   1.676 -1.7303 -1.9579  2.6538
 7082TIP3    H242882   3.880   4.622   1.685 -1.0020 -0.8711 -1.1906
 7083TIP3   OH242883   1.861   5.346   1.147 -0.3338  0.0043  0.0121
 7083TIP3    H142884   1.933   5.335   1.209  0.1660  0.2728 -0.5296
 7083TIP3    H242885   1.822   5.259   1.141  0.6050 -0.3830 -0.5186
 7084TIP3   OH242886   3.058   5.497   1.313  0.2473  0.0214  0.3262
 7084TIP3    H142887   3.120   5.550   1.263  0.0205  0.5634  0.6188
 7084TIP3    H242888   2.972   5.521   1.278  0.2770 -1.9337 -1.2400
 7085TIP3   OH242889   1.791   6.383   1.818 -0.0771  0.2791 -0.0691
 7085TIP3    H142890   1.733   6.432   1.759 -0.8300 -0.4678  0.0497
 7085TIP3    H242891   1.736   6.314   1.855 -0.0886  1.7203  2.8001
 7086TIP3   OH242892   4.615   5.505   7.029 -0.3721  0.4540  0.0020
 7086TIP3    H142893   4.649   5.439   7.090 -0.7320 -0.3619 -0.6675
 7086TIP3    H242894   4.692   5.557   7.005  0.4761 -1.4435 -1.5762
 7087TIP3   OH242895   2.621   3.483   2.246 -0.2665  0.1179 -0.1589
 7087TIP3    H142896   2.542   3.527   2.277  0.2924 -0.0365  1.5402
 7087TIP3    H242897   2.686   3.500   2.314  0.7677 -0.9239 -0.8680
 7088TIP3   OH242898   4.122   5.222   1.851  0.3277  0.1542  0.5215
 7088TIP3    H142899   4.199   5.279   1.861 -0.2507  0.8149  1.2898
 7088TIP3    H242900   4.098   5.199   1.941 -1.1204  0.9667  0.3467
 7089TIP3   OH242901   4.336   3.487   1.415  0.4841  0.2610  0.2512
 7089TIP3    H142902   4.329   3.476   1.510  1.1941 -1.6714  0.1082
 7089TIP3    H242903   4.245   3.488   1.385  0.2517  1.0528  0.9637
 7090TIP3   OH242904   6.136   4.660   1.157 -0.1513  0.0415  0.4513
 7090TIP3    H142905   6.230   4.648   1.172  0.1674  0.9317 -0.7843
 7090TIP3    H242906   6.103   4.571   1.142  0.6249 -0.2114  0.1879
 7091TIP3   OH242907   4.655   3.540   1.709 -0.4021 -0.4324 -0.1478
 7091TIP3    H142908   4.662   3.626   1.749 -4.4292 -0.2518  0.3579
 7091TIP3    H242909   4.651   3.557   1.615 -0.8126 -0.0753 -0.0663
 7092TIP3   OH242910   3.508   6.161   1.297 -0.4002 -0.4240  0.5712
 7092TIP3    H142911   3.601   6.168   1.321 -0.6011  0.0180  1.2184
 7092TIP3    H242912   3.509   6.160   1.201  0.2835 -0.5692  0.5727
 7093TIP3   OH242913   3.948   5.193   2.559 -0.1567 -1.0962 -0.4022
 7093TIP3    H142914   3.870   5.148   2.592 -1.0861  0.9054  0.2052
 7093TIP3    H242915   3.921   5.232   2.476 -0.0819  0.3368  0.2306
 7094TIP3   OH242916   3.681   5.058   2.654  0.4296 -0.6597 -0.5365
 7094TIP3    H142917   3.627   5.019   2.723  0.7347  0.1395  0.1644
 7094TIP3    H242918   3.671   5.153   2.667  1.2813 -0.5105 -0.9751
 7095TIP3   OH242919   4.732   4.231   1.634  0.1694  0.4188 -0.1924
 7095TIP3    H142920   4.808   4.175   1.623 -0.0996 -0.3896  1.7237
 7095TIP3    H242921   4.768   4.318   1.653  0.6143  0.1301  0.2851
 7096TIP3   OH242922   3.687   4.908   0.838 -0.0602 -0.2222  0.8457
 7096TIP3    H142923   3.614   4.855   0.872 -1.1381 -0.8345 -2.2776
 7096TIP3    H242924   3.648   4.994   0.821 -0.2776 -0.7536 -1.5011
 7097TIP3   OH242925   5.002   6.314   2.117  0.2084  0.4145 -0.1321
 7097TIP3    H142926   5.072   6.353   2.064  1.9265 -1.2690  0.8478
 7097TIP3    H242927   5.041   6.304   2.204 -0.6314 -2.2270 -0.0287
 7098TIP3   OH242928   4.903   5.278   1.913  0.0474  0.1962  0.7077
 7098TIP3    H142929   4.956   5.211   1.871 -1.8358 -0.5815 -0.5285
 7098TIP3    H242930   4.868   5.235   1.991 -0.6492 -0.0650  0.2555
 7099TIP3   OH242931   3.503   3.087   1.890  0.3397 -0.3649  0.3362
 7099TIP3    H142932   3.528   3.161   1.946  2.2335 -0.0803 -0.8206
 7099TIP3    H242933   3.472   3.020   1.951  0.9362  0.4861  1.6132
 7100TIP3   OH242934   5.717   4.781   1.698 -0.5752 -0.2704 -0.3473
 7100TIP3    H142935   5.677   4.862   1.667 -2.5270 -1.1971 -0.2701
 7100TIP3    H242936   5.644   4.725   1.723  0.6927 -2.4531 -1.3618
 7101TIP3   OH242937   4.306   6.188   7.951 -0.3665  0.4432  0.2995
 7101TIP3    H142938   4.226   6.215   7.906 -0.0837 -0.8131 -1.0152
 7101TIP3    H242939   4.363   6.265   7.948 -1.3564  1.2033  0.8704
 7102TIP3   OH242940   3.675   2.967   0.703  0.2082 -0.2414 -0.0324
 7102TIP3    H142941   3.604   3.021   0.669  0.6183 -0.0731 -0.6211
 7102TIP3    H242942   3.654   2.956   0.796 -1.5837 -1.7661 -0.5954
 7103TIP3   OH242943   5.026   2.687   1.637  0.3116  0.0199 -0.2010
 7103TIP3    H142944   5.076   2.737   1.573  0.3784 -0.1621 -0.2897
 7103TIP3    H242945   5.020   2.745   1.713  0.3161  0.1970 -0.3351
 7104TIP3   OH242946   4.834   3.683   2.028  0.0495 -0.0954 -0.2058
 7104TIP3    H142947   4.907   3.729   2.069  0.5008 -1.4242  0.5030
 7104TIP3    H242948   4.822   3.605   2.081 -3.6940  1.4006  1.3599
 7105TIP3   OH242949   3.853   5.175   2.279  0.0527 -0.7839 -0.0940
 7105TIP3    H142950   3.882   5.099   2.228 -0.2942 -0.3326 -0.9824
 7105TIP3    H242951   3.762   5.156   2.301  0.2489 -1.0486  0.4960
 7106TIP3   OH242952   4.096   5.796   2.022  0.3472  0.3264 -0.0182
 7106TIP3    H142953   4.023   5.737   2.009  0.4760  0.2422 -0.3666
 7106TIP3    H242954   4.057   5.884   2.020  0.3476  0.3122 -0.8900
 7107TIP3   OH242955   4.161   5.533   2.883  0.4639  0.2416 -0.4871
 7107TIP3    H142956   4.135   5.484   2.961 -0.8617 -0.6445 -1.4616
 7107TIP3    H242957   4.137   5.477   2.810  0.3142  1.6931 -1.5918
 7108TIP3   OH242958   6.989   5.097   2.058  0.0345  0.2502 -0.2159
 7108TIP3    H142959   7.009   5.191   2.060  1.5922 -0.0764  0.4515
 7108TIP3    H242960   6.958   5.077   2.146 -0.7680  0.2354 -0.5014
 7109TIP3   OH242961   4.922   4.057   2.105 -0.1452  0.5092  0.3365
 7109TIP3    H142962   4.970   3.986   2.148 -2.8101 -0.1609  2.2989
 7109TIP3    H242963   4.960   4.061   2.017  1.3927 -2.0330  0.8245
 7110TIP3   OH242964   6.478   3.832   7.892  0.2795  0.3042 -0.0213
 7110TIP3    H142965   6.388   3.860   7.880  1.1081  3.6430  1.0213
 7110TIP3    H242966   6.486   3.814   7.985  0.4905 -0.8976 -0.2528
 7111TIP3   OH242967   5.521   4.597   1.805 -0.0937  0.1454 -0.6022
 7111TIP3    H142968   5.450   4.613   1.742 -1.3687 -1.2402  0.4165
 7111TIP3    H242969   5.492   4.641   1.885  0.9043  0.8201 -0.6158
 7112TIP3   OH242970   7.158   5.319   1.096  0.1288 -0.1061 -0.1730
 7112TIP3    H142971   7.064   5.333   1.105 -0.2399 -1.7143 -1.2295
 7112TIP3    H242972   7.183   5.272   1.176 -0.1368 -0.4017 -0.2586
 7113TIP3   OH242973   4.915   4.145   0.369 -0.3520  0.0887 -0.1322
 7113TIP3    H142974   4.860   4.203   0.422 -0.0884 -0.2994  0.5632
 7113TIP3    H242975   4.980   4.204   0.330  1.1553  0.0142  2.1514
 7114TIP3   OH242976   5.514   4.902   2.752 -0.2722 -0.1144 -0.4509
 7114TIP3    H142977   5.422   4.902   2.726 -0.3119  2.9313 -0.4254
 7114TIP3    H242978   5.562   4.926   2.673  0.2007  1.7691  0.3874
 7115TIP3   OH242979   6.961   5.023   2.340  0.2290  0.7721 -0.4458
 7115TIP3    H142980   6.922   4.967   2.407 -0.4410  1.6637 -0.0815
 7115TIP3    H242981   7.053   5.030   2.364 -0.1341  1.6026  0.7488
 7116TIP3   OH242982   5.068   4.724   2.194  0.2897 -0.4781  0.3377
 7116TIP3    H142983   4.980   4.734   2.159  0.4894 -0.6959 -0.2361
 7116TIP3    H242984   5.058   4.667   2.271 -0.1603  0.0616  0.6799
 7117TIP3   OH242985   4.187   4.405   8.182 -0.1319  0.3740  0.7305
 7117TIP3    H142986   4.106   4.447   8.210  0.2191  0.0297  2.3669
 7117TIP3    H242987   4.179   4.315   8.214 -0.6046 -0.6488 -2.1847
 7118TIP3   OH242988   6.659   4.769   1.440 -0.0492  0.5166 -0.5024
 7118TIP3    H142989   6.583   4.799   1.491 -0.2623 -0.6863 -0.1090
 7118TIP3    H242990   6.697   4.699   1.492  1.6207  1.4022 -0.4832
 7119TIP3   OH242991   6.334   5.404   1.736 -0.1346  0.2226  0.1464
 7119TIP3    H142992   6.386   5.445   1.805 -0.7432  0.1678  0.6376
 7119TIP3    H242993   6.397   5.348   1.689  0.4009  0.6913  0.2986
 7120TIP3   OH242994   6.659   4.749   1.847 -0.6178 -0.2124  0.0921
 7120TIP3    H142995   6.738   4.713   1.886 -0.2880  0.1477 -0.2392
 7120TIP3    H242996   6.662   4.721   1.756 -1.0135 -0.4322  0.1454
 7121TIP3   OH242997   5.970   4.498   1.754 -0.5256  0.3634  0.2870
 7121TIP3    H142998   5.986   4.526   1.844  0.4370 -0.8612  0.4963
 7121TIP3    H242999   5.875   4.485   1.750 -0.5846  0.5012  1.0931
 7122TIP3   OH243000   6.373   4.778   2.372 -0.0636  0.3066 -0.2624
 7122TIP3    H143001   6.437   4.817   2.432 -1.3716  0.4411  1.0572
 7122TIP3    H243002   6.341   4.700   2.419 -0.4039 -0.1231 -1.1976
 7123TIP3   OH243003   6.958   3.124   1.819  0.0708  0.0571 -0.2896
 7123TIP3    H143004   6.995   3.068   1.887 -0.4823 -0.8084 -0.6954
 7123TIP3    H243005   6.873   3.151   1.854 -0.5212 -0.9510 -0.9140
 7124TIP3   OH243006   6.679   5.569   1.888 -0.2155  0.1112 -0.2425
 7124TIP3    H143007   6.700   5.483   1.851  0.9472  0.1128  0.4017
 7124TIP3    H243008   6.744   5.628   1.849 -1.9724  1.0154 -1.9041
 7125TIP3   OH243009   0.672   0.526   1.137 -0.1191  0.0863 -0.2363
 7125TIP3    H143010   0.767   0.525   1.147 -0.3030  0.1541  1.8215
 7125TIP3    H243011   0.644   0.600   1.191 -1.2319  1.0551 -2.0912
 7126TIP3   OH243012   0.936   6.069   2.370 -0.1433  0.1086  0.1450
 7126TIP3    H143013   1.029   6.072   2.344  0.0071 -1.2880  0.4442
 7126TIP3    H243014   0.931   5.994   2.430 -1.6667 -0.4449 -0.6637
 7127TIP3   OH243015   0.861   6.228   2.162  0.4348  0.5164  0.1015
 7127TIP3    H143016   0.906   6.305   2.198 -1.2364  1.0224  1.1465
 7127TIP3    H243017   0.861   6.164   2.233  0.5654  0.0574 -0.3029
 7128TIP3   OH243018   6.336   3.952   2.071 -0.3449  0.3646 -0.1484
 7128TIP3    H143019   6.316   4.019   2.006  1.8861  1.0430 -0.1838
 7128TIP3    H243020   6.325   3.996   2.155 -0.0095  0.4494 -0.1472
 7129TIP3   OH243021   0.193   6.116   2.436 -0.2153 -0.5770 -0.4369
 7129TIP3    H143022   0.288   6.126   2.442  0.2557 -3.1453 -2.8638
 7129TIP3    H243023   0.163   6.201   2.403  1.3137  0.0233 -0.3304
 7130TIP3   OH243024   0.871   7.023   1.637 -0.0179  0.0060 -1.0266
 7130TIP3    H143025   0.905   7.001   1.724  0.7587  2.0862 -0.7774
 7130TIP3    H243026   0.784   6.983   1.634 -0.7072  1.2414  1.3095
 7131TIP3   OH243027   1.842   6.642   1.972  0.2640 -0.4256 -0.2959
 7131TIP3    H143028   1.927   6.685   1.967  1.2197 -2.2826 -0.3266
 7131TIP3    H243029   1.857   6.555   1.935 -1.6177 -0.8137 -0.1874
 7132TIP3   OH243030   1.465   7.096   1.500  0.3375  0.1306 -0.3370
 7132TIP3    H143031   1.526   7.074   1.570 -0.0035 -4.2195 -1.2669
 7132TIP3    H243032   1.381   7.061   1.529 -0.3909  0.7218 -1.6850
 7133TIP3   OH243033   1.005   6.271   1.118  0.0167  0.0123  0.2605
 7133TIP3    H143034   0.962   6.188   1.140 -0.7544  0.9130  2.1934
 7133TIP3    H243035   1.086   6.244   1.074 -1.6854 -1.7057 -1.9332
 7134TIP3   OH243036   1.568   0.020   0.451  0.5400  0.2020 -0.9107
 7134TIP3    H143037   1.508   0.095   0.449 -1.2164 -1.1576 -0.2929
 7134TIP3    H243038   1.640   0.049   0.507 -0.2674  1.3155 -0.4213
 7135TIP3   OH243039   4.084   7.298   1.303 -0.4091  0.0364  0.6018
 7135TIP3    H143040   4.033   7.295   1.222 -0.7630 -0.7230  0.8527
 7135TIP3    H243041   4.108   7.390   1.312  0.5471 -0.0522 -0.9228
 7136TIP3   OH243042   0.730   7.030   2.303  0.4018  0.1324  0.0047
 7136TIP3    H143043   0.716   7.104   2.361  0.1091 -1.3473  1.8649
 7136TIP3    H243044   0.817   7.046   2.265  1.1552  0.4913  1.8294
 7137TIP3   OH243045   0.737   7.245   2.455  0.6232 -0.0357 -0.2891
 7137TIP3    H143046   0.798   7.316   2.475  0.0257 -0.1013  1.9009
 7137TIP3    H243047   0.653   7.275   2.490  0.4472 -1.9620  1.0085
 7138TIP3   OH243048   1.007   6.497   1.343  0.2272 -0.3169 -0.2274
 7138TIP3    H143049   0.976   6.471   1.429  0.4455 -0.5384 -0.2148
 7138TIP3    H243050   1.075   6.562   1.359  0.4390 -0.5365 -0.2210
 7139TIP3   OH243051   6.284   0.355   0.979 -0.0533 -0.1586  0.6228
 7139TIP3    H143052   6.336   0.430   1.007  0.1108  0.2717 -0.7993
 7139TIP3    H243053   6.283   0.296   1.055  0.8422  0.7232  1.3224
 7140TIP3   OH243054   2.367   6.670   1.339 -0.0466 -0.0259  0.0751
 7140TIP3    H143055   2.402   6.680   1.251  0.5073  0.6976  0.3718
 7140TIP3    H243056   2.276   6.643   1.325  0.1055 -0.1507 -0.7120
 7141TIP3   OH243057   3.153   0.050   1.318  0.4778 -0.0900  0.1320
 7141TIP3    H143058   3.161   0.060   1.413 -1.6331  1.1377  0.2028
 7141TIP3    H243059   3.130  -0.042   1.306 -0.0535 -0.0580  0.8648
 7142TIP3   OH243060   1.383   6.722   1.412  0.0846  0.2261 -0.3381
 7142TIP3    H143061   1.438   6.768   1.476  1.1462 -0.1057 -1.0004
 7142TIP3    H243062   1.443   6.697   1.342 -0.3872 -2.5094  0.1760
 7143TIP3   OH243063   6.655   6.240   2.061 -0.2869 -0.4889 -0.0747
 7143TIP3    H143064   6.602   6.166   2.031 -0.5581  0.1300 -1.1645
 7143TIP3    H243065   6.623   6.259   2.149 -1.0753 -0.8702 -0.2725
 7144TIP3   OH243066   1.451   0.634   1.590  0.5213 -0.0006  0.1207
 7144TIP3    H143067   1.362   0.612   1.562  0.7686 -1.1459  0.2211
 7144TIP3    H243068   1.507   0.592   1.526  1.0065  0.4282  0.2605
 7145TIP3   OH243069   2.115   6.474   1.941 -0.2436  0.1369  0.1138
 7145TIP3    H143070   2.176   6.547   1.946 -0.5094  0.3948 -0.4041
 7145TIP3    H243071   2.085   6.473   1.850  2.4029 -2.7648 -0.8109
 7146TIP3   OH243072   3.190   7.007   2.245 -0.2379 -0.0761 -0.3581
 7146TIP3    H143073   3.216   7.098   2.233  1.6730 -0.2053  2.2500
 7146TIP3    H243074   3.271   6.957   2.228 -0.8928 -1.1592 -0.3438
 7147TIP3   OH243075   3.264   7.315   7.997  0.8096 -0.1339  0.2007
 7147TIP3    H143076   3.221   7.246   7.948 -0.0261  0.0434  0.6775
 7147TIP3    H243077   3.325   7.354   7.935  0.4408 -0.5324 -0.4131
 7148TIP3   OH243078   3.956   6.638   2.488 -0.5667 -0.0038  0.3467
 7148TIP3    H143079   3.897   6.700   2.531 -0.2037 -0.0716  0.9535
 7148TIP3    H243080   4.034   6.636   2.545  0.1098  0.2519 -0.5560
 7149TIP3   OH243081   1.913   7.080   1.750  0.5154  0.9820  0.3335
 7149TIP3    H143082   1.953   7.073   1.837 -1.2745 -1.5270  0.9923
 7149TIP3    H243083   1.983   7.053   1.690  1.0877  0.6513  1.1346
 7150TIP3   OH243084   2.994   6.898   1.569 -0.3403  0.6880 -0.2209
 7150TIP3    H143085   3.017   6.920   1.660 -0.6908  0.3493 -0.0496
 7150TIP3    H243086   2.899   6.900   1.567 -0.3201  1.6298 -0.8222
 7151TIP3   OH243087   2.444   6.325   1.886  0.3229 -0.1940  0.1975
 7151TIP3    H143088   2.444   6.234   1.858  0.2547 -0.0074 -0.4152
 7151TIP3    H243089   2.377   6.330   1.954 -0.5382 -0.3313 -0.6450
 7152TIP3   OH243090   2.666   6.392   2.073  0.1952 -0.5914  0.3336
 7152TIP3    H143091   2.613   6.469   2.095  0.4324 -0.7305  1.4361
 7152TIP3    H243092   2.618   6.350   2.001  0.9492  1.5077 -1.4534
 7153TIP3   OH243093   2.705   6.672   2.647 -0.4575 -0.0737  0.2323
 7153TIP3    H143094   2.702   6.765   2.623  2.2610 -0.3448 -1.3453
 7153TIP3    H243095   2.659   6.627   2.576 -0.4405 -0.0570  0.2103
 7154TIP3   OH243096   2.156   7.158   0.051  0.1040 -0.3035 -0.6933
 7154TIP3    H143097   2.144   7.067   0.025  1.6114 -0.7935  0.2707
 7154TIP3    H243098   2.075   7.181   0.098  1.2358 -2.3582  2.4030
 7155TIP3   OH243099   2.089   6.790   2.000 -0.3296 -0.0183 -0.0993
 7155TIP3    H143100   2.051   6.795   2.088  0.6354  2.3616  0.2023
 7155TIP3    H243101   2.173   6.747   2.012  0.2314  1.1767  0.3031
 7156TIP3   OH243102   2.786   5.166   1.993 -0.0516  0.4213 -0.0038
 7156TIP3    H143103   2.740   5.178   2.076 -0.6043  0.9889 -0.3916
 7156TIP3    H243104   2.718   5.139   1.931  0.0969  1.4230 -0.6161
 7157TIP3   OH243105   3.078   5.590   2.434 -0.0758 -0.4204 -0.5323
 7157TIP3    H143106   3.104   5.625   2.519 -0.4052 -0.9564 -0.2017
 7157TIP3    H243107   3.144   5.524   2.414  0.8746  0.7865 -1.4314
 7158TIP3   OH243108   0.924   7.073   2.054  0.5880  0.5990  0.7032
 7158TIP3    H143109   0.907   7.167   2.046 -2.2633  0.1683  1.1274
 7158TIP3    H243110   0.847   7.031   2.014  0.7826 -1.5562  2.4899
 7159TIP3   OH243111   5.544   7.296   1.829 -0.1020  0.3276  0.0111
 7159TIP3    H143112   5.601   7.365   1.794 -1.0197  0.3385 -1.4647
 7159TIP3    H243113   5.549   7.308   1.924 -0.7307  2.8396 -0.2286
 7160TIP3   OH243114   5.244   7.256   2.029  0.3266  0.0271  0.1322
 7160TIP3    H143115   5.221   7.175   2.074  1.8905  0.6688  2.1728
 7160TIP3    H243116   5.287   7.310   2.096  1.2925  1.6658 -1.7285
 7161TIP3   OH243117   5.706   6.454   0.354 -0.1082 -0.1334 -0.3811
 7161TIP3    H143118   5.740   6.471   0.266  0.7095 -1.5340 -0.3485
 7161TIP3    H243119   5.782   6.423   0.403 -0.8517 -0.6537  0.4448
 7162TIP3   OH243120   5.706   0.156   1.717 -0.0948 -0.1582  0.6411
 7162TIP3    H143121   5.643   0.163   1.645  2.6884 -0.6196 -1.9929
 7162TIP3    H243122   5.750   0.242   1.719  0.3508 -0.3969  1.2868
 7163TIP3   OH243123   4.148   5.022   2.414 -0.1306  0.0607 -0.0667
 7163TIP3    H143124   4.100   5.076   2.475 -0.8511 -0.1918 -0.4091
 7163TIP3    H243125   4.197   5.084   2.359  0.5204  0.2839  0.7584
 7164TIP3   OH243126   4.293   5.270   1.122  0.0002  0.3270  0.3499
 7164TIP3    H143127   4.219   5.326   1.099  0.9995  0.4608 -2.7281
 7164TIP3    H243128   4.287   5.196   1.062  2.6290  0.5712 -0.2952
 7165TIP3   OH243129   5.207   6.580   1.798  0.1183  0.5009 -0.4738
 7165TIP3    H143130   5.255   6.663   1.795 -1.2284  1.4838  2.7850
 7165TIP3    H243131   5.117   6.606   1.815 -0.6633 -1.5680 -1.4086
 7166TIP3   OH243132   5.366   0.586   0.815  0.5142 -1.1887  0.3679
 7166TIP3    H143133   5.348   0.673   0.851  3.5073 -0.8861  1.2603
 7166TIP3    H243134   5.294   0.570   0.755 -0.9450  1.2319  1.3928
 7167TIP3   OH243135   3.636   6.785   1.040 -0.2315 -0.0798  0.1783
 7167TIP3    H143136   3.692   6.862   1.033 -0.6803  0.4059  1.7544
 7167TIP3    H243137   3.547   6.818   1.029 -0.4550 -0.3131  1.2845
 7168TIP3   OH243138   3.250   0.897   1.036 -0.3355  0.3952 -0.1721
 7168TIP3    H143139   3.250   0.801   1.032  0.0278  0.4622 -1.9745
 7168TIP3    H243140   3.264   0.916   1.129 -1.5316 -1.2986  0.3953
 7169TIP3   OH243141   4.347   7.270   2.329  0.0990  0.7203 -0.4214
 7169TIP3    H143142   4.417   7.311   2.380  0.0627 -0.4318  0.5633
 7169TIP3    H243143   4.272   7.268   2.388  0.1193 -0.8311 -0.4285
 7170TIP3   OH243144   2.665   6.179   1.603  0.6787  0.3345 -0.1063
 7170TIP3    H143145   2.632   6.264   1.575  0.0024  0.4870  1.1051
 7170TIP3    H243146   2.651   6.178   1.698 -0.5609 -1.6354 -0.2666
 7171TIP3   OH243147   5.080   6.393   7.873 -0.3517 -0.2270 -0.1278
 7171TIP3    H143148   5.139   6.321   7.897  0.1813 -0.0132 -0.7825
 7171TIP3    H243149   5.137   6.470   7.867 -0.2497 -0.4799 -3.2027
 7172TIP3   OH243150   4.247   0.755   8.176  0.3978 -0.1003  0.3338
 7172TIP3    H143151   4.266   0.792   8.263  0.4571 -1.5685  0.9549
 7172TIP3    H243152   4.330   0.717   8.147  0.0929 -0.6204  0.1339
 7173TIP3   OH243153   4.643   6.689   2.471 -0.3453  0.3852  0.0454
 7173TIP3    H143154   4.610   6.643   2.548 -0.5362  0.7179  0.1654
 7173TIP3    H243155   4.695   6.624   2.424  2.1394  0.9562  1.9158
 7174TIP3   OH243156   6.593   4.968   1.980 -0.3931 -0.1275  0.4086
 7174TIP3    H143157   6.627   5.030   1.916  1.3268  0.0687  1.4766
 7174TIP3    H243158   6.611   4.882   1.942  1.1674 -0.0221  0.8745
 7175TIP3   OH243159   4.251   5.013   1.398 -0.6910 -0.2090  0.1639
 7175TIP3    H143160   4.206   5.092   1.368 -0.5530 -0.7798 -1.6109
 7175TIP3    H243161   4.222   5.002   1.489 -2.1960  0.8155 -0.1636
 7176TIP3   OH243162   4.370   7.024   2.251 -1.1903  0.1978 -0.2610
 7176TIP3    H143163   4.281   6.997   2.276 -0.9101  0.9876  1.6572
 7176TIP3    H243164   4.377   7.114   2.282  0.6823 -0.2369  0.6346
 7177TIP3   OH243165   0.117   6.287   2.072 -0.3293 -0.0127  0.1937
 7177TIP3    H143166   0.091   6.330   2.153  2.2603  0.5670  0.7599
 7177TIP3    H243167   0.208   6.259   2.087  0.1835  0.0257 -2.4642
 7178TIP3   OH243168   5.343   5.586   1.903 -1.0136 -0.3013  0.2921
 7178TIP3    H143169   5.348   5.674   1.941 -1.4661 -0.2577  0.2536
 7178TIP3    H243170   5.431   5.570   1.869 -0.9533  0.1712  0.2167
 7179TIP3   OH243171   5.461   6.445   2.265 -0.2374 -0.0131  0.0524
 7179TIP3    H143172   5.520   6.394   2.210  1.2957  0.4927  1.2063
 7179TIP3    H243173   5.513   6.519   2.295 -1.9995  1.4686 -0.4065
 7180TIP3   OH243174   6.864   6.418   2.480 -0.1309 -0.0322  0.0787
 7180TIP3    H143175   6.858   6.511   2.501 -0.3860 -0.2835  1.1563
 7180TIP3    H243176   6.884   6.376   2.563 -0.0681 -0.9510 -0.3926
 7181TIP3   OH243177   6.719   6.790   1.881  0.7788 -0.4946 -0.5699
 7181TIP3    H143178   6.796   6.815   1.830  1.3321 -1.5305 -0.2459
 7181TIP3    H243179   6.754   6.767   1.967 -0.0110  0.0405 -0.1031
 7182TIP3   OH243180   6.232   7.146   2.436  0.2927 -0.1032  0.3377
 7182TIP3    H143181   6.241   7.071   2.495  0.5649  0.6536  1.2661
 7182TIP3    H243182   6.242   7.109   2.349 -0.0164 -1.2192  0.7711
 7183TIP3   OH243183   7.335   6.423   0.933  0.1865 -0.0105  0.8201
 7183TIP3    H143184   7.381   6.437   0.850  0.9935  3.1564  1.7164
 7183TIP3    H243185   7.245   6.402   0.908  0.4242  0.9042 -0.8486
 7184TIP3   OH243186   5.799   0.545   8.173  0.5426 -0.2471 -0.0791
 7184TIP3    H143187   5.839   0.461   8.148 -0.7040 -0.9601  0.3321
 7184TIP3    H243188   5.705   0.531   8.162  0.2273  0.5964  1.5477
 7185TIP3   OH243189   0.442   0.096   1.250 -0.3687  0.1992  0.1747
 7185TIP3    H143190   0.483   0.044   1.319 -0.5768 -0.6806 -0.3608
 7185TIP3    H243191   0.511   0.109   1.185 -0.7474 -0.7213 -0.4166
 7186TIP3   OH243192   6.798   0.348   2.302  0.5243  0.0748  0.1750
 7186TIP3    H143193   6.707   0.322   2.288 -0.7444  2.6334  2.9819
 7186TIP3    H243194   6.825   0.389   2.220 -1.7271  1.5273  0.1208
 7187TIP3   OH243195   4.891   0.702   1.754 -0.8045  0.0482 -0.2847
 7187TIP3    H143196   4.904   0.694   1.660 -1.0006  0.1663 -0.3226
 7187TIP3    H243197   4.842   0.622   1.778  0.1934 -0.5186 -0.1011
 7188TIP3   OH243198   5.878   6.510   0.151 -0.0641  0.0959 -0.1880
 7188TIP3    H143199   5.865   6.522   0.057  0.1945  1.4405 -0.0558
 7188TIP3    H243200   5.925   6.588   0.179  0.0012 -0.3765  1.0367
 7189TIP3   OH243201   6.917   7.339   2.165  0.0341  0.0549 -0.5736
 7189TIP3    H143202   6.845   7.315   2.107 -0.3355  0.4909 -0.3039
 7189TIP3    H243203   6.880   7.335   2.253  0.5978 -0.6228 -0.3663
 7190TIP3   OH243204   5.456   5.515   7.958 -0.3908 -0.3257 -0.7592
 7190TIP3    H143205   5.501   5.574   8.019 -2.9469 -1.6619  2.5551
 7190TIP3    H243206   5.514   5.511   7.883  3.4628  0.5656  1.9856
   7.34166   7.34166   8.50000
