Title
43206
    1CHL1    C3    1   3.929   3.772   5.630 -0.0054  0.2352  0.6894
    1CHL1    H3    2   3.824   3.751   5.604  0.5997 -1.6810 -0.3716
    1CHL1    O3    3   3.929   3.799   5.762  0.1746  0.1159 -0.0908
    1CHL1   H3'    4   4.011   3.846   5.780 -0.6378  0.8473  2.1695
    1CHL1    C4    5   4.003   3.638   5.597  0.0353 -0.4524 -0.1554
    1CHL1   H4A    6   4.110   3.648   5.626  0.3071  0.4942 -1.4177
    1CHL1   H4B    7   3.948   3.563   5.658 -0.2966 -0.9212 -1.0007
    1CHL1    C5    8   3.989   3.610   5.448 -0.2627 -0.0973  0.9905
    1CHL1    C6    9   3.946   3.494   5.403  0.1816  0.3223 -0.2280
    1CHL1    H6   10   3.928   3.412   5.474 -1.1463 -0.1682 -1.0719
    1CHL1    C7   11   3.943   3.448   5.257 -0.0391 -0.4729 -0.1708
    1CHL1   H7A   12   3.985   3.347   5.238  2.1319  0.6365 -1.5709
    1CHL1   H7B   13   3.836   3.443   5.228 -0.8507  1.4566  2.1099
    1CHL1    C8   14   4.010   3.557   5.159 -0.2595  1.1942  0.0789
    1CHL1    H8   15   4.118   3.531   5.169 -0.0962  1.5406 -0.6912
    1CHL1   C14   16   3.959   3.529   5.019 -0.7040  0.1346  0.8245
    1CHL1   H14   17   3.849   3.546   5.019 -0.5182  1.9771 -1.7283
    1CHL1   C15   18   3.964   3.392   4.963  0.1013  0.0958  0.0615
    1CHL1  H15A   19   4.066   3.348   4.973  0.1500  0.2867  0.4267
    1CHL1  H15B   20   3.901   3.317   5.014 -0.8060  1.5561  1.1843
    1CHL1   C16   21   3.933   3.406   4.807 -0.2286  0.5023 -0.0875
    1CHL1  H16A   22   4.010   3.356   4.745 -0.3728  1.3104 -0.9461
    1CHL1  H16B   23   3.831   3.362   4.800 -0.0389  0.0871 -0.3377
    1CHL1   C17   24   3.941   3.561   4.783  0.9217 -0.5060 -0.2995
    1CHL1   H17   25   3.835   3.593   4.785  1.9537  3.3979  2.0773
    1CHL1   C13   26   4.013   3.624   4.910 -0.3682  0.4507 -0.1086
    1CHL1   C18   27   4.160   3.601   4.908 -0.3443  0.7251  0.3427
    1CHL1  H18A   28   4.211   3.614   5.006  0.4625 -2.2159  0.4263
    1CHL1  H18B   29   4.185   3.496   4.880 -2.8168 -0.5112  2.3925
    1CHL1  H18C   30   4.211   3.662   4.831 -0.9790  1.2581  0.3378
    1CHL1   C12   31   3.984   3.770   4.947  1.1182  0.1851 -0.5841
    1CHL1  H12A   32   4.019   3.834   4.864  0.4442  1.4549  0.0813
    1CHL1  H12B   33   3.873   3.777   4.942  1.1013  0.8018  0.4009
    1CHL1   C11   34   4.026   3.802   5.092 -0.6835 -0.0433 -0.0801
    1CHL1  H11A   35   4.137   3.805   5.086 -0.7442  0.2765 -1.4646
    1CHL1  H11B   36   3.984   3.901   5.122 -0.9395 -0.0565 -0.3995
    1CHL1    C9   37   3.986   3.699   5.199 -0.1232 -0.2092 -0.1514
    1CHL1    H9   38   3.877   3.719   5.194 -0.0695 -0.1579 -3.3640
    1CHL1   C10   39   4.026   3.727   5.350  0.0689  0.2315  0.5993
    1CHL1   C19   40   4.178   3.738   5.356 -0.5188  0.4588 -0.1398
    1CHL1  H19A   41   4.228   3.642   5.333  2.1397  1.2228  1.9269
    1CHL1  H19B   42   4.221   3.818   5.292  0.4046  0.0066 -0.0957
    1CHL1  H19C   43   4.215   3.767   5.457  3.2389  1.7719 -1.7053
    1CHL1    C1   44   3.958   3.861   5.402  0.3438 -0.1689  0.3050
    1CHL1   H1A   45   3.990   3.942   5.333 -0.0562  0.3981  0.7799
    1CHL1   H1B   46   3.849   3.848   5.389  0.3618 -0.6596  0.6104
    1CHL1    C2   47   3.976   3.893   5.547  0.0417  0.0881 -0.3382
    1CHL1   H2A   48   3.910   3.979   5.572 -2.4425 -2.0446  0.9070
    1CHL1   H2B   49   4.086   3.903   5.557  0.1199 -0.9581 -0.0470
    1CHL1   C20   50   3.991   3.590   4.639  0.4374 -0.5328 -0.6987
    1CHL1   H20   51   4.097   3.556   4.628  0.8518  0.9990 -1.7070
    1CHL1   C21   52   3.982   3.742   4.615  0.2133 -0.2399 -0.5221
    1CHL1  H21A   53   3.883   3.768   4.659  0.1659  0.9314 -1.2419
    1CHL1  H21B   54   3.971   3.771   4.508  1.1733 -0.6215 -0.7278
    1CHL1  H21C   55   4.066   3.797   4.663 -0.2867 -0.0177  0.1100
    1CHL1   C22   56   3.911   3.513   4.536 -0.1572 -0.2128  0.8187
    1CHL1  H22A   57   3.905   3.404   4.554  1.8695 -0.6831 -0.9541
    1CHL1  H22B   58   3.803   3.537   4.531 -0.4597 -1.7197 -0.9511
    1CHL1   C23   59   3.976   3.522   4.399  0.4512 -0.0201 -0.1670
    1CHL1  H23A   60   3.949   3.624   4.365 -0.3035 -0.6028 -1.3720
    1CHL1  H23B   61   4.086   3.519   4.411  0.2664 -0.5884  1.8771
    1CHL1   C24   62   3.938   3.424   4.294  0.3990 -0.2065  0.5621
    1CHL1  H24A   63   3.956   3.464   4.192  0.6887 -0.4251  0.5267
    1CHL1  H24B   64   3.986   3.327   4.320 -2.3978 -1.7845  0.2274
    1CHL1   C25   65   3.789   3.383   4.286 -0.8621  0.2154  0.5117
    1CHL1   H25   66   3.758   3.329   4.378  2.8017 -2.6995  0.2853
    1CHL1   C26   67   3.695   3.503   4.264  0.2528  0.0964 -0.8229
    1CHL1  H26A   68   3.693   3.578   4.347 -1.0177 -0.6051 -0.1750
    1CHL1  H26B   69   3.721   3.559   4.172  0.9578  1.7183  0.2974
    1CHL1  H26C   70   3.592   3.466   4.245  0.1909 -1.5974  2.1976
    1CHL1   C27   71   3.758   3.285   4.167 -0.1734 -0.2597 -0.2970
    1CHL1  H27A   72   3.841   3.213   4.160 -0.0838 -0.0886 -1.0122
    1CHL1  H27B   73   3.661   3.232   4.181 -1.1845  2.2436  4.2276
    1CHL1  H27C   74   3.762   3.341   4.072  2.4820 -1.7608 -1.1497
    2CHL1    C3   75   3.618   3.394   5.647 -0.3585 -0.3774 -0.3386
    2CHL1    H3   76   3.710   3.443   5.610 -0.0504 -1.5580 -1.2282
    2CHL1    O3   77   3.639   3.377   5.785  0.9464 -0.3634  0.2197
    2CHL1   H3'   78   3.710   3.312   5.790  1.5639  0.2481 -0.3972
    2CHL1    C4   79   3.499   3.494   5.624 -0.2587  0.3489  0.3081
    2CHL1   H4A   80   3.408   3.454   5.673  0.1169 -2.3848 -1.0189
    2CHL1   H4B   81   3.537   3.581   5.682  0.7964 -1.5060  2.5735
    2CHL1    C5   82   3.484   3.520   5.474  0.2232  0.2538 -0.4609
    2CHL1    C6   83   3.497   3.639   5.418 -0.3474 -0.9046  0.1770
    2CHL1    H6   84   3.523   3.724   5.482  0.3285  0.4371 -1.7789
    2CHL1    C7   85   3.494   3.681   5.272  0.0299 -0.0697 -0.4818
    2CHL1   H7A   86   3.441   3.775   5.250  0.6624  0.5066  0.3797
    2CHL1   H7B   87   3.595   3.699   5.228  0.5720  0.6764  0.9893
    2CHL1    C8   88   3.430   3.564   5.191  0.4070  0.0746  0.6789
    2CHL1    H8   89   3.321   3.575   5.208  0.6145  1.2287  1.3524
    2CHL1   C14   90   3.468   3.581   5.047 -0.1644 -0.2935  0.4225
    2CHL1   H14   91   3.571   3.552   5.017 -0.2629 -0.5061  0.2870
    2CHL1   C15   92   3.461   3.727   4.991 -0.6967 -0.6124 -0.7277
    2CHL1  H15A   93   3.372   3.786   5.024 -0.6066 -0.3227 -0.9995
    2CHL1  H15B   94   3.554   3.779   5.022 -1.4276  0.4191 -0.1804
    2CHL1   C16   95   3.457   3.701   4.843 -0.0268 -0.3424 -0.1170
    2CHL1  H16A   96   3.372   3.759   4.801 -0.8672 -0.6845  1.0465
    2CHL1  H16B   97   3.555   3.726   4.798 -0.8579  2.4961 -0.5653
    2CHL1   C17   98   3.434   3.546   4.821 -0.3618 -0.5142 -0.7179
    2CHL1   H17   99   3.535   3.506   4.797  1.2946  1.0166  2.9135
    2CHL1   C13  100   3.388   3.488   4.953 -0.3320 -0.6369  0.5657
    2CHL1   C18  101   3.232   3.508   4.962 -0.3275  0.0791  0.0963
    2CHL1  H18A  102   3.172   3.435   4.904  0.8437  0.4923 -1.7538
    2CHL1  H18B  103   3.191   3.498   5.065  1.5688 -2.4537  0.6908
    2CHL1  H18C  104   3.214   3.609   4.919  1.5910  0.6842  0.6376
    2CHL1   C12  105   3.439   3.343   4.991 -0.3043 -0.9339  0.6444
    2CHL1  H12A  106   3.386   3.266   4.931 -2.2546 -1.3292  2.7385
    2CHL1  H12B  107   3.548   3.340   4.974  0.2173  0.8443  3.1372
    2CHL1   C11  108   3.416   3.319   5.139  0.4795 -0.3998  0.0697
    2CHL1  H11A  109   3.307   3.322   5.157  0.7004  2.4376  1.5114
    2CHL1  H11B  110   3.448   3.216   5.164  2.4641  0.8428  3.2770
    2CHL1    C9  111   3.473   3.426   5.236 -0.2373 -0.3168  0.0627
    2CHL1    H9  112   3.580   3.440   5.210 -0.5420  0.0292 -1.0469
    2CHL1   C10  113   3.462   3.397   5.389  0.0699  0.1165  0.2269
    2CHL1   C19  114   3.323   3.344   5.415  0.6038 -0.3562 -0.3816
    2CHL1  H19A  115   3.296   3.340   5.523 -2.7118  2.1130 -0.9648
    2CHL1  H19B  116   3.249   3.417   5.376  0.3812 -0.0322  0.5974
    2CHL1  H19C  117   3.319   3.241   5.375  1.6487 -1.0917  1.2898
    2CHL1    C1  118   3.566   3.289   5.426 -0.7689 -0.2575  0.0502
    2CHL1   H1A  119   3.535   3.195   5.375 -0.6495  0.3387 -1.1713
    2CHL1   H1B  120   3.668   3.318   5.393  0.4865  0.6470  4.1259
    2CHL1    C2  121   3.590   3.268   5.580 -0.5468  0.7899 -0.8335
    2CHL1   H2A  122   3.670   3.195   5.608 -1.5220  0.0096  0.0223
    2CHL1   H2B  123   3.504   3.210   5.620  1.0981 -1.1880  0.0213
    2CHL1   C20  124   3.345   3.520   4.699  0.1230  0.1152 -0.1371
    2CHL1   H20  125   3.245   3.562   4.722  0.1263 -0.0353  0.1647
    2CHL1   C21  126   3.325   3.372   4.681 -0.8778  0.4105  0.4436
    2CHL1  H21A  127   3.422   3.320   4.667  0.0074  1.2400  2.9565
    2CHL1  H21B  128   3.263   3.343   4.594 -0.2264 -2.1431  0.7456
    2CHL1  H21C  129   3.274   3.320   4.765 -1.8944 -0.3121 -0.5823
    2CHL1   C22  130   3.389   3.581   4.568  0.1371  0.5130 -0.1488
    2CHL1  H22A  131   3.390   3.692   4.568 -0.4169  0.5675  2.1505
    2CHL1  H22B  132   3.492   3.543   4.548 -0.7156 -0.1044 -4.3003
    2CHL1   C23  133   3.308   3.541   4.436  0.0036 -0.6285  0.1338
    2CHL1  H23A  134   3.354   3.447   4.399  1.0754 -1.0380  2.3616
    2CHL1  H23B  135   3.200   3.541   4.461 -0.5748 -0.0147 -2.1089
    2CHL1   C24  136   3.320   3.655   4.327 -0.4390 -0.3599 -0.2039
    2CHL1  H24A  137   3.293   3.754   4.369  3.7608  0.7104  0.4183
    2CHL1  H24B  138   3.429   3.667   4.309 -0.5366 -1.4033 -1.7376
    2CHL1   C25  139   3.262   3.623   4.188 -0.0748 -0.1038  0.3138
    2CHL1   H25  140   3.157   3.603   4.218 -0.0143 -0.8238  0.0554
    2CHL1   C26  141   3.260   3.738   4.084  0.5719 -0.0181  0.3326
    2CHL1  H26A  142   3.235   3.837   4.127  1.8946  0.7029 -0.4806
    2CHL1  H26B  143   3.360   3.749   4.036  1.1626  1.6250  1.8571
    2CHL1  H26C  144   3.195   3.697   4.004  2.4335 -1.5640 -0.4861
    2CHL1   C27  145   3.326   3.498   4.129  0.1144 -0.4316 -0.3323
    2CHL1  H27A  146   3.433   3.515   4.102  1.6046 -0.1927  4.6556
    2CHL1  H27B  147   3.316   3.416   4.204 -1.0521  1.5146  1.7624
    2CHL1  H27C  148   3.275   3.473   4.034 -0.3172  1.2997 -0.5934
    3CHL1    C3  149   3.208   3.743   5.835 -0.1045 -0.3050 -0.1027
    3CHL1    H3  150   3.315   3.754   5.807 -0.0685 -0.8063 -0.1668
    3CHL1    O3  151   3.208   3.705   5.976  0.2246  0.2706 -0.8249
    3CHL1   H3'  152   3.248   3.618   5.977 -1.9664 -0.8197  0.7262
    3CHL1    C4  153   3.123   3.873   5.810 -0.3244 -0.5509 -0.0028
    3CHL1   H4A  154   3.022   3.844   5.846 -0.7570 -0.8914 -1.4160
    3CHL1   H4B  155   3.151   3.957   5.878  0.4864 -1.8464  1.3297
    3CHL1    C5  156   3.124   3.908   5.662  0.1563  0.2348  0.6520
    3CHL1    C6  157   3.168   4.030   5.624  0.4325  0.4080 -0.2374
    3CHL1    H6  158   3.213   4.098   5.698  2.7891 -1.0322 -0.2581
    3CHL1    C7  159   3.162   4.071   5.479  1.1525  0.3997 -0.5678
    3CHL1   H7A  160   3.120   4.174   5.480 -0.2002 -0.1307  1.1921
    3CHL1   H7B  161   3.267   4.073   5.442  1.5028 -0.4553  0.2983
    3CHL1    C8  162   3.079   3.977   5.392 -0.8433 -0.6872  0.3443
    3CHL1    H8  163   2.977   4.005   5.427 -0.4283  1.7827 -0.2136
    3CHL1   C14  164   3.112   4.011   5.244  0.3168  0.5572  0.2857
    3CHL1   H14  165   3.213   3.974   5.218 -0.2704 -0.1589 -1.1514
    3CHL1   C15  166   3.116   4.155   5.195 -0.1386  0.0661  0.2860
    3CHL1  H15A  167   3.023   4.202   5.233 -1.2235  0.0589 -2.1544
    3CHL1  H15B  168   3.205   4.211   5.232  1.4584 -2.8766  1.2254
    3CHL1   C16  169   3.122   4.150   5.041 -0.0472  0.8373 -0.1678
    3CHL1  H16A  170   3.048   4.224   5.003 -3.1874 -1.5065  1.0070
    3CHL1  H16B  171   3.227   4.181   5.022  0.2929 -1.0295 -1.5545
    3CHL1   C17  172   3.092   3.999   5.004  0.3310  0.3475 -0.0217
    3CHL1   H17  173   3.188   3.945   4.989 -0.5367 -1.0459 -0.7736
    3CHL1   C13  174   3.031   3.939   5.136  0.1023 -0.1036 -0.3758
    3CHL1   C18  175   2.876   3.966   5.157  0.5820 -0.7239 -0.2574
    3CHL1  H18A  176   2.850   4.073   5.139  1.3198 -0.6879 -1.2027
    3CHL1  H18B  177   2.818   3.896   5.094 -2.3926  0.0264  1.4378
    3CHL1  H18C  178   2.838   3.947   5.260  1.3621 -0.5278  0.0752
    3CHL1   C12  179   3.065   3.794   5.165 -0.4086  0.4291  0.1671
    3CHL1  H12A  180   3.005   3.734   5.093  0.5519  0.7713 -0.9588
    3CHL1  H12B  181   3.171   3.781   5.135 -0.2299  1.3332  0.3781
    3CHL1   C11  182   3.046   3.742   5.309  0.5329  0.4611 -0.1190
    3CHL1  H11A  183   2.936   3.739   5.318  0.3878  3.0057 -0.4079
    3CHL1  H11B  184   3.074   3.634   5.312 -0.1100  0.2765 -0.5961
    3CHL1    C9  185   3.108   3.829   5.427 -0.5727 -0.4699  0.1883
    3CHL1    H9  186   3.218   3.817   5.416 -0.7147 -0.1773 -1.8041
    3CHL1   C10  187   3.075   3.795   5.569 -0.0684 -0.5724  0.4531
    3CHL1   C19  188   2.924   3.793   5.586  0.7031  0.6447 -0.3704
    3CHL1  H19A  189   2.869   3.767   5.493  2.3528 -1.8893 -0.7391
    3CHL1  H19B  190   2.900   3.722   5.668  0.3811  0.8473 -0.2905
    3CHL1  H19C  191   2.887   3.896   5.603  2.2126  1.5401 -2.1127
    3CHL1    C1  192   3.138   3.661   5.611 -0.1586  0.0200 -0.1125
    3CHL1   H1A  193   3.099   3.570   5.561 -0.0483  0.7779 -1.6128
    3CHL1   H1B  194   3.245   3.668   5.582  1.1997  0.8706  4.3126
    3CHL1    C2  195   3.144   3.632   5.760 -0.1814  0.3696 -0.2545
    3CHL1   H2A  196   3.192   3.537   5.794 -1.1780  0.2824  1.0044
    3CHL1   H2B  197   3.044   3.631   5.809 -0.9522  1.6194 -1.7336
    3CHL1   C20  198   2.995   3.975   4.884  0.5939 -0.3762  0.4044
    3CHL1   H20  199   2.929   3.889   4.908 -0.2001 -0.4830 -1.9433
    3CHL1   C21  200   3.087   3.932   4.766  0.0768  0.1429  0.0583
    3CHL1  H21A  201   3.033   3.911   4.671  0.5679 -1.0960  0.0426
    3CHL1  H21B  202   3.146   3.846   4.803  0.3498  0.6040  0.7193
    3CHL1  H21C  203   3.153   4.017   4.740  0.6590 -0.8421 -1.8535
    3CHL1   C22  204   2.912   4.096   4.830  0.4325  0.5790  0.0931
    3CHL1  H22A  205   2.859   4.141   4.916  1.3595 -2.7290  2.5963
    3CHL1  H22B  206   2.988   4.161   4.782  2.6667 -2.3601 -0.6790
    3CHL1   C23  207   2.798   4.063   4.739  0.5684 -0.1678  0.7658
    3CHL1  H23A  208   2.841   4.009   4.652  1.1232  1.2338  0.1532
    3CHL1  H23B  209   2.739   3.986   4.794 -0.7759  0.2127 -0.1216
    3CHL1   C24  210   2.714   4.189   4.695 -0.0138  0.3041  0.0936
    3CHL1  H24A  211   2.713   4.273   4.768 -1.7445  0.5454 -0.1583
    3CHL1  H24B  212   2.760   4.233   4.604 -0.5110  1.1090  0.2254
    3CHL1   C25  213   2.566   4.156   4.674 -0.4367  0.4868  0.9492
    3CHL1   H25  214   2.545   4.081   4.595  0.9383  0.0943  0.9410
    3CHL1   C26  215   2.494   4.125   4.806 -0.4609 -0.1361  0.3759
    3CHL1  H26A  216   2.388   4.111   4.774 -0.2832 -1.1800  0.2031
    3CHL1  H26B  217   2.521   4.038   4.870 -0.2077  0.3041  0.8754
    3CHL1  H26C  218   2.486   4.220   4.863 -0.5802 -0.2857  0.6119
    3CHL1   C27  219   2.513   4.292   4.611 -0.2499 -0.0385  0.7760
    3CHL1  H27A  220   2.538   4.384   4.667  2.2681  1.8312 -3.0322
    3CHL1  H27B  221   2.566   4.312   4.516  0.9351  2.3378  1.8653
    3CHL1  H27C  222   2.403   4.285   4.597 -0.5228  1.5126  1.8580
    4CHL1    C3  223   3.698   4.147   5.730  0.1099 -0.3073  0.5827
    4CHL1    H3  224   3.777   4.074   5.703  0.7944  1.3378 -2.3094
    4CHL1    O3  225   3.679   4.149   5.869 -0.5202  0.2589  0.2438
    4CHL1   H3'  226   3.761   4.161   5.918 -0.1908  1.2747 -0.5359
    4CHL1    C4  227   3.721   4.280   5.663  0.2404  0.5829 -0.0498
    4CHL1   H4A  228   3.631   4.342   5.685  2.0793  2.1540  4.0283
    4CHL1   H4B  229   3.803   4.333   5.716  1.7905 -0.0658 -1.7170
    4CHL1    C5  230   3.745   4.260   5.518 -0.2756 -0.2149 -0.1747
    4CHL1    C6  231   3.855   4.303   5.457  0.2127 -0.4333  0.4584
    4CHL1    H6  232   3.933   4.354   5.516 -0.8624  2.2638 -0.3080
    4CHL1    C7  233   3.878   4.285   5.307 -0.2987  0.2097  0.2562
    4CHL1   H7A  234   3.951   4.359   5.271 -0.9293  1.2730  1.1014
    4CHL1   H7B  235   3.933   4.188   5.305  0.8127  0.8492 -1.3659
    4CHL1    C8  236   3.747   4.273   5.219 -0.8303  0.1708 -0.5901
    4CHL1    H8  237   3.703   4.374   5.224 -2.9823 -0.6748 -1.2564
    4CHL1   C14  238   3.779   4.231   5.081  0.4991  0.5625  0.3542
    4CHL1   H14  239   3.849   4.144   5.081 -2.4149 -1.9344 -0.3989
    4CHL1   C15  240   3.866   4.330   5.002  0.9551  0.2267  0.2732
    4CHL1  H15A  241   3.843   4.437   5.016  1.3432  0.3775 -0.2066
    4CHL1  H15B  242   3.972   4.305   5.027  0.2269 -2.0004  1.4515
    4CHL1   C16  243   3.834   4.286   4.856  0.1155 -0.2899 -0.0401
    4CHL1  H16A  244   3.794   4.371   4.797 -2.5102 -2.0442 -0.9549
    4CHL1  H16B  245   3.925   4.259   4.798 -1.4849 -0.4134 -2.6173
    4CHL1   C17  246   3.730   4.172   4.857 -0.7602 -0.0335  0.5688
    4CHL1   H17  247   3.793   4.081   4.872 -0.4166  0.4054  2.0131
    4CHL1   C13  248   3.658   4.185   4.994 -0.9583 -0.3706  0.6163
    4CHL1   C18  249   3.559   4.303   4.967  0.0063 -0.3655 -0.0457
    4CHL1  H18A  250   3.463   4.270   4.922  0.1013 -0.2362 -0.3460
    4CHL1  H18B  251   3.537   4.365   5.057 -1.9234  0.8985 -1.3180
    4CHL1  H18C  252   3.600   4.374   4.892 -0.1929 -1.1090 -0.8741
    4CHL1   C12  253   3.592   4.069   5.058 -0.6757 -0.9202  0.7053
    4CHL1  H12A  254   3.496   4.058   5.003 -1.5623 -1.1147  2.2353
    4CHL1  H12B  255   3.653   3.976   5.048  2.7901  1.1070  1.2880
    4CHL1   C11  256   3.548   4.111   5.199 -0.4882  0.1233 -0.0785
    4CHL1  H11A  257   3.463   4.182   5.202 -0.9342 -0.4533  1.8354
    4CHL1  H11B  258   3.515   4.015   5.244 -0.5911 -0.1355 -0.6995
    4CHL1    C9  259   3.664   4.162   5.291  0.0505  0.6686  0.4267
    4CHL1    H9  260   3.737   4.079   5.290  0.6133  0.9930 -3.8313
    4CHL1   C10  261   3.632   4.190   5.438  0.3501 -0.3132 -0.0264
    4CHL1   C19  262   3.519   4.294   5.442  0.2051  0.6023 -0.4755
    4CHL1  H19A  263   3.487   4.333   5.541  1.7541  1.3218 -0.2195
    4CHL1  H19B  264   3.557   4.381   5.383  1.5964  1.3441  1.3994
    4CHL1  H19C  265   3.428   4.254   5.393  0.4233  1.1780 -1.3725
    4CHL1    C1  266   3.588   4.067   5.516 -0.0949  0.9838  0.1973
    4CHL1   H1A  267   3.483   4.042   5.489 -1.0490  1.6820  2.8813
    4CHL1   H1B  268   3.653   3.979   5.501 -0.2209  1.1684 -1.6889
    4CHL1    C2  269   3.570   4.083   5.668 -0.0617  0.1951 -0.0976
    4CHL1   H2A  270   3.568   3.990   5.729  1.5240 -0.2586 -0.6923
    4CHL1   H2B  271   3.475   4.138   5.684 -1.8867 -3.0304  1.2143
    4CHL1   C20  272   3.658   4.150   4.719  0.4301  0.1068  0.0467
    4CHL1   H20  273   3.620   4.247   4.681  1.2425  0.2862 -0.3327
    4CHL1   C21  274   3.540   4.053   4.727 -0.1649 -0.3853  0.2194
    4CHL1  H21A  275   3.566   3.957   4.776  3.5526  0.9396  1.1617
    4CHL1  H21B  276   3.488   4.035   4.630 -1.4469 -1.6362  1.1082
    4CHL1  H21C  277   3.463   4.100   4.792 -0.1999  1.0237 -0.7827
    4CHL1   C22  278   3.759   4.090   4.614 -0.4513  0.2054 -0.5811
    4CHL1  H22A  279   3.828   4.172   4.585  0.6537  0.2303  1.8379
    4CHL1  H22B  280   3.817   4.014   4.669  1.2922  1.3148 -0.8241
    4CHL1   C23  281   3.704   4.030   4.485  0.1258  0.0563  0.3125
    4CHL1  H23A  282   3.649   3.936   4.505  0.7693 -0.4486 -0.2866
    4CHL1  H23B  283   3.635   4.108   4.447  0.3266  0.4545  0.7459
    4CHL1   C24  284   3.803   3.993   4.371 -0.5279  0.1060  0.2091
    4CHL1  H24A  285   3.877   4.075   4.355  0.0096 -0.5074 -0.5376
    4CHL1  H24B  286   3.862   3.902   4.396 -1.7933 -1.1519 -1.1741
    4CHL1   C25  287   3.727   3.969   4.239 -0.2212 -0.6113 -0.0332
    4CHL1   H25  288   3.666   4.059   4.215 -1.9278 -2.4912 -3.6261
    4CHL1   C26  289   3.824   3.943   4.127 -0.5198 -0.4303  0.2123
    4CHL1  H26A  290   3.899   3.864   4.141  0.5344  0.3986 -0.5720
    4CHL1  H26B  291   3.780   3.927   4.026  0.7085 -2.9013  0.0039
    4CHL1  H26C  292   3.878   4.040   4.124 -1.2203  0.0997  2.7571
    4CHL1   C27  293   3.630   3.850   4.232 -0.5555 -0.1559 -0.5494
    4CHL1  H27A  294   3.678   3.757   4.268 -1.0626 -1.5200 -3.1912
    4CHL1  H27B  295   3.535   3.866   4.288 -1.7296 -1.7184 -2.0004
    4CHL1  H27C  296   3.602   3.845   4.125 -0.4391  0.6140 -0.6190
    5CHL1    C3  297   4.344   4.487   5.484  0.3740  0.6486 -0.1191
    5CHL1    H3  298   4.356   4.593   5.518 -1.4449  0.6036  0.7596
    5CHL1    O3  299   4.360   4.407   5.598 -0.1058  0.7397 -0.4499
    5CHL1   H3'  300   4.383   4.317   5.572  0.7186  0.5726  0.7422
    5CHL1    C4  301   4.205   4.462   5.430 -0.2681 -0.2426  0.5867
    5CHL1   H4A  302   4.176   4.355   5.431 -0.5800 -0.1582  0.7557
    5CHL1   H4B  303   4.138   4.498   5.511  1.2552  2.5194  0.7354
    5CHL1    C5  304   4.182   4.539   5.304 -0.1538 -0.0596  0.1461
    5CHL1    C6  305   4.082   4.629   5.275 -0.2841 -0.6239 -0.1749
    5CHL1    H6  306   3.999   4.647   5.344  0.3470  1.1707  0.1778
    5CHL1    C7  307   4.061   4.688   5.141  0.1322  0.2218  0.1557
    5CHL1   H7A  308   3.953   4.699   5.114 -0.0098 -1.0553  0.1485
    5CHL1   H7B  309   4.101   4.792   5.139 -2.2401  1.2112 -1.6878
    5CHL1    C8  310   4.141   4.615   5.025  0.5676  0.3456 -0.1347
    5CHL1    H8  311   4.098   4.516   4.998 -0.9003  0.7717  0.5162
    5CHL1   C14  312   4.137   4.706   4.907  0.0593 -0.0259 -0.4628
    5CHL1   H14  313   4.181   4.801   4.943 -2.3377  0.6683  0.8559
    5CHL1   C15  314   3.999   4.744   4.866  0.6064 -0.0370  1.0776
    5CHL1  H15A  315   3.937   4.655   4.847 -1.6220  1.4437  1.0099
    5CHL1  H15B  316   3.944   4.810   4.937 -0.8253  1.6638 -1.4532
    5CHL1   C16  317   4.025   4.811   4.732  0.0833  0.4941  0.3119
    5CHL1  H16A  318   3.952   4.774   4.657  1.3937 -1.4919 -0.0459
    5CHL1  H16B  319   4.016   4.921   4.744 -1.4793  0.4112  0.1002
    5CHL1   C17  320   4.171   4.773   4.689  0.6240 -0.4055  0.8718
    5CHL1   H17  321   4.237   4.855   4.723 -1.3437  0.7234  2.1702
    5CHL1   C13  322   4.213   4.656   4.783 -0.0389  0.2719  0.1406
    5CHL1   C18  323   4.153   4.517   4.742 -0.3651  0.6949  0.0638
    5CHL1  H18A  324   4.055   4.532   4.691 -0.1625  1.6908 -0.0589
    5CHL1  H18B  325   4.209   4.474   4.656 -2.3777 -2.1429  0.0507
    5CHL1  H18C  326   4.150   4.438   4.820 -0.0163 -1.0695 -1.6205
    5CHL1   C12  327   4.356   4.659   4.835 -0.5005  0.6856  0.4222
    5CHL1  H12A  328   4.422   4.624   4.753 -1.2571  2.1396 -0.8804
    5CHL1  H12B  329   4.392   4.759   4.868 -0.4887  0.6686  0.4609
    5CHL1   C11  330   4.370   4.559   4.953  0.1651  0.2680 -0.2582
    5CHL1  H11A  331   4.341   4.458   4.918  0.4892 -0.0827  0.4659
    5CHL1  H11B  332   4.478   4.556   4.979  0.9782  2.9166 -2.8413
    5CHL1    C9  333   4.281   4.601   5.077  0.3457  0.8661 -0.3978
    5CHL1    H9  334   4.324   4.700   5.103  0.6024  0.0241  2.7585
    5CHL1   C10  335   4.296   4.506   5.195  0.5774  0.3580 -0.2749
    5CHL1   C19  336   4.271   4.354   5.154 -0.2039 -0.3277  0.9756
    5CHL1  H19A  337   4.333   4.323   5.067 -1.6889 -2.1334  0.4849
    5CHL1  H19B  338   4.264   4.281   5.237 -2.1953  0.2042  1.3352
    5CHL1  H19C  339   4.172   4.365   5.105  1.0895  1.7425 -1.4389
    5CHL1    C1  340   4.438   4.523   5.257  0.2588 -0.6310 -0.4904
    5CHL1   H1A  341   4.512   4.497   5.178 -2.2286 -4.0253 -1.9337
    5CHL1   H1B  342   4.441   4.631   5.284 -3.6130 -0.5055  0.0735
    5CHL1    C2  343   4.454   4.444   5.386 -0.8427 -0.0240 -1.0304
    5CHL1   H2A  344   4.557   4.472   5.417 -1.6774  3.1604 -0.7744
    5CHL1   H2B  345   4.451   4.337   5.355  1.2490 -0.1801 -0.8206
    5CHL1   C20  346   4.188   4.752   4.537  0.5357 -0.3719  0.3966
    5CHL1   H20  347   4.108   4.679   4.516  0.0697 -0.0397  0.9894
    5CHL1   C21  348   4.327   4.700   4.496  0.6660  0.4117  0.1933
    5CHL1  H21A  349   4.407   4.756   4.551  0.7006 -0.9941  1.6538
    5CHL1  H21B  350   4.345   4.705   4.387  2.8808  0.7080  0.5242
    5CHL1  H21C  351   4.344   4.593   4.520 -2.3537  0.1744  1.7507
    5CHL1   C22  352   4.164   4.894   4.457 -0.3339 -0.2323 -1.1425
    5CHL1  H22A  353   4.077   4.956   4.489  0.8699  1.7766 -1.6131
    5CHL1  H22B  354   4.257   4.954   4.465 -0.2877 -0.2774 -1.3427
    5CHL1   C23  355   4.122   4.874   4.313 -0.1281 -0.2640 -0.6718
    5CHL1  H23A  356   4.090   4.972   4.270  0.5012 -0.0099 -0.5612
    5CHL1  H23B  357   4.211   4.833   4.260  0.4241  0.4801 -0.3334
    5CHL1   C24  358   4.000   4.784   4.295 -0.1140  0.3484  0.3441
    5CHL1  H24A  359   4.027   4.684   4.334  1.0375  0.7537  0.6376
    5CHL1  H24B  360   3.920   4.820   4.362  1.0119  2.7084  0.5309
    5CHL1   C25  361   3.945   4.761   4.148 -0.0970  0.8246 -0.4108
    5CHL1   H25  362   3.857   4.694   4.162  1.8132 -1.8689 -0.5355
    5CHL1   C26  363   3.908   4.888   4.076 -0.1122  0.2233  0.0501
    5CHL1  H26A  364   3.886   4.872   3.968  0.4516 -0.5414  0.0428
    5CHL1  H26B  365   3.816   4.926   4.125  0.3642  0.0115  1.1236
    5CHL1  H26C  366   3.997   4.954   4.078  0.7596 -0.9421  2.5783
    5CHL1   C27  367   4.052   4.687   4.068  0.4311  0.0796 -0.0816
    5CHL1  H27A  368   4.138   4.754   4.049  0.2167  0.2642 -0.4062
    5CHL1  H27B  369   4.094   4.604   4.129 -0.9768  0.1301  1.0381
    5CHL1  H27C  370   4.018   4.631   3.978 -1.2067  0.2642  0.3807
    6CHL1    C3  371   3.162   2.486   5.699 -0.4308 -0.1890  0.3364
    6CHL1    H3  372   3.076   2.423   5.667 -0.0737 -0.9093  0.7834
    6CHL1    O3  373   3.193   2.450   5.836  0.2206 -1.2943 -0.4024
    6CHL1   H3'  374   3.286   2.428   5.844 -0.1264 -2.1877  1.7800
    6CHL1    C4  375   3.289   2.468   5.616 -0.3014 -0.5705 -0.9066
    6CHL1   H4A  376   3.371   2.536   5.648  1.6037 -2.8402 -0.6503
    6CHL1   H4B  377   3.335   2.370   5.641 -0.6694 -0.4883  0.1312
    6CHL1    C5  378   3.270   2.494   5.467  0.4000  0.7162  0.6166
    6CHL1    C6  379   3.278   2.388   5.381  0.6342  0.1051 -0.0609
    6CHL1    H6  380   3.295   2.287   5.422 -1.2868  0.4220  1.7253
    6CHL1    C7  381   3.254   2.404   5.232  0.5316 -0.1263 -0.6209
    6CHL1   H7A  382   3.326   2.359   5.162 -0.3590 -0.3494 -1.4081
    6CHL1   H7B  383   3.153   2.368   5.205 -0.4030  3.0481 -1.8603
    6CHL1    C8  384   3.251   2.556   5.191  0.0842 -0.2731  0.1121
    6CHL1    H8  385   3.355   2.595   5.189  0.2659 -0.8000 -1.4054
    6CHL1   C14  386   3.191   2.575   5.057 -0.7797  0.2613 -0.3940
    6CHL1   H14  387   3.086   2.538   5.063 -0.1277 -2.1189 -2.0066
    6CHL1   C15  388   3.248   2.489   4.947 -0.5771  0.1948  0.7452
    6CHL1  H15A  389   3.358   2.478   4.950 -0.7608 -2.3003  0.3926
    6CHL1  H15B  390   3.209   2.385   4.958  0.3629 -0.0952  1.4329
    6CHL1   C16  391   3.195   2.547   4.811  0.4687  0.2990 -0.7821
    6CHL1  H16A  392   3.278   2.552   4.737  0.2438 -2.7094 -1.3493
    6CHL1  H16B  393   3.102   2.499   4.774 -0.9902  1.2465  1.4723
    6CHL1   C17  394   3.135   2.685   4.854  0.3152  0.5277  0.5258
    6CHL1   H17  395   3.026   2.666   4.869  0.2661  1.3012  1.2266
    6CHL1   C13  396   3.184   2.716   4.996 -0.1532  0.0599 -0.9808
    6CHL1   C18  397   3.328   2.770   4.991 -0.1169 -0.0732 -0.7553
    6CHL1  H18A  398   3.388   2.709   4.921 -1.0502  0.3862 -1.9831
    6CHL1  H18B  399   3.320   2.868   4.941 -0.1523 -0.7490 -2.1095
    6CHL1  H18C  400   3.390   2.777   5.083 -1.4425  0.1136  0.1519
    6CHL1   C12  401   3.090   2.795   5.089 -0.0916 -0.2810  0.3556
    6CHL1  H12A  402   3.081   2.903   5.063 -1.8767 -0.2792  0.8888
    6CHL1  H12B  403   2.987   2.755   5.084 -0.0444 -0.2283 -1.6207
    6CHL1   C11  404   3.139   2.784   5.243 -0.1329 -0.5715  0.6930
    6CHL1  H11A  405   3.236   2.839   5.239 -1.5882  2.1699  0.5140
    6CHL1  H11B  406   3.068   2.834   5.312  0.6763  0.4103  0.8516
    6CHL1    C9  407   3.167   2.640   5.290 -0.0903  0.1269 -0.1995
    6CHL1    H9  408   3.071   2.583   5.293  0.8508 -1.5487 -1.0451
    6CHL1   C10  409   3.215   2.633   5.436 -0.0012  0.0987  0.2557
    6CHL1   C19  410   3.324   2.742   5.463 -0.4301  1.0018  0.1318
    6CHL1  H19A  411   3.403   2.730   5.385  1.7026  2.8580  1.8558
    6CHL1  H19B  412   3.288   2.847   5.447  2.5582  1.7958 -2.3619
    6CHL1  H19C  413   3.366   2.717   5.562  1.5596 -3.2494 -1.5557
    6CHL1    C1  414   3.094   2.658   5.527  0.0037  0.7308 -0.1845
    6CHL1   H1A  415   3.059   2.763   5.528 -0.6622  0.5182 -0.2556
    6CHL1   H1B  416   3.004   2.606   5.488  0.2027  0.0673  0.2278
    6CHL1    C2  417   3.109   2.630   5.683  0.1504 -0.6734 -0.2409
    6CHL1   H2A  418   3.010   2.640   5.734 -0.7594  0.3031 -2.0963
    6CHL1   H2B  419   3.180   2.707   5.719  1.4798 -0.2693 -3.4119
    6CHL1   C20  420   3.142   2.788   4.739 -0.2384  0.1262  0.8469
    6CHL1   H20  421   3.130   2.885   4.790  3.0063  0.5874  0.9566
    6CHL1   C21  422   3.018   2.756   4.644 -0.6608 -1.1665 -0.8057
    6CHL1  H21A  423   3.044   2.660   4.595  1.4571 -0.9238 -0.2681
    6CHL1  H21B  424   3.005   2.837   4.569 -1.1633  1.4982  1.9668
    6CHL1  H21C  425   2.921   2.753   4.698  0.0506  1.1837  0.7650
    6CHL1   C22  426   3.280   2.788   4.659 -0.3523 -0.6570 -0.0869
    6CHL1  H22A  427   3.370   2.793   4.723  1.3187 -0.5006 -2.3503
    6CHL1  H22B  428   3.283   2.695   4.599  1.5926 -0.0522 -0.9924
    6CHL1   C23  429   3.294   2.906   4.556 -0.2023 -0.3199  0.7887
    6CHL1  H23A  430   3.203   2.902   4.493  0.4655 -0.9751 -0.1664
    6CHL1  H23B  431   3.283   3.005   4.605 -0.4801  0.4025 -0.7049
    6CHL1   C24  432   3.413   2.897   4.463 -0.1216  0.5300 -0.1413
    6CHL1  H24A  433   3.494   2.934   4.529 -0.1489 -1.3282  0.9724
    6CHL1  H24B  434   3.439   2.799   4.418  1.4725  1.2039 -0.7680
    6CHL1   C25  435   3.397   2.992   4.340 -0.3465 -0.3563 -0.3081
    6CHL1   H25  436   3.294   2.998   4.298 -0.2791 -0.5155 -0.4958
    6CHL1   C26  437   3.433   3.136   4.384 -0.2478 -0.1224 -0.0921
    6CHL1  H26A  438   3.531   3.154   4.434  0.0381 -1.7985  0.0137
    6CHL1  H26B  439   3.425   3.211   4.302  2.3137  0.4924  0.1211
    6CHL1  H26C  440   3.352   3.162   4.455  0.5806 -1.0332  1.2281
    6CHL1   C27  441   3.483   2.948   4.223  0.4053  0.1055 -0.0110
    6CHL1  H27A  442   3.468   3.021   4.141 -1.2866 -0.4203 -0.2089
    6CHL1  H27B  443   3.588   2.946   4.261  0.8022  2.1854 -0.8711
    6CHL1  H27C  444   3.459   2.844   4.193 -1.8761 -0.0815  2.1879
    7CHL1    C3  445   4.414   2.460   5.591 -1.0782  0.3220  0.3213
    7CHL1    H3  446   4.461   2.559   5.572  0.0923  0.2901  2.7092
    7CHL1    O3  447   4.441   2.425   5.728  0.0729 -0.8281  0.1008
    7CHL1   H3'  448   4.452   2.330   5.739 -0.0387 -0.8698 -0.1507
    7CHL1    C4  449   4.264   2.461   5.557  0.4619 -0.2909 -0.1069
    7CHL1   H4A  450   4.219   2.361   5.574  1.1204 -0.7320 -0.8198
    7CHL1   H4B  451   4.213   2.537   5.619  0.9847 -0.6965  0.8342
    7CHL1    C5  452   4.229   2.495   5.417  0.6779 -0.3596 -0.1394
    7CHL1    C6  453   4.136   2.588   5.397  0.2863 -0.7165  0.3305
    7CHL1    H6  454   4.087   2.643   5.479 -0.5887  1.8365 -1.7927
    7CHL1    C7  455   4.105   2.641   5.262 -1.0074  0.0948  0.3405
    7CHL1   H7A  456   3.995   2.659   5.267 -1.2901 -0.7402 -1.6508
    7CHL1   H7B  457   4.154   2.739   5.245  0.6386 -1.0937 -2.4856
    7CHL1    C8  458   4.147   2.545   5.148 -0.8292  0.3292  0.1480
    7CHL1    H8  459   4.068   2.468   5.139 -1.1196  0.5836  0.4974
    7CHL1   C14  460   4.140   2.622   5.014 -0.0948 -0.6048 -0.5586
    7CHL1   H14  461   4.213   2.704   5.030 -0.2875 -0.2797 -1.3285
    7CHL1   C15  462   4.009   2.696   4.971  0.0316 -0.0203  0.3131
    7CHL1  H15A  463   3.930   2.618   4.979 -0.3938  0.4818  1.2894
    7CHL1  H15B  464   3.987   2.783   5.038  0.6425  1.7715 -1.6871
    7CHL1   C16  465   4.040   2.726   4.826  0.4192 -0.6865 -0.2999
    7CHL1  H16A  466   3.950   2.712   4.763 -1.2876 -2.1416  2.2730
    7CHL1  H16B  467   4.058   2.835   4.813 -0.6895 -0.5572 -0.8277
    7CHL1   C17  468   4.164   2.651   4.785 -0.1448 -0.8462 -0.0668
    7CHL1   H17  469   4.253   2.717   4.783  0.9563 -2.3218 -1.4589
    7CHL1   C13  470   4.186   2.543   4.898 -0.6658  0.0376  0.6454
    7CHL1   C18  471   4.097   2.419   4.876 -0.1968  0.4996  0.3277
    7CHL1  H18A  472   4.081   2.344   4.957 -1.7271 -1.3625 -1.5679
    7CHL1  H18B  473   3.992   2.450   4.857 -0.4556 -0.5512 -0.0467
    7CHL1  H18C  474   4.121   2.351   4.791 -2.6385 -1.4371  1.0742
    7CHL1   C12  475   4.329   2.488   4.916  0.2834  0.7017 -0.3581
    7CHL1  H12A  476   4.347   2.415   4.835 -1.4474 -1.3492  1.0017
    7CHL1  H12B  477   4.409   2.566   4.918  1.9744 -0.9817  0.2245
    7CHL1   C11  478   4.338   2.409   5.044  0.2419 -0.1318  0.1116
    7CHL1  H11A  479   4.285   2.314   5.021  2.2470 -1.0207 -1.0843
    7CHL1  H11B  480   4.445   2.383   5.062  0.6255  0.4431 -1.2452
    7CHL1    C9  481   4.286   2.488   5.169 -0.1917 -0.2861 -0.3045
    7CHL1    H9  482   4.345   2.582   5.171 -1.6431  0.6632 -0.9320
    7CHL1   C10  483   4.304   2.416   5.307  0.0390  0.4865 -0.4104
    7CHL1   C19  484   4.255   2.273   5.288  0.3831  0.3938  0.0980
    7CHL1  H19A  485   4.259   2.224   5.387 -0.3176  2.6639  1.3228
    7CHL1  H19B  486   4.157   2.274   5.237  0.7345 -0.8593 -0.6403
    7CHL1  H19C  487   4.328   2.210   5.232  0.1382 -0.5677  0.8409
    7CHL1    C1  488   4.459   2.414   5.343 -0.4196  0.0971 -0.2339
    7CHL1   H1A  489   4.518   2.346   5.278 -0.1159  1.0618 -0.9834
    7CHL1   H1B  490   4.511   2.511   5.329 -0.2147  0.2642  1.4877
    7CHL1    C2  491   4.486   2.371   5.491 -0.1669 -0.1645  0.6345
    7CHL1   H2A  492   4.594   2.386   5.512 -0.3618  0.6809  1.0854
    7CHL1   H2B  493   4.447   2.267   5.501 -2.2760  0.7297  2.7271
    7CHL1   C20  494   4.155   2.604   4.641  0.2757 -0.1243  0.8086
    7CHL1   H20  495   4.057   2.552   4.633 -0.5386  1.3938  0.7575
    7CHL1   C21  496   4.275   2.513   4.597 -0.2063  0.4662 -0.7158
    7CHL1  H21A  497   4.257   2.484   4.491 -0.3280 -0.1871 -0.5247
    7CHL1  H21B  498   4.274   2.419   4.657 -1.0841 -0.1577 -1.6798
    7CHL1  H21C  499   4.363   2.577   4.617 -0.2868  0.4216 -0.1927
    7CHL1   C22  500   4.149   2.732   4.552  0.0594 -0.2230  0.3748
    7CHL1  H22A  501   4.110   2.820   4.607 -1.5775  0.9945 -2.5306
    7CHL1  H22B  502   4.255   2.757   4.527  0.1807  0.1158  1.1843
    7CHL1   C23  503   4.081   2.714   4.420  0.2865  0.1352  1.0804
    7CHL1  H23A  504   4.130   2.633   4.361 -3.2304 -1.8264  0.5929
    7CHL1  H23B  505   3.979   2.677   4.445 -0.4917  2.3004  1.3317
    7CHL1   C24  506   4.085   2.836   4.335  0.7071 -0.0245 -0.0476
    7CHL1  H24A  507   4.038   2.918   4.393 -3.3901 -2.5934  0.6415
    7CHL1  H24B  508   4.193   2.852   4.310  0.2771  1.5512 -1.0695
    7CHL1   C25  509   4.002   2.827   4.206 -0.7386 -0.1371 -0.3852
    7CHL1   H25  510   4.061   2.752   4.148 -0.0843 -2.0307  2.5108
    7CHL1   C26  511   3.859   2.775   4.224  0.2620 -0.2687  0.2905
    7CHL1  H26A  512   3.828   2.760   4.118  2.1461 -1.0253 -0.2071
    7CHL1  H26B  513   3.853   2.673   4.269  0.5134 -1.0606 -1.3736
    7CHL1  H26C  514   3.796   2.842   4.285  0.0650  0.0889 -0.2948
    7CHL1   C27  515   4.007   2.968   4.137 -0.2600  0.2344  0.3193
    7CHL1  H27A  516   3.985   2.957   4.028 -0.1100  0.2865  0.2844
    7CHL1  H27B  517   3.940   3.039   4.190 -0.5981  0.1178  0.0527
    7CHL1  H27C  518   4.110   3.009   4.142  0.7034 -2.1076  0.9118
    8CHL1    C3  519   2.430   2.831   5.929  0.9532 -1.2294  0.4001
    8CHL1    H3  520   2.325   2.864   5.911  0.2384 -3.0093  1.1272
    8CHL1    O3  521   2.430   2.822   6.069 -0.1322  0.1388 -0.3140
    8CHL1   H3'  522   2.361   2.759   6.093  0.9483 -0.3135  1.8710
    8CHL1    C4  523   2.470   2.695   5.874  0.4953  0.0787  0.1866
    8CHL1   H4A  524   2.574   2.678   5.910  1.3267  1.6705 -1.3181
    8CHL1   H4B  525   2.407   2.618   5.922  0.5178 -0.2593 -0.3152
    8CHL1    C5  526   2.471   2.700   5.718 -0.1385 -0.1724 -0.5685
    8CHL1    C6  527   2.397   2.613   5.651 -0.4408  0.4074 -0.2780
    8CHL1    H6  528   2.339   2.539   5.708 -0.5384  0.6972  0.0010
    8CHL1    C7  529   2.388   2.607   5.506 -1.0247 -0.3412  0.4844
    8CHL1   H7A  530   2.404   2.503   5.470  0.2736 -0.1406  0.4385
    8CHL1   H7B  531   2.288   2.646   5.477 -0.6828 -1.0009 -1.8457
    8CHL1    C8  532   2.501   2.696   5.439  0.4195  0.5646  0.9837
    8CHL1    H8  533   2.597   2.640   5.438 -0.6452 -1.3746 -1.4214
    8CHL1   C14  534   2.469   2.721   5.294  0.2075  0.0127  0.2922
    8CHL1   H14  535   2.367   2.765   5.302 -0.9753 -2.1336 -1.9744
    8CHL1   C15  536   2.430   2.608   5.205  0.0508 -0.3876 -0.3726
    8CHL1  H15A  537   2.485   2.514   5.225  2.6963  0.6909 -2.0614
    8CHL1  H15B  538   2.322   2.591   5.224  0.3014  0.3426  1.9883
    8CHL1   C16  539   2.449   2.656   5.057  0.4999  0.8642  0.0528
    8CHL1  H16A  540   2.535   2.599   5.017  0.4904  1.3622 -0.6888
    8CHL1  H16B  541   2.352   2.646   5.003  0.4208  0.2467  0.2986
    8CHL1   C17  542   2.496   2.799   5.068 -0.3699  0.2379  0.2782
    8CHL1   H17  543   2.406   2.863   5.070  1.0527  2.3593 -0.2250
    8CHL1   C13  544   2.562   2.809   5.207  0.3863 -0.0200 -0.2633
    8CHL1   C18  545   2.702   2.743   5.192  0.1834  0.5458  0.6799
    8CHL1  H18A  546   2.774   2.811   5.140  0.1155 -0.8230 -1.3290
    8CHL1  H18B  547   2.745   2.709   5.289 -0.7367 -0.8750  0.6138
    8CHL1  H18C  548   2.698   2.653   5.127 -3.5214  1.4995 -0.6233
    8CHL1   C12  549   2.564   2.948   5.280  0.0798 -0.0431 -0.2120
    8CHL1  H12A  550   2.635   3.017   5.228  0.8833  0.5668  1.6203
    8CHL1  H12B  551   2.464   2.997   5.277 -0.6172 -1.4423 -2.2941
    8CHL1   C11  552   2.595   2.928   5.425  0.1373  0.7073  0.3123
    8CHL1  H11A  553   2.699   2.890   5.428 -0.1368 -0.2140 -1.0991
    8CHL1  H11B  554   2.581   3.021   5.484 -1.0369  0.6027  0.2252
    8CHL1    C9  555   2.513   2.833   5.500  0.0254  0.2725  0.2160
    8CHL1    H9  556   2.408   2.869   5.498  0.4110  1.4998  0.9554
    8CHL1   C10  557   2.551   2.820   5.654  0.3624  0.0646  0.1246
    8CHL1   C19  558   2.693   2.763   5.673  0.1936  0.8261  0.0469
    8CHL1  H19A  559   2.707   2.667   5.619 -0.5981  0.8013 -0.1284
    8CHL1  H19B  560   2.777   2.825   5.635  1.0065  1.3909  2.5681
    8CHL1  H19C  561   2.713   2.758   5.783  0.6705 -2.9783 -0.1014
    8CHL1    C1  562   2.527   2.950   5.724 -0.9621 -1.1334 -0.2863
    8CHL1   H1A  563   2.610   3.015   5.686 -1.3500 -2.2906 -3.4075
    8CHL1   H1B  564   2.426   2.992   5.708 -0.1155  2.5686  2.5826
    8CHL1    C2  565   2.530   2.937   5.883  0.8978 -0.2841 -0.2746
    8CHL1   H2A  566   2.517   3.039   5.927 -1.0347 -0.7856  0.4542
    8CHL1   H2B  567   2.634   2.911   5.912  0.6323 -0.6246  0.4169
    8CHL1   C20  568   2.573   2.834   4.939  0.0791 -0.0711 -0.6118
    8CHL1   H20  569   2.649   2.755   4.918 -0.7097 -1.2701  0.8125
    8CHL1   C21  570   2.617   2.986   4.956  0.0466 -0.2043 -0.0816
    8CHL1  H21A  571   2.699   2.993   5.030  1.6822 -0.2076 -1.8132
    8CHL1  H21B  572   2.531   3.045   4.995  2.3666  3.0508  0.5674
    8CHL1  H21C  573   2.657   3.031   4.862 -0.3824  0.1146 -0.1153
    8CHL1   C22  574   2.488   2.833   4.804  0.3283  0.3448 -0.2513
    8CHL1  H22A  575   2.426   2.741   4.803  0.8303  0.0004 -0.9545
    8CHL1  H22B  576   2.413   2.914   4.804  0.1713  0.1978 -0.9822
    8CHL1   C23  577   2.563   2.833   4.680  0.6479 -1.0516  0.4143
    8CHL1  H23A  578   2.582   2.941   4.661  0.6169 -1.2431 -0.8198
    8CHL1  H23B  579   2.658   2.777   4.692  0.7055 -0.7858  1.2789
    8CHL1   C24  580   2.486   2.781   4.551 -0.0575 -0.0450 -0.5196
    8CHL1  H24A  581   2.492   2.671   4.546  0.3711 -0.0663  0.4204
    8CHL1  H24B  582   2.377   2.804   4.557 -0.3918 -1.2765 -1.3489
    8CHL1   C25  583   2.549   2.833   4.418 -0.2955 -0.0658  0.1487
    8CHL1   H25  584   2.591   2.935   4.431  0.7930 -0.4190 -0.4207
    8CHL1   C26  585   2.680   2.750   4.392 -0.2708  0.4488 -0.1153
    8CHL1  H26A  586   2.745   2.789   4.310  2.6129 -0.7866  1.4175
    8CHL1  H26B  587   2.741   2.744   4.485 -0.9807 -2.0422  0.2412
    8CHL1  H26C  588   2.657   2.646   4.362  1.4575 -0.0205  0.0839
    8CHL1   C27  589   2.453   2.829   4.300 -1.5377  0.7371 -0.4073
    8CHL1  H27A  590   2.415   2.725   4.287  2.5505 -0.9214 -0.7418
    8CHL1  H27B  591   2.381   2.909   4.329  0.8585  3.8725 -2.4382
    8CHL1  H27C  592   2.481   2.875   4.202 -0.0309  0.2975 -0.2102
    9CHL1    C3  593   5.124   3.467   5.496  0.3031 -0.6438 -0.7172
    9CHL1    H3  594   5.071   3.564   5.498 -1.3218 -1.4579  2.9354
    9CHL1    O3  595   5.119   3.409   5.633 -1.0781  0.1946 -0.6223
    9CHL1   H3'  596   5.035   3.363   5.626 -1.9585  1.3929  1.4175
    9CHL1    C4  597   5.048   3.369   5.408  0.1545  0.3918  0.1060
    9CHL1   H4A  598   5.077   3.264   5.431 -2.0881 -0.6293 -1.4163
    9CHL1   H4B  599   4.938   3.368   5.425 -0.2149 -1.6328 -1.8754
    9CHL1    C5  600   5.071   3.418   5.264 -0.1173 -0.3405  0.2642
    9CHL1    C6  601   4.962   3.447   5.196 -0.4635 -0.6191  0.8434
    9CHL1    H6  602   4.861   3.411   5.222 -1.1259 -1.6367 -2.6661
    9CHL1    C7  603   4.971   3.502   5.059 -0.2167  0.9814  0.2690
    9CHL1   H7A  604   4.880   3.470   5.003 -0.1510 -2.2863  1.7748
    9CHL1   H7B  605   4.961   3.613   5.057 -1.9044  0.8662  0.7007
    9CHL1    C8  606   5.105   3.453   4.989 -0.1973  0.4142  0.0284
    9CHL1    H8  607   5.102   3.343   4.980 -0.4147  0.5279 -1.6115
    9CHL1   C14  608   5.116   3.521   4.856  0.7620 -0.6268 -0.2435
    9CHL1   H14  609   5.116   3.631   4.875  0.3157 -0.3720 -1.6046
    9CHL1   C15  610   5.010   3.502   4.750 -0.1168 -1.1084  0.2529
    9CHL1  H15A  611   4.990   3.393   4.745  0.1847 -1.1927  0.8278
    9CHL1  H15B  612   4.908   3.545   4.766 -0.3296 -1.9854  1.3960
    9CHL1   C16  613   5.072   3.566   4.620 -0.0589 -0.1692 -0.3852
    9CHL1  H16A  614   5.039   3.513   4.529  1.2332 -0.2523 -0.8329
    9CHL1  H16B  615   5.044   3.673   4.610  0.2358  0.0488  0.9222
    9CHL1   C17  616   5.222   3.568   4.643 -0.1581  0.5176  0.3423
    9CHL1   H17  617   5.247   3.674   4.663  1.5330  0.5121 -1.4326
    9CHL1   C13  618   5.242   3.496   4.777 -1.6238 -0.8274 -0.0270
    9CHL1   C18  619   5.258   3.340   4.759 -0.6103  0.3605 -0.1056
    9CHL1  H18A  620   5.264   3.284   4.855  0.6397 -1.3538 -1.1224
    9CHL1  H18B  621   5.174   3.296   4.702 -0.3860  0.5278 -0.5746
    9CHL1  H18C  622   5.353   3.323   4.703  0.2031  1.3074  0.9557
    9CHL1   C12  623   5.353   3.562   4.858 -0.0139  0.4935  1.1374
    9CHL1  H12A  624   5.451   3.547   4.809 -1.4934 -1.4431 -1.5115
    9CHL1  H12B  625   5.335   3.671   4.860  2.2541  0.9119  2.6721
    9CHL1   C11  626   5.364   3.504   4.998  0.4114 -0.4087  0.3420
    9CHL1  H11A  627   5.393   3.400   4.971 -1.5233 -1.0070  0.4302
    9CHL1  H11B  628   5.442   3.552   5.062 -0.5472 -1.1606  2.1374
    9CHL1    C9  629   5.221   3.506   5.069  0.7463 -0.6597 -0.4413
    9CHL1    H9  630   5.197   3.613   5.084  0.4638 -0.8373  0.4488
    9CHL1   C10  631   5.218   3.439   5.208  0.1277 -0.0694  0.0284
    9CHL1   C19  632   5.288   3.312   5.185 -0.1323 -0.4981 -0.6384
    9CHL1  H19A  633   5.264   3.257   5.091 -0.2646 -1.3124 -0.1353
    9CHL1  H19B  634   5.399   3.322   5.181 -0.0369  0.1097  1.9199
    9CHL1  H19C  635   5.275   3.243   5.271 -3.2589 -1.9605 -2.1446
    9CHL1    C1  636   5.301   3.522   5.314  0.6050 -0.1871  0.4046
    9CHL1   H1A  637   5.410   3.521   5.295  0.2923 -1.1239 -1.5597
    9CHL1   H1B  638   5.270   3.629   5.306 -1.4812 -0.5227  2.6290
    9CHL1    C2  639   5.277   3.482   5.460  0.0062 -0.4605 -0.5008
    9CHL1   H2A  640   5.326   3.555   5.527 -0.8089  0.3497 -0.7588
    9CHL1   H2B  641   5.326   3.383   5.471  0.6384 -0.1977 -0.8986
    9CHL1   C20  642   5.314   3.523   4.525  0.0647  0.4919  0.3902
    9CHL1   H20  643   5.411   3.498   4.572 -0.3242  2.0042  2.0810
    9CHL1   C21  644   5.335   3.650   4.438  0.7372 -0.4698 -0.3031
    9CHL1  H21A  645   5.239   3.685   4.393 -0.1730  0.6072  2.2968
    9CHL1  H21B  646   5.401   3.621   4.353  1.2881 -0.1481  0.0105
    9CHL1  H21C  647   5.392   3.727   4.493 -2.3286  1.2283  0.7424
    9CHL1   C22  648   5.265   3.400   4.434  0.1209  0.1094  0.2514
    9CHL1  H22A  649   5.290   3.305   4.486 -2.0054 -1.8470 -2.0411
    9CHL1  H22B  650   5.153   3.401   4.431  0.1407  0.0621 -0.5193
    9CHL1   C23  651   5.324   3.385   4.294 -0.6725  0.8279  0.5891
    9CHL1  H23A  652   5.275   3.462   4.230 -0.6002 -0.2536 -0.7925
    9CHL1  H23B  653   5.433   3.402   4.279 -1.0149  1.8264 -1.0328
    9CHL1   C24  654   5.304   3.241   4.242 -0.4919 -0.4034 -0.2812
    9CHL1  H24A  655   5.360   3.170   4.307 -1.5651 -0.5533  0.5107
    9CHL1  H24B  656   5.195   3.228   4.256 -0.5676  0.2617 -0.2082
    9CHL1   C25  657   5.344   3.219   4.095  0.0957 -0.0005  0.5651
    9CHL1   H25  658   5.248   3.233   4.039  0.0185 -0.1881  0.6495
    9CHL1   C26  659   5.455   3.300   4.039 -0.1650  0.7845 -0.1431
    9CHL1  H26A  660   5.543   3.305   4.106 -1.0224  1.0994  0.9999
    9CHL1  H26B  661   5.483   3.271   3.936  0.5510 -0.7487  0.4495
    9CHL1  H26C  662   5.412   3.401   4.022  1.5779  1.5815 -0.0406
    9CHL1   C27  663   5.371   3.065   4.079 -0.2061  0.3133 -0.1334
    9CHL1  H27A  664   5.393   3.043   3.972 -0.8168  0.5361 -0.3023
    9CHL1  H27B  665   5.463   3.047   4.139  0.2569  1.5036 -0.4514
    9CHL1  H27C  666   5.282   3.007   4.110 -1.1300 -0.2672 -3.4412
   10CHL1    C3  667   4.217   5.137   5.604 -0.2586  0.2816 -0.6977
   10CHL1    H3  668   4.121   5.147   5.549  1.1356 -1.0087 -3.5515
   10CHL1    O3  669   4.215   5.094   5.743  0.4937  0.4487 -0.0926
   10CHL1   H3'  670   4.192   5.168   5.799 -2.0840 -0.8966  0.7721
   10CHL1    C4  671   4.298   5.030   5.534  0.3206 -0.2280  0.3898
   10CHL1   H4A  672   4.398   5.016   5.580  0.8617  0.2917 -0.5969
   10CHL1   H4B  673   4.243   4.933   5.544  1.0230 -0.7427 -0.6004
   10CHL1    C5  674   4.304   5.066   5.390  0.0598 -0.3200  0.5639
   10CHL1    C6  675   4.246   4.995   5.294  0.0542 -0.3802  0.3612
   10CHL1    H6  676   4.203   4.897   5.317 -1.1196 -0.4026 -1.7113
   10CHL1    C7  677   4.250   5.031   5.149  0.4389  0.0488  0.4005
   10CHL1   H7A  678   4.280   4.941   5.092  1.4103  0.9554 -0.5536
   10CHL1   H7B  679   4.151   5.065   5.111  2.1428  1.4926 -3.2639
   10CHL1    C8  680   4.366   5.131   5.114 -0.5845 -0.6381  0.4720
   10CHL1    H8  681   4.468   5.088   5.126  0.4476  1.8931  1.5926
   10CHL1   C14  682   4.356   5.182   4.972  0.3752  0.1184  0.2679
   10CHL1   H14  683   4.261   5.238   4.956  1.6689  2.0545 -0.9862
   10CHL1   C15  684   4.347   5.078   4.859 -0.9298 -0.1701 -0.6590
   10CHL1  H15A  685   4.423   4.998   4.869  0.3262  1.1453  0.6750
   10CHL1  H15B  686   4.246   5.030   4.860  0.1827 -2.6941 -1.4657
   10CHL1   C16  687   4.373   5.162   4.733  0.3189 -0.5629 -0.7596
   10CHL1  H16A  688   4.443   5.116   4.661  0.1301 -1.5471 -0.3318
   10CHL1  H16B  689   4.274   5.168   4.682  0.0801 -0.5018 -0.2985
   10CHL1   C17  690   4.420   5.305   4.780 -0.4398  0.5333 -0.5082
   10CHL1   H17  691   4.328   5.367   4.790  1.0777  2.8342 -0.1601
   10CHL1   C13  692   4.454   5.292   4.933 -1.2614 -0.7585 -0.4623
   10CHL1   C18  693   4.596   5.245   4.957  0.0094 -0.4294  0.4881
   10CHL1  H18A  694   4.609   5.156   4.891  0.5352 -0.5252  0.7110
   10CHL1  H18B  695   4.675   5.315   4.923 -1.2903  0.7382 -0.1982
   10CHL1  H18C  696   4.625   5.209   5.058  0.4753 -1.3516  0.0364
   10CHL1   C12  697   4.427   5.416   5.030  0.0502 -0.1778  0.4656
   10CHL1  H12A  698   4.490   5.506   5.011 -0.6027 -0.1656 -1.8527
   10CHL1  H12B  699   4.320   5.445   5.021 -0.8281 -3.3909 -0.5169
   10CHL1   C11  700   4.446   5.372   5.182  0.1659  0.1803 -0.1358
   10CHL1  H11A  701   4.553   5.357   5.207  0.4801  1.2883 -0.7325
   10CHL1  H11B  702   4.405   5.454   5.245 -0.5444  1.2438 -1.9038
   10CHL1    C9  703   4.360   5.245   5.213  0.0026  0.3332  0.3453
   10CHL1    H9  704   4.255   5.279   5.200  0.0773  0.3654 -0.2060
   10CHL1   C10  705   4.363   5.205   5.364  0.7335  0.9530 -0.2491
   10CHL1   C19  706   4.510   5.184   5.399  0.4841  0.4288  0.0848
   10CHL1  H19A  707   4.522   5.144   5.502  1.7251  0.4473 -0.0309
   10CHL1  H19B  708   4.572   5.124   5.329  0.8151  0.2887  0.4891
   10CHL1  H19C  709   4.560   5.282   5.415 -0.3902  1.0875 -1.1142
   10CHL1    C1  710   4.300   5.321   5.456  1.0074  0.1970 -0.5826
   10CHL1   H1A  711   4.368   5.408   5.447 -0.5602  1.2738 -3.1862
   10CHL1   H1B  712   4.203   5.358   5.417 -0.6131  0.0380  2.9416
   10CHL1    C2  713   4.285   5.272   5.607  0.8784  0.6003  0.7421
   10CHL1   H2A  714   4.224   5.348   5.660 -0.1380  1.4500 -1.5204
   10CHL1   H2B  715   4.388   5.274   5.648  0.9863 -0.3651  0.5395
   10CHL1   C20  716   4.521   5.364   4.685  0.0784 -0.3982 -0.3426
   10CHL1   H20  717   4.614   5.305   4.700  1.1800  1.1903 -0.5837
   10CHL1   C21  718   4.557   5.506   4.726 -0.4453  0.0238  0.7063
   10CHL1  H21A  719   4.466   5.568   4.712  0.6593  1.3579 -0.9158
   10CHL1  H21B  720   4.641   5.547   4.666 -0.4469 -1.6668 -0.5208
   10CHL1  H21C  721   4.585   5.507   4.833  0.5724  0.8434  0.4522
   10CHL1   C22  722   4.483   5.355   4.528  0.3125  0.5028  0.6068
   10CHL1  H22A  723   4.568   5.396   4.470  1.7475  0.7188  2.7450
   10CHL1  H22B  724   4.487   5.249   4.493  0.1392  0.5587  0.4140
   10CHL1   C23  725   4.346   5.400   4.479 -0.1521  0.5249  0.0235
   10CHL1  H23A  726   4.262   5.380   4.550  0.1126  2.1416  0.8460
   10CHL1  H23B  727   4.342   5.511   4.485 -3.3081  0.4988  0.3917
   10CHL1   C24  728   4.316   5.345   4.338 -0.3291  0.4486 -0.2758
   10CHL1  H24A  729   4.413   5.357   4.285  1.0041 -0.0089  1.9381
   10CHL1  H24B  730   4.286   5.240   4.354 -0.8394  0.6667  0.2439
   10CHL1   C25  731   4.210   5.426   4.253  0.1274  0.4972 -0.0468
   10CHL1   H25  732   4.246   5.531   4.261  0.3529  0.3011  2.5083
   10CHL1   C26  733   4.209   5.379   4.106  0.5271 -0.4055  0.0105
   10CHL1  H26A  734   4.158   5.282   4.089  1.3402 -0.8446 -0.0124
   10CHL1  H26B  735   4.147   5.450   4.047  1.9737  0.7737 -0.1768
   10CHL1  H26C  736   4.312   5.377   4.063  0.7720 -0.1180  0.5752
   10CHL1   C27  737   4.068   5.422   4.311 -0.1367 -0.7692 -0.6277
   10CHL1  H27A  738   4.039   5.317   4.336 -0.4248 -0.1849  1.7618
   10CHL1  H27B  739   4.071   5.471   4.411  2.4982 -1.4318 -0.3108
   10CHL1  H27C  740   3.989   5.463   4.245 -0.3079 -1.5140 -0.8966
   11CHL1    C3  741   2.728   2.201   5.781  0.0009 -0.9070 -0.6676
   11CHL1    H3  742   2.618   2.194   5.795 -0.0305  1.3745  0.7265
   11CHL1    O3  743   2.782   2.184   5.910  0.1915 -0.0640 -0.0559
   11CHL1   H3'  744   2.754   2.097   5.941  0.5365  0.2616  1.2289
   11CHL1    C4  745   2.780   2.095   5.690  0.0814  0.5147  0.6097
   11CHL1   H4A  746   2.891   2.090   5.699  0.2329 -0.5736 -1.2749
   11CHL1   H4B  747   2.756   1.995   5.732  1.6266  1.5834  4.5154
   11CHL1    C5  748   2.762   2.109   5.538 -0.1790 -0.4037  1.2145
   11CHL1    C6  749   2.697   2.013   5.468 -0.9842 -0.4280  0.5279
   11CHL1    H6  750   2.659   1.925   5.521 -1.3181 -1.1321 -0.8192
   11CHL1    C7  751   2.674   2.025   5.317  0.2992 -0.2060  0.6443
   11CHL1   H7A  752   2.687   1.921   5.278 -1.3719 -0.6718  1.2121
   11CHL1   H7B  753   2.569   2.059   5.307  0.4383  0.8861  2.5344
   11CHL1    C8  754   2.770   2.131   5.251  0.0560  0.7550 -0.4062
   11CHL1    H8  755   2.874   2.093   5.251  0.0070  0.2210  3.7854
   11CHL1   C14  756   2.719   2.163   5.105 -0.6768 -0.3998 -0.3278
   11CHL1   H14  757   2.611   2.181   5.126 -0.2894  0.8049  0.7220
   11CHL1   C15  758   2.725   2.047   5.004  0.3137  0.8200  0.3551
   11CHL1  H15A  759   2.826   2.006   4.981  0.2902 -0.8093  2.7616
   11CHL1  H15B  760   2.649   1.968   5.026 -1.9181  2.6666 -0.2586
   11CHL1   C16  761   2.676   2.115   4.880  0.3856  0.1941 -1.0196
   11CHL1  H16A  762   2.755   2.095   4.804  3.7533  2.7119  1.4987
   11CHL1  H16B  763   2.573   2.087   4.851  0.0327 -0.6139  0.8521
   11CHL1   C17  764   2.701   2.270   4.901 -0.3057  0.5952  0.1976
   11CHL1   H17  765   2.603   2.319   4.920  0.9202  2.6939  1.3469
   11CHL1   C13  766   2.784   2.280   5.039  0.4720  0.2395  0.2532
   11CHL1   C18  767   2.935   2.250   5.008 -0.4384  0.7773 -0.4895
   11CHL1  H18A  768   2.989   2.232   5.103 -0.2274  3.2527 -0.0676
   11CHL1  H18B  769   2.955   2.157   4.951  4.3474  0.7059  0.9170
   11CHL1  H18C  770   2.985   2.342   4.971  0.5815  1.3239  2.0708
   11CHL1   C12  771   2.764   2.404   5.128 -0.7600  0.2773  1.0936
   11CHL1  H12A  772   2.826   2.487   5.088  1.3892 -1.2152  1.1489
   11CHL1  H12B  773   2.656   2.428   5.129 -1.0395 -0.9323  1.0714
   11CHL1   C11  774   2.821   2.384   5.266 -0.1638  0.3258  0.6484
   11CHL1  H11A  775   2.931   2.371   5.253 -0.0425 -0.5618  2.2207
   11CHL1  H11B  776   2.815   2.476   5.327  0.7095 -0.2811  1.6994
   11CHL1    C9  777   2.762   2.256   5.336  0.0006  0.0378 -0.2706
   11CHL1    H9  778   2.657   2.285   5.355  0.6133  1.8810  0.6330
   11CHL1   C10  779   2.815   2.242   5.481  0.4547  0.1704 -0.7934
   11CHL1   C19  780   2.967   2.242   5.485 -0.0934 -0.4652 -0.5814
   11CHL1  H19A  781   3.006   2.170   5.410 -0.0484 -1.1575  0.0985
   11CHL1  H19B  782   3.001   2.340   5.445 -0.4754 -0.8640 -1.9388
   11CHL1  H19C  783   3.015   2.226   5.584  0.3149 -2.0609 -1.0223
   11CHL1    C1  784   2.749   2.355   5.573 -0.4498 -0.2457 -0.3697
   11CHL1   H1A  785   2.792   2.453   5.544 -0.3358 -0.2393 -0.1831
   11CHL1   H1B  786   2.639   2.358   5.557 -0.2981  0.4823 -1.4192
   11CHL1    C2  787   2.762   2.340   5.728  0.4113 -0.3951  0.1543
   11CHL1   H2A  788   2.694   2.414   5.776  0.1900 -0.5792  0.1286
   11CHL1   H2B  789   2.865   2.373   5.752 -0.7308  2.7929  1.1836
   11CHL1   C20  790   2.756   2.352   4.782 -0.7356  0.0940  0.8318
   11CHL1   H20  791   2.867   2.350   4.786 -0.6011  3.4339  2.9568
   11CHL1   C21  792   2.719   2.496   4.798  0.1617 -0.2717  0.7733
   11CHL1  H21A  793   2.617   2.532   4.774  0.4565  0.7384  0.9829
   11CHL1  H21B  794   2.788   2.550   4.730  0.1378  1.2831  1.9350
   11CHL1  H21C  795   2.752   2.537   4.895  0.7522  0.0382  0.4465
   11CHL1   C22  796   2.710   2.309   4.641  1.0430 -0.3495  0.4263
   11CHL1  H22A  797   2.727   2.203   4.615  0.0438 -0.5345  0.4683
   11CHL1  H22B  798   2.599   2.315   4.632  1.1924  2.0760 -0.9323
   11CHL1   C23  799   2.771   2.376   4.516 -0.0921  0.1378 -0.1149
   11CHL1  H23A  800   2.752   2.485   4.521  0.2524  0.2083 -0.3136
   11CHL1  H23B  801   2.882   2.380   4.523  0.2236  0.7555 -3.6422
   11CHL1   C24  802   2.722   2.311   4.382 -0.3095 -0.0868 -0.3864
   11CHL1  H24A  803   2.735   2.201   4.390  1.0971  0.0166 -1.1082
   11CHL1  H24B  804   2.617   2.339   4.357 -0.9287 -0.0113  2.0173
   11CHL1   C25  805   2.806   2.344   4.259  0.6891  0.6362 -0.4516
   11CHL1   H25  806   2.839   2.450   4.260 -1.3950  1.3188  0.5275
   11CHL1   C26  807   2.937   2.259   4.249  0.3136 -0.2054  0.0052
   11CHL1  H26A  808   2.999   2.281   4.338  1.3114 -1.1053 -0.4345
   11CHL1  H26B  809   2.922   2.149   4.253  0.9068 -0.2657  0.8581
   11CHL1  H26C  810   2.990   2.280   4.154  1.7808  0.9475  1.0265
   11CHL1   C27  811   2.719   2.330   4.130 -0.6036 -0.7878 -0.2533
   11CHL1  H27A  812   2.783   2.340   4.040  0.6822  0.3265  0.7459
   11CHL1  H27B  813   2.660   2.235   4.123 -1.1881 -0.3481 -1.7462
   11CHL1  H27C  814   2.636   2.404   4.132  1.2429  1.3879 -0.1348
   12CHL1    C3  815   4.454   1.247   5.612  0.2829  0.6095 -0.9466
   12CHL1    H3  816   4.546   1.276   5.666 -1.1227  1.7943  0.9759
   12CHL1    O3  817   4.367   1.188   5.713  0.4098 -0.5297 -0.0733
   12CHL1   H3'  818   4.287   1.163   5.667 -0.9182  1.3981  1.0139
   12CHL1    C4  819   4.390   1.364   5.538 -0.0325  0.0498 -0.0874
   12CHL1   H4A  820   4.291   1.327   5.502  0.0677 -1.0345  0.6984
   12CHL1   H4B  821   4.377   1.448   5.610 -0.6129  1.3521 -1.6337
   12CHL1    C5  822   4.470   1.416   5.421  1.0696  0.1274 -0.5321
   12CHL1    C6  823   4.513   1.544   5.414 -0.4914 -0.2704 -0.0587
   12CHL1    H6  824   4.483   1.609   5.498 -0.7703 -1.0238  0.4391
   12CHL1    C7  825   4.582   1.602   5.290 -0.3280 -0.4072  0.8867
   12CHL1   H7A  826   4.537   1.697   5.252  1.2509  0.4077  0.9682
   12CHL1   H7B  827   4.689   1.623   5.314 -0.2013 -0.6119  0.5099
   12CHL1    C8  828   4.575   1.516   5.166 -0.5816  0.3868 -0.2129
   12CHL1    H8  829   4.477   1.522   5.114 -0.2565 -1.4800 -1.1454
   12CHL1   C14  830   4.692   1.550   5.071 -0.3668  0.3382 -0.0390
   12CHL1   H14  831   4.790   1.546   5.122 -0.8868 -1.0128  0.9003
   12CHL1   C15  832   4.683   1.696   5.018  0.9016 -0.3039  0.2478
   12CHL1  H15A  833   4.587   1.716   4.966  2.7940  2.5920 -2.5046
   12CHL1  H15B  834   4.710   1.776   5.090  0.2132 -0.4715  0.7040
   12CHL1   C16  835   4.783   1.696   4.896 -0.2048 -0.1217  0.2148
   12CHL1  H16A  836   4.737   1.736   4.804 -2.4065  2.5734  2.3200
   12CHL1  H16B  837   4.868   1.763   4.924 -1.3900  1.0970  1.0071
   12CHL1   C17  838   4.823   1.545   4.882 -0.6982  0.0757 -0.5914
   12CHL1   H17  839   4.921   1.533   4.934 -0.8264 -0.9167 -0.5590
   12CHL1   C13  840   4.715   1.467   4.942 -0.3174  0.3029  0.1869
   12CHL1   C18  841   4.590   1.471   4.851  0.9424 -0.3103 -0.7829
   12CHL1  H18A  842   4.553   1.572   4.822 -0.6309 -0.7274 -0.2938
   12CHL1  H18B  843   4.611   1.420   4.754  1.6329  0.7175 -1.1991
   12CHL1  H18C  844   4.505   1.427   4.907  0.8022  0.6663 -0.2038
   12CHL1   C12  845   4.741   1.319   4.986  0.5481  0.1601  1.1094
   12CHL1  H12A  846   4.743   1.248   4.900  0.9390  0.6567  0.7079
   12CHL1  H12B  847   4.838   1.321   5.038  0.0532 -0.6368  2.0959
   12CHL1   C11  848   4.630   1.268   5.087  0.0011 -0.2280  0.0397
   12CHL1  H11A  849   4.538   1.261   5.025 -0.0054  3.4197 -0.5779
   12CHL1  H11B  850   4.661   1.168   5.126 -2.6259 -1.5405 -0.9504
   12CHL1    C9  851   4.601   1.368   5.207 -0.3597  0.6830  0.3496
   12CHL1    H9  852   4.700   1.366   5.257  0.8856  1.8117 -1.8794
   12CHL1   C10  853   4.502   1.313   5.309  0.5317  0.2206 -0.1211
   12CHL1   C19  854   4.374   1.275   5.230  0.0326 -0.1272  0.7595
   12CHL1  H19A  855   4.295   1.254   5.305  0.9062 -1.5857  1.2997
   12CHL1  H19B  856   4.337   1.367   5.178  3.0559  0.7401 -0.0665
   12CHL1  H19C  857   4.370   1.189   5.160 -1.9737  1.9056 -1.8714
   12CHL1    C1  858   4.571   1.194   5.384 -0.2147 -0.1354  0.7850
   12CHL1   H1A  859   4.583   1.108   5.314  2.7886  2.3272 -2.0558
   12CHL1   H1B  860   4.670   1.236   5.408 -0.0425  0.0833 -0.2666
   12CHL1    C2  861   4.495   1.143   5.509 -0.1291  0.2423  0.4163
   12CHL1   H2A  862   4.551   1.060   5.557  3.1043  2.4279  0.7041
   12CHL1   H2B  863   4.400   1.094   5.478 -0.3709  0.9466  0.0066
   12CHL1   C20  864   4.862   1.509   4.735 -0.8823 -0.2078  0.4461
   12CHL1   H20  865   4.780   1.528   4.663  0.8302  1.6437 -1.1179
   12CHL1   C21  866   4.889   1.357   4.723 -0.0687 -0.2721  0.5240
   12CHL1  H21A  867   4.944   1.319   4.812 -0.0064 -1.4915 -0.0121
   12CHL1  H21B  868   4.962   1.338   4.641  1.9309  1.8949  1.6592
   12CHL1  H21C  869   4.796   1.297   4.712  1.2056 -2.2822  0.1554
   12CHL1   C22  870   4.986   1.597   4.687  0.3699 -0.5699 -1.4180
   12CHL1  H22A  871   4.957   1.704   4.696  0.4622 -0.7272  1.9541
   12CHL1  H22B  872   5.065   1.579   4.762 -0.4360 -0.0136 -0.3941
   12CHL1   C23  873   5.047   1.584   4.552  0.1976  0.5806 -0.1951
   12CHL1  H23A  874   5.068   1.478   4.525 -1.0765 -0.5517  2.7794
   12CHL1  H23B  875   4.985   1.630   4.472  1.4837  0.1887 -1.4495
   12CHL1   C24  876   5.179   1.662   4.539 -0.3601 -0.7174  0.0994
   12CHL1  H24A  877   5.167   1.768   4.570  1.4761 -0.1033 -1.1296
   12CHL1  H24B  878   5.252   1.614   4.608 -0.4807  0.4024  1.0322
   12CHL1   C25  879   5.246   1.677   4.397 -1.1170 -0.3714  0.1611
   12CHL1   H25  880   5.179   1.740   4.334 -0.7746  0.2142  0.3804
   12CHL1   C26  881   5.397   1.728   4.409  1.0161  0.4005 -0.2371
   12CHL1  H26A  882   5.391   1.830   4.455  1.2494  0.2198  0.2017
   12CHL1  H26B  883   5.447   1.657   4.478 -1.0549 -1.1927 -0.2574
   12CHL1  H26C  884   5.438   1.761   4.312 -1.9861  0.6936 -1.5271
   12CHL1   C27  885   5.255   1.544   4.326 -0.0975  0.2880  0.5429
   12CHL1  H27A  886   5.311   1.464   4.379  1.5720  1.0359 -0.0328
   12CHL1  H27B  887   5.156   1.496   4.314  0.5745 -1.0930  0.2854
   12CHL1  H27C  888   5.305   1.543   4.227 -1.0690 -0.1317  0.0452
   13CHL1    C3  889   3.376   0.960   5.646 -0.8930  0.1242 -0.6966
   13CHL1    H3  890   3.473   0.909   5.663 -0.5699  1.1366  0.7167
   13CHL1    O3  891   3.317   0.973   5.781  0.1393  0.5455  0.1301
   13CHL1   H3'  892   3.372   1.037   5.826  0.8367  0.3060 -0.3534
   13CHL1    C4  893   3.396   1.101   5.583 -0.5465  0.3110 -0.1878
   13CHL1   H4A  894   3.296   1.148   5.574 -1.0143 -0.8613 -1.4220
   13CHL1   H4B  895   3.458   1.168   5.646  0.1611 -0.2456 -0.2784
   13CHL1    C5  896   3.452   1.073   5.446 -0.3330 -0.5090  0.3597
   13CHL1    C6  897   3.567   1.128   5.414 -0.1095  0.5287 -0.5262
   13CHL1    H6  898   3.621   1.187   5.490 -1.4172 -0.6006  1.3763
   13CHL1    C7  899   3.620   1.126   5.276 -0.2144 -0.3544  0.3086
   13CHL1   H7A  900   3.665   1.226   5.260  0.5231 -0.6570  0.4872
   13CHL1   H7B  901   3.705   1.056   5.264  0.6011  0.7014 -0.1516
   13CHL1    C8  902   3.515   1.089   5.166 -0.1512 -0.2866 -0.1167
   13CHL1    H8  903   3.449   1.177   5.148  0.1032 -0.3842 -1.7031
   13CHL1   C14  904   3.569   1.062   5.031 -0.5630  0.0002 -0.7150
   13CHL1   H14  905   3.632   0.971   5.040 -2.0399 -1.2221 -1.9797
   13CHL1   C15  906   3.670   1.165   4.970  0.0134 -0.1613  0.5113
   13CHL1  H15A  907   3.606   1.256   4.972 -0.9993 -0.8682  1.4767
   13CHL1  H15B  908   3.765   1.179   5.026  0.7828 -0.5286 -0.6769
   13CHL1   C16  909   3.683   1.114   4.825  0.6773 -0.2855  0.6693
   13CHL1  H16A  910   3.685   1.203   4.759  1.3339 -1.0647 -0.4002
   13CHL1  H16B  911   3.781   1.061   4.822  0.9011  0.0965  1.1893
   13CHL1   C17  912   3.563   1.017   4.795  0.3162 -0.4712  0.0772
   13CHL1   H17  913   3.604   0.915   4.805 -1.6903 -1.0703  4.1074
   13CHL1   C13  914   3.469   1.021   4.921  0.1361  0.3077  0.0265
   13CHL1   C18  915   3.362   1.131   4.907 -0.6608  0.4053  0.6266
   13CHL1  H18A  916   3.292   1.135   4.994  0.8683  0.9781  1.8897
   13CHL1  H18B  917   3.408   1.232   4.902 -0.2214  0.1509 -1.1703
   13CHL1  H18C  918   3.291   1.119   4.823  2.0689 -0.6994 -1.6691
   13CHL1   C12  919   3.402   0.899   4.961 -0.4549 -0.0388  0.5694
   13CHL1  H12A  920   3.339   0.854   4.881  1.3888 -0.1465 -0.8993
   13CHL1  H12B  921   3.483   0.825   4.979  0.2907  1.2210  2.7701
   13CHL1   C11  922   3.330   0.909   5.097 -0.6846 -0.6370  0.6066
   13CHL1  H11A  923   3.238   0.969   5.081 -1.5357 -1.6370  1.5690
   13CHL1  H11B  924   3.305   0.812   5.145  0.6443  0.4648  3.7570
   13CHL1    C9  925   3.426   0.967   5.207 -1.0085 -0.0312  0.0090
   13CHL1    H9  926   3.493   0.879   5.217 -1.5212 -0.5563 -1.0141
   13CHL1   C10  927   3.355   0.990   5.348 -0.7822 -0.4335 -0.1337
   13CHL1   C19  928   3.227   1.079   5.318  0.7057 -0.0827 -0.5620
   13CHL1  H19A  929   3.173   1.103   5.412 -0.4567 -3.8372 -0.0862
   13CHL1  H19B  930   3.256   1.171   5.263 -0.5040  1.6157  1.4931
   13CHL1  H19C  931   3.159   1.021   5.252  0.7795 -0.9547  0.0988
   13CHL1    C1  932   3.325   0.856   5.415 -1.2971  0.8181 -0.3058
   13CHL1   H1A  933   3.245   0.795   5.368  0.0144  0.2045 -1.8771
   13CHL1   H1B  934   3.410   0.784   5.412 -2.2232 -0.2755 -2.4477
   13CHL1    C2  935   3.286   0.873   5.562  0.5247  0.7038  0.8471
   13CHL1   H2A  936   3.282   0.779   5.622 -0.1747  0.0710 -0.1507
   13CHL1   H2B  937   3.179   0.904   5.567 -0.7374 -2.2757 -2.7728
   13CHL1   C20  938   3.493   1.039   4.660 -0.1881 -0.1652 -0.0981
   13CHL1   H20  939   3.423   1.125   4.668 -1.1426 -0.9750  0.6115
   13CHL1   C21  940   3.415   0.908   4.627  0.1647  0.4330 -0.2925
   13CHL1  H21A  941   3.367   0.920   4.527  0.0066  2.6527 -0.0007
   13CHL1  H21B  942   3.326   0.895   4.692  0.2578 -0.0909 -0.2708
   13CHL1  H21C  943   3.470   0.812   4.622  0.0734  0.2309  1.9124
   13CHL1   C22  944   3.589   1.052   4.547  0.7528 -0.5992  0.2517
   13CHL1  H22A  945   3.529   1.050   4.454 -0.1973 -1.4513  0.8620
   13CHL1  H22B  946   3.636   1.152   4.558  0.0922 -0.3430  0.8253
   13CHL1   C23  947   3.701   0.951   4.532  0.2824  0.1517  0.2957
   13CHL1  H23A  948   3.767   0.956   4.622 -0.3669  1.6700  0.7153
   13CHL1  H23B  949   3.665   0.846   4.524 -0.7393  0.6089 -1.2973
   13CHL1   C24  950   3.788   0.977   4.406 -0.0043 -0.2704 -0.6966
   13CHL1  H24A  951   3.724   0.958   4.317 -2.7227 -0.9771  1.2447
   13CHL1  H24B  952   3.829   1.080   4.407  0.1687 -0.3024  1.9670
   13CHL1   C25  953   3.905   0.887   4.394  0.1878  0.3812  0.2958
   13CHL1   H25  954   3.879   0.785   4.431 -0.0932  0.0478 -0.7802
   13CHL1   C26  955   3.948   0.867   4.246  0.6066  0.0810 -0.1814
   13CHL1  H26A  956   3.872   0.816   4.184  1.1064 -0.5726 -0.2564
   13CHL1  H26B  957   3.985   0.962   4.203  0.5115 -0.6280 -1.8802
   13CHL1  H26C  958   4.034   0.797   4.238 -0.7944 -1.6401 -0.8459
   13CHL1   C27  959   4.024   0.935   4.480 -0.2155 -0.8048 -0.4956
   13CHL1  H27A  960   3.996   0.918   4.586 -1.7657 -0.1057 -0.7507
   13CHL1  H27B  961   4.109   0.874   4.444 -0.1835  0.3386 -2.5076
   13CHL1  H27C  962   4.047   1.043   4.462  2.6540 -1.6410 -2.6423
   14CHL1    C3  963   2.194   6.107   5.372 -0.6675  0.2577 -0.0114
   14CHL1    H3  964   2.284   6.141   5.428 -1.4548 -0.3136  1.6560
   14CHL1    O3  965   2.124   6.040   5.470 -0.1935  0.6761  0.0511
   14CHL1   H3'  966   2.156   5.949   5.474 -0.3093  0.4933 -2.1103
   14CHL1    C4  967   2.115   6.235   5.326  0.6560 -0.3949 -0.5959
   14CHL1   H4A  968   2.017   6.198   5.287 -0.8293  1.1951  1.3843
   14CHL1   H4B  969   2.091   6.295   5.417  0.8968  0.0576 -0.8262
   14CHL1    C5  970   2.185   6.302   5.212  0.1006  0.0743  0.6692
   14CHL1    C6  971   2.204   6.431   5.216 -0.7763  0.1688  0.3646
   14CHL1    H6  972   2.172   6.479   5.310  0.5717  0.0091  0.9344
   14CHL1    C7  973   2.258   6.511   5.097 -0.1414  0.1239  0.3994
   14CHL1   H7A  974   2.220   6.615   5.090 -1.5411 -0.2962  1.4008
   14CHL1   H7B  975   2.363   6.533   5.125 -0.9373  5.0357  0.4254
   14CHL1    C8  976   2.263   6.426   4.961 -0.2072 -0.0374 -0.0272
   14CHL1    H8  977   2.161   6.406   4.922 -0.4851  0.2562  0.5391
   14CHL1   C14  978   2.350   6.506   4.852 -0.0880  1.5015 -0.6384
   14CHL1   H14  979   2.453   6.512   4.894  0.1376  1.6738 -1.2091
   14CHL1   C15  980   2.309   6.652   4.832 -0.4777 -0.2461  0.3094
   14CHL1  H15A  981   2.199   6.656   4.816 -0.4337 -0.2116 -0.0111
   14CHL1  H15B  982   2.331   6.711   4.923  0.7027  0.6900 -0.5403
   14CHL1   C16  983   2.386   6.685   4.704  0.0020 -0.0315  0.1373
   14CHL1  H16A  984   2.323   6.732   4.626 -0.1498  0.4137  0.5249
   14CHL1  H16B  985   2.474   6.747   4.730  1.5231 -1.0806 -2.1379
   14CHL1   C17  986   2.437   6.545   4.641 -0.0040  0.8796 -0.4751
   14CHL1   H17  987   2.544   6.530   4.668 -0.7369 -2.7865  0.9843
   14CHL1   C13  988   2.362   6.434   4.715 -0.0783 -0.2435  0.1363
   14CHL1   C18  989   2.222   6.423   4.655 -0.7688 -0.1377 -0.0879
   14CHL1  H18A  990   2.142   6.388   4.723 -0.3607  0.0826  0.5080
   14CHL1  H18B  991   2.184   6.507   4.592  0.9290  0.4171 -0.4300
   14CHL1  H18C  992   2.229   6.345   4.577  0.9626 -0.8472  0.7261
   14CHL1   C12  993   2.430   6.302   4.745  0.4041 -0.0599 -1.2851
   14CHL1  H12A  994   2.453   6.243   4.654  0.0070 -0.7432 -0.9477
   14CHL1  H12B  995   2.517   6.340   4.802 -1.7528  2.6543  0.4318
   14CHL1   C11  996   2.347   6.220   4.845  0.4122  0.8900  0.4234
   14CHL1  H11A  997   2.248   6.200   4.799  0.9385 -1.5359  0.2368
   14CHL1  H11B  998   2.403   6.129   4.873 -1.4910 -0.3285  0.4351
   14CHL1    C9  999   2.322   6.287   4.986  0.5671 -0.4324 -0.3345
   14CHL1    H9 1000   2.423   6.296   5.031  1.4069 -0.1339 -2.1847
   14CHL1   C10 1001   2.231   6.213   5.091  0.4194  0.6744 -0.5595
   14CHL1   C19 1002   2.108   6.155   5.026  0.3593  1.2169 -0.0726
   14CHL1  H19A 1003   2.037   6.109   5.098  0.1341  1.5061 -0.1083
   14CHL1  H19B 1004   2.050   6.234   4.974 -1.5601  0.6835  1.1593
   14CHL1  H19C 1005   2.135   6.090   4.940 -1.4908  0.4051 -0.0757
   14CHL1    C1 1006   2.313   6.094   5.156  0.3591 -0.0440 -0.3167
   14CHL1   H1A 1007   2.344   6.026   5.073 -0.9656  1.1923 -1.8905
   14CHL1   H1B 1008   2.400   6.148   5.201 -0.6685  2.0405 -0.7001
   14CHL1    C2 1009   2.240   6.014   5.257  0.3158  0.0069  1.3486
   14CHL1   H2A 1010   2.296   5.927   5.297 -0.7708 -1.0324  0.6776
   14CHL1   H2B 1011   2.151   5.966   5.211  0.8142 -0.5563  0.9509
   14CHL1   C20 1012   2.424   6.546   4.484 -0.5867 -0.2558  0.0363
   14CHL1   H20 1013   2.316   6.540   4.455 -0.3301 -3.0036 -0.6708
   14CHL1   C21 1014   2.488   6.419   4.419  0.0326 -0.0181  0.3378
   14CHL1  H21A 1015   2.452   6.405   4.314 -0.8717 -1.3503  0.7998
   14CHL1  H21B 1016   2.459   6.322   4.464  4.6773 -0.4204  3.1620
   14CHL1  H21C 1017   2.599   6.413   4.426  0.0538  0.0326  0.0910
   14CHL1   C22 1018   2.503   6.675   4.434  0.1942  0.2605 -0.5782
   14CHL1  H22A 1019   2.472   6.768   4.486 -0.9974  0.0806 -0.9379
   14CHL1  H22B 1020   2.611   6.665   4.459  0.2041 -0.3129 -0.8355
   14CHL1   C23 1021   2.476   6.701   4.287 -0.0631  0.2343  0.0534
   14CHL1  H23A 1022   2.516   6.613   4.233  0.1710  0.6250 -0.4238
   14CHL1  H23B 1023   2.366   6.704   4.272 -0.3527 -2.5411  1.1785
   14CHL1   C24 1024   2.544   6.829   4.239  0.1984 -0.5380  0.0707
   14CHL1  H24A 1025   2.499   6.916   4.291 -1.0063 -0.2785 -1.3511
   14CHL1  H24B 1026   2.651   6.828   4.272  0.5129  1.8480 -0.6746
   14CHL1   C25 1027   2.536   6.858   4.085 -0.6057  0.2786 -0.0464
   14CHL1   H25 1028   2.604   6.944   4.071  0.2496 -0.3163  0.3940
   14CHL1   C26 1029   2.585   6.748   3.997  0.0564 -0.0008 -0.1457
   14CHL1  H26A 1030   2.694   6.733   4.004  0.3323  1.6663 -0.6016
   14CHL1  H26B 1031   2.535   6.651   4.022 -0.1288  0.6275  2.1198
   14CHL1  H26C 1032   2.563   6.771   3.891  0.8464 -1.0387 -0.5470
   14CHL1   C27 1033   2.393   6.888   4.038  0.0354 -0.3461  0.5054
   14CHL1  H27A 1034   2.343   6.790   4.024 -0.0606 -0.2291  0.0138
   14CHL1  H27B 1035   2.338   6.946   4.115  0.9613  0.3422  0.6736
   14CHL1  H27C 1036   2.387   6.938   3.939 -2.3206 -2.1203 -0.3454
   15CHL1    C3 1037   1.132   5.488   5.419 -0.7206 -0.8307 -0.1910
   15CHL1    H3 1038   1.032   5.476   5.373  0.0961 -5.0294 -1.2136
   15CHL1    O3 1039   1.117   5.527   5.555 -0.3961  0.7306  0.1151
   15CHL1   H3' 1040   1.203   5.566   5.575 -0.0402 -0.2146  0.5180
   15CHL1    C4 1041   1.201   5.356   5.406 -0.3942 -0.1650 -0.6706
   15CHL1   H4A 1042   1.303   5.378   5.446 -0.7584 -0.4097  0.4176
   15CHL1   H4B 1043   1.142   5.279   5.460 -2.2025  1.5800 -0.0461
   15CHL1    C5 1044   1.201   5.315   5.262  0.0711  0.4366  0.1056
   15CHL1    C6 1045   1.142   5.201   5.224 -0.7278  0.3243 -0.8616
   15CHL1    H6 1046   1.085   5.136   5.292  1.0452 -1.5727 -1.0849
   15CHL1    C7 1047   1.141   5.159   5.081 -0.2585 -0.5731  0.3127
   15CHL1   H7A 1048   1.167   5.052   5.067 -0.5174 -0.8262  1.5760
   15CHL1   H7B 1049   1.037   5.168   5.042 -0.4193  0.1033  0.8736
   15CHL1    C8 1050   1.234   5.232   4.989  0.4830 -0.4936 -0.2221
   15CHL1    H8 1051   1.335   5.186   4.998  0.7195  0.1160  0.3036
   15CHL1   C14 1052   1.196   5.211   4.844  0.1342 -0.0570  0.3266
   15CHL1   H14 1053   1.088   5.238   4.838  0.5963  1.8706 -0.1289
   15CHL1   C15 1054   1.211   5.069   4.791 -0.1241 -0.0442  0.3625
   15CHL1  H15A 1055   1.301   5.028   4.841 -0.8968  0.4994  2.2580
   15CHL1  H15B 1056   1.130   5.000   4.820 -0.8034 -0.6076 -2.5411
   15CHL1   C16 1057   1.231   5.081   4.640 -0.0389 -0.6935 -0.1054
   15CHL1  H16A 1058   1.329   5.034   4.616 -0.9049 -2.8263  0.3004
   15CHL1  H16B 1059   1.155   5.030   4.577  0.5241 -1.7620  0.0638
   15CHL1   C17 1060   1.219   5.240   4.609  0.3859  0.6618 -0.6688
   15CHL1   H17 1061   1.109   5.253   4.604 -0.1924 -3.0720 -0.3333
   15CHL1   C13 1062   1.267   5.301   4.737 -0.7237 -0.2075 -0.0139
   15CHL1   C18 1063   1.419   5.281   4.750 -0.2610 -0.6030  0.3777
   15CHL1  H18A 1064   1.441   5.177   4.716  0.5214 -0.2526 -0.2141
   15CHL1  H18B 1065   1.479   5.357   4.696 -2.2848  0.4203 -0.5331
   15CHL1  H18C 1066   1.465   5.293   4.851 -3.6102 -1.2189  2.1116
   15CHL1   C12 1067   1.235   5.445   4.773  0.3030  0.0808 -0.1249
   15CHL1  H12A 1068   1.298   5.503   4.702  3.4885 -0.4658  2.0469
   15CHL1  H12B 1069   1.125   5.461   4.769  0.1681 -0.5044  0.9987
   15CHL1   C11 1070   1.279   5.482   4.917  0.1505  0.5281 -1.5143
   15CHL1  H11A 1071   1.389   5.482   4.928  0.0734 -1.8470 -0.0172
   15CHL1  H11B 1072   1.256   5.590   4.932  0.1437  0.2157  1.4766
   15CHL1    C9 1073   1.223   5.384   5.027  0.6815  0.2476  0.8252
   15CHL1    H9 1074   1.113   5.396   5.021  0.3196 -1.5601  2.7682
   15CHL1   C10 1075   1.266   5.419   5.171  1.0222  0.4681 -0.7707
   15CHL1   C19 1076   1.422   5.421   5.186 -0.4169  0.2197 -0.1743
   15CHL1  H19A 1077   1.450   5.426   5.294 -0.5536 -1.3721 -0.0402
   15CHL1  H19B 1078   1.462   5.325   5.146  1.6912  0.8260  0.3326
   15CHL1  H19C 1079   1.467   5.506   5.132  1.2387 -0.6407 -0.2218
   15CHL1    C1 1080   1.221   5.560   5.201  0.3787  0.7749  0.4288
   15CHL1   H1A 1081   1.283   5.635   5.148 -0.7502  1.6543  0.3221
   15CHL1   H1B 1082   1.120   5.564   5.155  0.6529 -1.4936 -0.4788
   15CHL1    C2 1083   1.226   5.592   5.351  1.0337  1.0704  0.2822
   15CHL1   H2A 1084   1.188   5.696   5.360  0.1238  1.0922 -2.7879
   15CHL1   H2B 1085   1.329   5.589   5.391  1.3484 -1.7550 -0.5886
   15CHL1   C20 1086   1.281   5.289   4.481  0.0760  0.0164  0.1923
   15CHL1   H20 1087   1.387   5.313   4.503  0.3080 -1.4504  0.7960
   15CHL1   C21 1088   1.208   5.409   4.420 -0.0957 -0.5520  0.6906
   15CHL1  H21A 1089   1.106   5.378   4.389 -0.2285 -1.7028  2.1934
   15CHL1  H21B 1090   1.268   5.456   4.339 -0.3508  1.7396  1.7437
   15CHL1  H21C 1091   1.194   5.499   4.484 -1.4506 -1.0638  1.1629
   15CHL1   C22 1092   1.297   5.179   4.375  0.3568  0.1689 -0.3142
   15CHL1  H22A 1093   1.356   5.096   4.419 -2.3107 -0.9916  1.2880
   15CHL1  H22B 1094   1.200   5.130   4.351 -0.3430  1.9039 -1.2372
   15CHL1   C23 1095   1.377   5.227   4.251 -0.2143 -0.5170  0.2240
   15CHL1  H23A 1096   1.322   5.314   4.209  2.4106  1.3082  0.2690
   15CHL1  H23B 1097   1.480   5.263   4.274  0.1181 -2.0458  1.2401
   15CHL1   C24 1098   1.373   5.129   4.132 -0.1089  0.5441  0.1246
   15CHL1  H24A 1099   1.421   5.037   4.172 -0.1367  0.1716 -0.6654
   15CHL1  H24B 1100   1.266   5.104   4.119  0.4588 -0.4945 -3.7649
   15CHL1   C25 1101   1.445   5.178   4.004  0.1422  0.6939  0.0350
   15CHL1   H25 1102   1.393   5.270   3.970 -0.5922 -0.5983 -2.6911
   15CHL1   C26 1103   1.587   5.211   4.025  0.4943 -0.6029 -0.5421
   15CHL1  H26A 1104   1.638   5.223   3.927  1.9354  0.1621  0.2870
   15CHL1  H26B 1105   1.591   5.304   4.085 -0.0751 -0.8700 -0.0753
   15CHL1  H26C 1106   1.644   5.131   4.077  1.7623  0.0669 -0.8696
   15CHL1   C27 1107   1.429   5.067   3.896  0.3038 -0.3744  0.5591
   15CHL1  H27A 1108   1.501   5.090   3.815  0.7852  1.4842  1.4465
   15CHL1  H27B 1109   1.460   4.972   3.946  1.1629 -1.0638 -1.1795
   15CHL1  H27C 1110   1.331   5.053   3.846 -0.3079  2.6105  0.7471
   16CHL1    C3 1111   0.990   2.054   5.750  0.1635 -0.3836 -0.6953
   16CHL1    H3 1112   1.091   2.010   5.765  0.1596  0.1170  1.1142
   16CHL1    O3 1113   0.918   2.038   5.872  0.5222  0.2197 -0.6908
   16CHL1   H3' 1114   0.824   2.040   5.854  0.1241  0.4418  1.1803
   16CHL1    C4 1115   1.006   2.205   5.719 -0.8320  0.1202 -1.1930
   16CHL1   H4A 1116   0.907   2.254   5.732  0.3066  2.0502  0.7374
   16CHL1   H4B 1117   1.071   2.244   5.800 -3.6950  0.4303  1.1269
   16CHL1    C5 1118   1.059   2.242   5.580 -0.5418 -0.3427 -0.2545
   16CHL1    C6 1119   1.164   2.326   5.567 -0.4184 -0.2496 -0.6787
   16CHL1    H6 1120   1.222   2.344   5.659 -1.5779 -2.4771  0.5528
   16CHL1    C7 1121   1.228   2.346   5.433 -0.1818 -0.6758  0.3666
   16CHL1   H7A 1122   1.272   2.447   5.421 -1.4802 -0.1254  0.1408
   16CHL1   H7B 1123   1.303   2.265   5.418 -0.4595 -0.9293  0.3349
   16CHL1    C8 1124   1.128   2.324   5.319 -0.6681 -0.1743  0.0013
   16CHL1    H8 1125   1.054   2.408   5.315 -0.0030  0.3859 -0.9968
   16CHL1   C14 1126   1.208   2.331   5.185  0.1527 -0.1238 -0.6156
   16CHL1   H14 1127   1.286   2.251   5.188  0.6688  0.4027  0.6605
   16CHL1   C15 1128   1.288   2.466   5.162 -0.2211  0.3697  0.4709
   16CHL1  H15A 1129   1.235   2.563   5.167 -0.3235  0.4621 -1.4883
   16CHL1  H15B 1130   1.372   2.464   5.234  0.2844 -0.5926 -0.1215
   16CHL1   C16 1131   1.340   2.441   5.017 -0.2772 -0.0060  0.2182
   16CHL1  H16A 1132   1.350   2.535   4.958  1.7769 -0.7918 -0.7925
   16CHL1  H16B 1133   1.446   2.406   5.021  0.6233  2.4946 -0.1305
   16CHL1   C17 1134   1.251   2.331   4.956  0.2255 -0.0280  0.6037
   16CHL1   H17 1135   1.308   2.236   4.968  0.8742  0.3561  0.5679
   16CHL1   C13 1136   1.136   2.314   5.057 -0.1541 -0.4198  0.5346
   16CHL1   C18 1137   1.031   2.428   5.043  0.6379  0.4571  0.0980
   16CHL1  H18A 1138   0.950   2.418   5.119 -0.1337 -0.5507 -0.8174
   16CHL1  H18B 1139   1.081   2.526   5.055  0.1191  1.0449 -2.0760
   16CHL1  H18C 1140   0.969   2.429   4.950 -0.2471 -0.1803  0.6653
   16CHL1   C12 1141   1.059   2.178   5.066 -0.5033  0.3828  0.7220
   16CHL1  H12A 1142   0.992   2.183   4.978 -0.2708  2.9867  0.6310
   16CHL1  H12B 1143   1.128   2.091   5.068 -1.0507 -0.1937 -1.9374
   16CHL1   C11 1144   0.973   2.172   5.198 -0.2321  0.0005  0.3467
   16CHL1  H11A 1145   0.907   2.261   5.190  0.2994  0.2469 -1.8438
   16CHL1  H11B 1146   0.912   2.079   5.203 -0.3555  0.0499 -0.2169
   16CHL1    C9 1147   1.054   2.190   5.327  0.5682  0.0064  0.2442
   16CHL1    H9 1148   1.136   2.115   5.319  0.6771  0.3120 -2.0436
   16CHL1   C10 1149   0.983   2.175   5.460 -0.3048  0.2900 -1.5637
   16CHL1   C19 1150   0.843   2.242   5.461 -0.3947 -0.4934  0.0887
   16CHL1  H19A 1151   0.794   2.212   5.556  0.7633 -2.3376  0.1511
   16CHL1  H19B 1152   0.847   2.353   5.460 -1.5438 -0.4137  1.3043
   16CHL1  H19C 1153   0.779   2.190   5.386 -0.3884 -0.5908  0.1518
   16CHL1    C1 1154   0.969   2.026   5.490 -0.6884  0.1815 -0.0719
   16CHL1   H1A 1155   0.904   1.987   5.408  0.1998 -0.2752 -0.5769
   16CHL1   H1B 1156   1.069   1.980   5.476 -1.5465 -1.4499 -1.3015
   16CHL1    C2 1157   0.911   1.990   5.631 -0.1169  0.1777 -0.8808
   16CHL1   H2A 1158   0.915   1.882   5.656  0.2819  0.6076  1.0270
   16CHL1   H2B 1159   0.801   2.006   5.637 -0.3416 -1.1889 -0.9694
   16CHL1   C20 1160   1.225   2.353   4.809  0.5197  0.0323 -0.1200
   16CHL1   H20 1161   1.190   2.458   4.799 -1.1483 -0.3687  1.0146
   16CHL1   C21 1162   1.129   2.244   4.748 -0.4072  0.0989  0.1232
   16CHL1  H21A 1163   1.032   2.264   4.799  0.0456  3.0120 -0.0184
   16CHL1  H21B 1164   1.161   2.140   4.773  1.2334  0.2159 -1.2953
   16CHL1  H21C 1165   1.109   2.251   4.639 -0.1930 -0.3147  0.0509
   16CHL1   C22 1166   1.365   2.350   4.728 -0.4275 -0.0382 -0.0067
   16CHL1  H22A 1167   1.439   2.415   4.779 -1.2062  0.8433  0.0375
   16CHL1  H22B 1168   1.404   2.247   4.718 -4.7394 -2.4760  4.4717
   16CHL1   C23 1169   1.359   2.413   4.583  0.0218  0.0546  0.1111
   16CHL1  H23A 1170   1.458   2.401   4.534 -0.4968  1.2673 -1.3114
   16CHL1  H23B 1171   1.291   2.358   4.515 -0.1774 -1.5661  1.5639
   16CHL1   C24 1172   1.316   2.561   4.583  0.1231  0.3350  0.4117
   16CHL1  H24A 1173   1.207   2.563   4.605 -0.3612  0.7393 -1.7843
   16CHL1  H24B 1174   1.371   2.613   4.664 -1.6653 -0.1256  2.0257
   16CHL1   C25 1175   1.332   2.642   4.452  0.4076 -0.5021  0.1906
   16CHL1   H25 1176   1.269   2.589   4.377 -2.0038  0.6154  1.3081
   16CHL1   C26 1177   1.256   2.775   4.460 -0.8660 -0.3685 -0.1922
   16CHL1  H26A 1178   1.147   2.758   4.466 -0.9231 -0.2560 -0.8493
   16CHL1  H26B 1179   1.290   2.830   4.550  0.9534 -0.3350 -0.8585
   16CHL1  H26C 1180   1.270   2.834   4.367  1.5757 -1.0338 -0.3141
   16CHL1   C27 1181   1.473   2.661   4.417 -0.7508  0.5093  0.2439
   16CHL1  H27A 1182   1.520   2.716   4.502 -0.0961  1.0529 -0.4548
   16CHL1  H27B 1183   1.525   2.566   4.392 -1.9897  0.1584 -1.1242
   16CHL1  H27C 1184   1.472   2.729   4.329 -1.3583  2.0500  1.4024
   17CHL1    C3 1185   1.640   6.000   5.371 -0.0031 -0.4598 -0.3965
   17CHL1    H3 1186   1.575   6.091   5.375 -0.6941 -0.9648  2.1933
   17CHL1    O3 1187   1.693   5.974   5.504 -0.1800  0.7885 -0.0571
   17CHL1   H3' 1188   1.631   5.917   5.551  1.7426 -0.0215  1.6227
   17CHL1    C4 1189   1.540   5.888   5.337 -0.3508  0.6774  0.3958
   17CHL1   H4A 1190   1.583   5.789   5.359 -1.4255  0.1525  0.2302
   17CHL1   H4B 1191   1.466   5.900   5.419  0.9049  2.2822  1.3578
   17CHL1    C5 1192   1.487   5.898   5.198 -0.2083 -0.5073  0.3509
   17CHL1    C6 1193   1.354   5.878   5.172  0.0967 -0.5921 -0.3150
   17CHL1    H6 1194   1.295   5.836   5.254  1.0802 -1.2800  0.0517
   17CHL1    C7 1195   1.295   5.901   5.035  0.4335  0.7577  0.6884
   17CHL1   H7A 1196   1.216   5.826   5.013  2.4417 -0.8159 -1.7476
   17CHL1   H7B 1197   1.254   6.004   5.022  3.0590  1.6347 -1.6601
   17CHL1    C8 1198   1.397   5.880   4.923  0.1570 -0.4706 -0.0947
   17CHL1    H8 1199   1.425   5.773   4.915 -2.2382 -1.1170 -0.4328
   17CHL1   C14 1200   1.331   5.917   4.788  0.0238  0.4390 -0.3399
   17CHL1   H14 1201   1.305   6.025   4.793  0.3186  0.4964 -0.0196
   17CHL1   C15 1202   1.198   5.842   4.748  0.7876 -0.9667  0.1109
   17CHL1  H15A 1203   1.202   5.735   4.778 -0.2619 -0.5036  2.0603
   17CHL1  H15B 1204   1.109   5.896   4.787  1.5633  0.3914  0.0276
   17CHL1   C16 1205   1.192   5.849   4.586  0.4178 -0.1369  0.0965
   17CHL1  H16A 1206   1.190   5.747   4.543  1.5287 -0.4165  0.6755
   17CHL1  H16B 1207   1.109   5.906   4.540 -0.0226 -1.5748 -0.9508
   17CHL1   C17 1208   1.329   5.920   4.556  0.5067  0.4536  0.2313
   17CHL1   H17 1209   1.302   6.028   4.561 -2.2212 -0.1446 -0.0969
   17CHL1   C13 1210   1.425   5.894   4.674 -0.7699 -0.3779  0.0116
   17CHL1   C18 1211   1.476   5.746   4.659  0.4401  0.2166  0.3480
   17CHL1  H18A 1212   1.392   5.680   4.626  0.1372  0.0098  1.4882
   17CHL1  H18B 1213   1.557   5.737   4.584 -0.3486  1.8436 -0.7611
   17CHL1  H18C 1214   1.522   5.717   4.756 -0.4253  1.6729  1.2358
   17CHL1   C12 1215   1.544   5.983   4.700  0.0811 -0.0586 -0.3505
   17CHL1  H12A 1216   1.623   5.980   4.622  0.8777  1.5990  0.3518
   17CHL1  H12B 1217   1.504   6.087   4.704  1.6353  0.8181 -3.5978
   17CHL1   C11 1218   1.626   5.964   4.832  0.0854 -0.5286 -0.6055
   17CHL1  H11A 1219   1.685   5.870   4.834  0.1938 -0.4905 -1.4389
   17CHL1  H11B 1220   1.699   6.047   4.843 -0.3467 -0.0475 -1.2791
   17CHL1    C9 1221   1.526   5.965   4.952 -0.3816 -0.4447 -0.4026
   17CHL1    H9 1222   1.496   6.072   4.958  0.3859 -0.2983  1.8976
   17CHL1   C10 1223   1.597   5.928   5.091  0.1336  0.4897  0.7012
   17CHL1   C19 1224   1.680   5.794   5.078  0.3606 -0.0942  0.0834
   17CHL1  H19A 1225   1.712   5.759   5.179 -0.6807 -0.4299  0.3071
   17CHL1  H19B 1226   1.610   5.719   5.036 -0.0500  1.0178 -1.3074
   17CHL1  H19C 1227   1.774   5.812   5.020  0.5756 -0.8155  0.1934
   17CHL1    C1 1228   1.691   6.040   5.129 -0.7405  0.6594  0.7146
   17CHL1   H1A 1229   1.767   6.059   5.050  1.4883 -4.1255  1.3598
   17CHL1   H1B 1230   1.635   6.136   5.135  0.8493  1.5922  1.3050
   17CHL1    C2 1231   1.755   6.024   5.268  0.2782  0.0250 -0.5662
   17CHL1   H2A 1232   1.814   6.111   5.304  1.0401 -1.3723  1.8367
   17CHL1   H2B 1233   1.824   5.936   5.268  0.1010 -0.1509  1.2139
   17CHL1   C20 1234   1.373   5.902   4.408 -0.6599 -0.1557 -0.1540
   17CHL1   H20 1235   1.285   5.945   4.355 -1.1942 -2.1830 -0.9737
   17CHL1   C21 1236   1.392   5.766   4.347  0.1852 -0.2740  0.0073
   17CHL1  H21A 1237   1.320   5.688   4.381  0.1372  0.4009  1.5368
   17CHL1  H21B 1238   1.494   5.730   4.373 -0.2848 -2.4392 -0.8812
   17CHL1  H21C 1239   1.384   5.783   4.237 -1.1635  1.8241  0.3761
   17CHL1   C22 1240   1.485   5.997   4.365 -0.2492  0.0134 -0.2528
   17CHL1  H22A 1241   1.475   6.095   4.417 -3.0160  0.0393 -0.7122
   17CHL1  H22B 1242   1.583   5.946   4.379  0.5063  0.2312 -3.9030
   17CHL1   C23 1243   1.490   6.037   4.213  0.9943  0.0051 -0.8201
   17CHL1  H23A 1244   1.517   5.945   4.157  0.6182  1.6054 -3.8441
   17CHL1  H23B 1245   1.390   6.068   4.177 -0.3622  0.3349  2.8852
   17CHL1   C24 1246   1.598   6.139   4.192 -0.8664  0.1342 -0.2381
   17CHL1  H24A 1247   1.559   6.222   4.255 -2.0960 -0.1351 -0.6182
   17CHL1  H24B 1248   1.694   6.104   4.236 -1.7225 -0.4920  1.1906
   17CHL1   C25 1249   1.612   6.179   4.046 -0.2745 -0.4356  0.2508
   17CHL1   H25 1250   1.516   6.174   3.990  1.4585 -0.2270 -2.9862
   17CHL1   C26 1251   1.675   6.326   4.030  0.6514 -0.4773 -0.7020
   17CHL1  H26A 1252   1.758   6.341   4.101 -0.4218  3.1227 -0.0061
   17CHL1  H26B 1253   1.712   6.334   3.925  0.7249  0.9848 -0.5815
   17CHL1  H26C 1254   1.606   6.411   4.048  1.9413  0.2537  1.1175
   17CHL1   C27 1255   1.698   6.076   3.978  0.2302  0.1016  0.7848
   17CHL1  H27A 1256   1.706   6.099   3.869 -1.6546  2.3465  1.0529
   17CHL1  H27B 1257   1.795   6.052   4.026  0.7616 -2.0583 -1.1897
   17CHL1  H27C 1258   1.636   5.984   3.968  0.1332  0.2907 -0.5870
   18CHL1    C3 1259   4.024   0.509   5.617 -0.7371  0.4094 -0.1847
   18CHL1    H3 1260   4.104   0.575   5.578  0.4711 -0.2696  1.0453
   18CHL1    O3 1261   4.032   0.521   5.756 -0.3220 -0.0162 -0.0310
   18CHL1   H3' 1262   4.122   0.494   5.771 -0.5786 -0.3613  0.9225
   18CHL1    C4 1263   3.880   0.551   5.577  0.0540  0.1539  0.4084
   18CHL1   H4A 1264   3.795   0.488   5.612 -0.8174  1.1916  0.2216
   18CHL1   H4B 1265   3.865   0.649   5.627  0.4486 -0.0016  0.8336
   18CHL1    C5 1266   3.862   0.557   5.431  0.7111  0.0536 -0.3621
   18CHL1    C6 1267   3.826   0.669   5.376  0.1065 -0.2636 -0.4523
   18CHL1    H6 1268   3.788   0.761   5.424 -1.5237  0.2789 -2.6008
   18CHL1    C7 1269   3.816   0.682   5.228 -0.5670  0.9305  0.2691
   18CHL1   H7A 1270   3.721   0.731   5.196 -1.5524 -0.4658  0.9607
   18CHL1   H7B 1271   3.902   0.738   5.185 -0.8132  0.4012 -0.9540
   18CHL1    C8 1272   3.807   0.536   5.154  0.4758  0.3538  0.2243
   18CHL1    H8 1273   3.706   0.495   5.176 -1.0170  1.9906 -2.9120
   18CHL1   C14 1274   3.821   0.560   5.005  0.0806  1.0771 -0.6443
   18CHL1   H14 1275   3.922   0.603   4.988  1.5852 -2.1662 -0.6115
   18CHL1   C15 1276   3.724   0.654   4.945  0.0046 -0.6873  0.1724
   18CHL1  H15A 1277   3.623   0.635   4.986 -0.4228 -1.1852 -1.0493
   18CHL1  H15B 1278   3.755   0.758   4.967 -1.2647 -0.3950  0.6545
   18CHL1   C16 1279   3.736   0.617   4.796 -1.2941 -0.3230 -0.2618
   18CHL1  H16A 1280   3.633   0.598   4.758 -0.7404 -2.3676 -0.8628
   18CHL1  H16B 1281   3.780   0.697   4.734 -0.5570  1.5156  2.4295
   18CHL1   C17 1282   3.832   0.497   4.794 -0.2962  0.2416  0.5341
   18CHL1   H17 1283   3.935   0.538   4.785 -0.2737 -0.2769 -2.5952
   18CHL1   C13 1284   3.821   0.426   4.931  0.2604 -0.6840  0.4522
   18CHL1   C18 1285   3.678   0.361   4.939  0.3768 -0.4404 -0.5316
   18CHL1  H18A 1286   3.592   0.419   4.899  1.7556  2.2249  0.1050
   18CHL1  H18B 1287   3.681   0.270   4.876 -2.3918  0.4790 -2.1579
   18CHL1  H18C 1288   3.652   0.336   5.044 -1.4088 -0.6034 -0.9747
   18CHL1   C12 1289   3.928   0.331   4.977 -0.0216 -0.4698 -0.5290
   18CHL1  H12A 1290   3.930   0.232   4.925  3.3292 -2.2820  2.5775
   18CHL1  H12B 1291   4.026   0.379   4.956  1.1879 -3.3979 -2.2964
   18CHL1   C11 1292   3.922   0.305   5.131  0.3254  0.1210  0.0923
   18CHL1  H11A 1293   3.822   0.258   5.138 -0.8759  2.4073 -0.6415
   18CHL1  H11B 1294   4.007   0.241   5.161 -0.3301 -0.2013  1.3223
   18CHL1    C9 1295   3.914   0.438   5.215 -0.0219 -0.7435  0.0301
   18CHL1    H9 1296   4.014   0.484   5.205 -0.5161  0.2126 -0.6520
   18CHL1   C10 1297   3.897   0.417   5.364 -0.1650 -0.3664  0.3059
   18CHL1   C19 1298   3.777   0.321   5.392  0.6559 -0.3405 -0.7539
   18CHL1  H19A 1299   3.798   0.221   5.347  0.5246 -1.2936  1.1923
   18CHL1  H19B 1300   3.771   0.304   5.501 -0.8698  1.0695 -0.5746
   18CHL1  H19C 1301   3.686   0.365   5.346  0.0753 -0.9679 -0.2375
   18CHL1    C1 1302   4.033   0.360   5.423 -0.4285  0.0051 -0.6551
   18CHL1   H1A 1303   4.055   0.261   5.378  2.6396  0.4733 -0.3727
   18CHL1   H1B 1304   4.108   0.425   5.375  0.1545 -1.3422 -1.6430
   18CHL1    C2 1305   4.046   0.363   5.572  0.4831 -0.1440  0.0080
   18CHL1   H2A 1306   4.148   0.332   5.602  0.6560  0.2651 -0.1498
   18CHL1   H2B 1307   3.978   0.291   5.623 -1.4719 -0.3538 -2.6239
   18CHL1   C20 1308   3.827   0.408   4.671 -0.0869 -0.2271  0.0940
   18CHL1   H20 1309   3.873   0.311   4.701  0.1065 -0.8086 -1.9001
   18CHL1   C21 1310   3.906   0.495   4.568  0.1027 -0.2866 -0.3034
   18CHL1  H21A 1311   3.891   0.456   4.465  0.5056  0.1907 -0.5488
   18CHL1  H21B 1312   4.017   0.494   4.579  0.0318 -0.0422  0.5117
   18CHL1  H21C 1313   3.875   0.602   4.566 -1.0316 -0.5902  0.4904
   18CHL1   C22 1314   3.689   0.375   4.610  0.5649  0.1889  0.2255
   18CHL1  H22A 1315   3.637   0.309   4.683  1.5611  0.9862  1.7054
   18CHL1  H22B 1316   3.629   0.466   4.586 -0.5835 -0.6578 -0.2151
   18CHL1   C23 1317   3.689   0.285   4.483 -0.2449  0.7167 -0.0017
   18CHL1  H23A 1318   3.745   0.335   4.401 -0.6335 -0.5776 -1.1120
   18CHL1  H23B 1319   3.729   0.181   4.493  0.8356  1.2582  1.8429
   18CHL1   C24 1320   3.545   0.274   4.429  0.0420 -0.4439  0.6732
   18CHL1  H24A 1321   3.476   0.242   4.511 -1.6927 -0.7724 -0.8318
   18CHL1  H24B 1322   3.509   0.375   4.398 -0.4833 -0.9337 -0.3796
   18CHL1   C25 1323   3.513   0.199   4.298 -0.2522 -0.2112 -0.2617
   18CHL1   H25 1324   3.538   0.092   4.312  1.1433 -0.0303 -1.1203
   18CHL1   C26 1325   3.358   0.205   4.263 -0.7536  0.1067  0.3116
   18CHL1  H26A 1326   3.295   0.152   4.338  0.0601 -1.5447 -0.1400
   18CHL1  H26B 1327   3.325   0.311   4.262  0.1445  0.3868 -0.1972
   18CHL1  H26C 1328   3.328   0.148   4.172 -1.2642 -0.2617  0.6996
   18CHL1   C27 1329   3.587   0.248   4.171  0.1643 -0.9594 -0.4017
   18CHL1  H27A 1330   3.567   0.186   4.081  1.7200  0.3807 -1.7267
   18CHL1  H27B 1331   3.544   0.348   4.149 -0.2171 -1.4468 -2.0734
   18CHL1  H27C 1332   3.695   0.263   4.186 -0.3278  1.9083  0.7801
   19CHL1    C3 1333   2.369   1.167   5.627  0.3527  0.9982  0.0462
   19CHL1    H3 1334   2.381   1.276   5.611 -1.6833  1.6965  2.6375
   19CHL1    O3 1335   2.348   1.151   5.762 -0.4646  0.0331  0.0880
   19CHL1   H3' 1336   2.297   1.228   5.788  0.7540  0.2491  2.1334
   19CHL1    C4 1337   2.247   1.126   5.547 -0.1444 -0.1342 -0.8448
   19CHL1   H4A 1338   2.223   1.018   5.561 -0.2670  0.0602  0.5685
   19CHL1   H4B 1339   2.162   1.177   5.597 -0.5485 -0.3052 -1.3505
   19CHL1    C5 1340   2.277   1.164   5.400  0.5118  0.8339  0.4818
   19CHL1    C6 1341   2.196   1.239   5.326 -0.8395 -0.5366  0.3170
   19CHL1    H6 1342   2.106   1.282   5.371 -1.3585 -0.2986 -0.9014
   19CHL1    C7 1343   2.214   1.273   5.183 -0.3124 -0.2284 -0.2080
   19CHL1   H7A 1344   2.119   1.272   5.126  0.6229  1.4357 -1.9326
   19CHL1   H7B 1345   2.264   1.372   5.190 -2.1913  0.7134  0.5658
   19CHL1    C8 1346   2.322   1.180   5.117 -0.6087  0.2020 -0.3026
   19CHL1    H8 1347   2.270   1.086   5.088 -2.2021  0.8473  0.3014
   19CHL1   C14 1348   2.374   1.248   4.993 -0.3617 -0.0527  0.9106
   19CHL1   H14 1349   2.434   1.338   5.019 -1.6573  0.7659  1.1659
   19CHL1   C15 1350   2.267   1.311   4.898 -0.1005 -0.7417  0.2292
   19CHL1  H15A 1351   2.181   1.241   4.892 -0.6906 -0.0887  0.8982
   19CHL1  H15B 1352   2.219   1.407   4.925 -0.3981 -0.8423  0.0688
   19CHL1   C16 1353   2.344   1.314   4.759 -0.0915  0.7595 -0.3034
   19CHL1  H16A 1354   2.294   1.237   4.695 -2.4361  0.5741  1.5916
   19CHL1  H16B 1355   2.346   1.406   4.696 -0.0266  0.6194 -0.5060
   19CHL1   C17 1356   2.482   1.260   4.782 -0.0936  0.2528  0.0042
   19CHL1   H17 1357   2.547   1.341   4.821  2.0671 -1.5649  0.4005
   19CHL1   C13 1358   2.474   1.167   4.910  0.0357 -0.8035 -0.5484
   19CHL1   C18 1359   2.415   1.032   4.862  0.3420 -0.0386  0.3214
   19CHL1  H18A 1360   2.332   1.045   4.789 -1.5826 -0.3328  2.3608
   19CHL1  H18B 1361   2.489   0.963   4.815  0.0379  0.6949 -1.3126
   19CHL1  H18C 1362   2.385   0.968   4.947  0.7841  1.0524  1.3216
   19CHL1   C12 1363   2.595   1.152   5.005 -0.4238 -0.0566  0.3391
   19CHL1  H12A 1364   2.661   1.073   4.961 -0.5696  0.2207 -0.3844
   19CHL1  H12B 1365   2.656   1.241   5.033 -1.1282  0.4626  0.2353
   19CHL1   C11 1366   2.552   1.080   5.135 -0.2779  0.0361  0.0558
   19CHL1  H11A 1367   2.543   0.976   5.095 -2.1200  0.1310  0.1510
   19CHL1  H11B 1368   2.636   1.078   5.208 -1.0698  0.0661  0.9895
   19CHL1    C9 1369   2.436   1.150   5.207  0.5526  0.0923 -0.5074
   19CHL1    H9 1370   2.493   1.244   5.225  0.0978  0.3577 -0.4540
   19CHL1   C10 1371   2.403   1.091   5.346  0.1286 -0.0879 -0.3413
   19CHL1   C19 1372   2.372   0.937   5.326 -0.5902  0.3653 -0.1819
   19CHL1  H19A 1373   2.315   0.905   5.417 -0.6737  2.6129  0.6197
   19CHL1  H19B 1374   2.300   0.921   5.243 -1.2273  0.0679  0.4068
   19CHL1  H19C 1375   2.469   0.886   5.313 -0.8968 -0.0091 -1.0612
   19CHL1    C1 1376   2.524   1.117   5.436 -0.5057 -0.4728 -1.1364
   19CHL1   H1A 1377   2.608   1.051   5.408  0.2089 -0.1546  0.1606
   19CHL1   H1B 1378   2.562   1.221   5.427 -0.8519 -0.4675 -2.8557
   19CHL1    C2 1379   2.492   1.089   5.591  0.0179 -0.0593  0.3410
   19CHL1   H2A 1380   2.576   1.119   5.657 -1.3218  1.7180  1.3131
   19CHL1   H2B 1381   2.468   0.981   5.600  0.6409 -0.1393  1.1867
   19CHL1   C20 1382   2.553   1.205   4.658  0.3994  0.0244  0.2815
   19CHL1   H20 1383   2.513   1.107   4.627 -0.2358 -0.4434  2.4076
   19CHL1   C21 1384   2.690   1.170   4.703 -0.7064 -0.6395  0.3696
   19CHL1  H21A 1385   2.732   1.261   4.751 -1.5078  0.1158 -0.3339
   19CHL1  H21B 1386   2.764   1.141   4.626 -0.2281 -1.4092  1.1123
   19CHL1  H21C 1387   2.693   1.084   4.773  0.6690  0.7231  2.0900
   19CHL1   C22 1388   2.551   1.291   4.530  0.6324  0.1285  0.5527
   19CHL1  H22A 1389   2.444   1.322   4.525  0.1158 -1.0375  2.9304
   19CHL1  H22B 1390   2.612   1.381   4.551 -0.7750  0.6994  2.4759
   19CHL1   C23 1391   2.584   1.215   4.402 -0.1579  0.1127  0.2516
   19CHL1  H23A 1392   2.688   1.182   4.381 -0.5621 -1.0082 -0.0801
   19CHL1  H23B 1393   2.519   1.126   4.395 -0.3202  0.1396  1.2679
   19CHL1   C24 1394   2.551   1.299   4.281 -0.1178 -0.1417  0.0789
   19CHL1  H24A 1395   2.442   1.291   4.264  0.4598 -1.0078 -4.2528
   19CHL1  H24B 1396   2.579   1.399   4.321  0.2015 -0.4467  0.6315
   19CHL1   C25 1397   2.623   1.264   4.146 -0.1988 -0.0410  0.2014
   19CHL1   H25 1398   2.557   1.307   4.067 -3.3108  1.0153  3.1286
   19CHL1   C26 1399   2.762   1.328   4.132 -0.3284  0.0650  0.0326
   19CHL1  H26A 1400   2.796   1.301   4.030 -1.3697 -0.3285 -0.2146
   19CHL1  H26B 1401   2.761   1.438   4.144  0.0164 -0.1746  3.0022
   19CHL1  H26C 1402   2.829   1.271   4.201  2.1829  0.3865 -1.9952
   19CHL1   C27 1403   2.641   1.117   4.121  0.0954  0.0936  0.3651
   19CHL1  H27A 1404   2.553   1.052   4.109 -0.3459  0.8276 -0.5098
   19CHL1  H27B 1405   2.709   1.100   4.035  0.1811  1.2934  0.1766
   19CHL1  H27C 1406   2.704   1.068   4.199  0.6878  0.1292 -0.0788
   20CHL1    C3 1407   1.968   0.760   5.714 -0.0534 -0.9216  0.1212
   20CHL1    H3 1408   2.031   0.851   5.713  0.1898 -1.0226 -3.3767
   20CHL1    O3 1409   1.934   0.714   5.841  0.0965  0.0597  0.3200
   20CHL1   H3' 1410   2.008   0.657   5.861  1.8915  1.5014 -1.7332
   20CHL1    C4 1411   1.833   0.802   5.642  0.4780 -0.3883  0.2306
   20CHL1   H4A 1412   1.763   0.716   5.637 -0.7490  0.6481 -1.7210
   20CHL1   H4B 1413   1.784   0.874   5.710 -0.6526 -2.7098  2.0000
   20CHL1    C5 1414   1.862   0.856   5.500 -0.2867  0.8068 -0.1363
   20CHL1    C6 1415   1.831   0.980   5.464 -0.2017  0.2509 -0.6901
   20CHL1    H6 1416   1.785   1.048   5.537  0.4652 -1.6430  1.5795
   20CHL1    C7 1417   1.851   1.035   5.327  0.1899  0.4515 -0.5700
   20CHL1   H7A 1418   1.754   1.085   5.304 -0.7605 -1.0651 -0.0127
   20CHL1   H7B 1419   1.939   1.103   5.322  2.4891 -1.8516  3.3222
   20CHL1    C8 1420   1.884   0.921   5.233 -0.5556 -0.2654  0.1694
   20CHL1    H8 1421   1.790   0.863   5.216 -0.2489 -1.6939  2.7380
   20CHL1   C14 1422   1.935   0.977   5.102 -0.4226  0.0589  0.4635
   20CHL1   H14 1423   2.025   1.038   5.126 -0.3805 -1.1251  3.8369
   20CHL1   C15 1424   1.832   1.073   5.032 -0.4789 -0.2345 -0.4686
   20CHL1  H15A 1425   1.723   1.056   5.017 -0.8455  0.6578  0.9134
   20CHL1  H15B 1426   1.842   1.176   5.073  0.8391 -0.3400 -0.4938
   20CHL1   C16 1427   1.896   1.086   4.890 -0.2858  0.1195  0.1572
   20CHL1  H16A 1428   1.817   1.085   4.812  0.0221  3.1423 -0.3302
   20CHL1  H16B 1429   1.948   1.184   4.879 -0.3626  0.1834  0.3664
   20CHL1   C17 1430   1.998   0.965   4.875  0.2184  0.0729  0.7978
   20CHL1   H17 1431   2.102   1.001   4.891  1.9597 -3.4785 -1.0508
   20CHL1   C13 1432   1.972   0.877   4.995  0.4032  0.2044 -0.3072
   20CHL1   C18 1433   1.853   0.789   4.950 -0.0898  0.4751 -0.5790
   20CHL1  H18A 1434   1.807   0.729   5.032  0.4138 -0.1957 -0.7811
   20CHL1  H18B 1435   1.774   0.850   4.903 -1.4479 -0.6647  0.1396
   20CHL1  H18C 1436   1.880   0.709   4.878 -2.3378  0.2054 -1.2089
   20CHL1   C12 1437   2.087   0.794   5.050 -0.0871 -0.3134  0.1525
   20CHL1  H12A 1438   2.123   0.730   4.967 -0.2715  0.4750 -0.5467
   20CHL1  H12B 1439   2.167   0.866   5.078 -0.6745 -0.1765  1.5780
   20CHL1   C11 1440   2.042   0.730   5.177  0.2348 -0.0388 -0.1654
   20CHL1  H11A 1441   1.980   0.645   5.142 -0.5341  0.1502  0.6915
   20CHL1  H11B 1442   2.127   0.668   5.211  1.9728  1.8861 -0.7935
   20CHL1    C9 1443   1.983   0.825   5.289  0.3487  0.5158  0.7941
   20CHL1    H9 1444   2.067   0.890   5.320  0.9510  0.6047 -0.9236
   20CHL1   C10 1445   1.930   0.751   5.420 -0.0487  0.8006 -0.1828
   20CHL1   C19 1446   1.833   0.631   5.378 -0.4942  0.5091  0.0913
   20CHL1  H19A 1447   1.758   0.671   5.307  1.5986  0.6458 -2.1698
   20CHL1  H19B 1448   1.890   0.549   5.329 -1.7057 -0.9185  0.9586
   20CHL1  H19C 1449   1.780   0.589   5.466 -0.5028  1.7331  0.6882
   20CHL1    C1 1450   2.060   0.695   5.494  0.5625 -0.0749 -0.1323
   20CHL1   H1A 1451   2.091   0.601   5.443  1.6421  0.4419 -0.4414
   20CHL1   H1B 1452   2.143   0.767   5.491  0.9958 -0.6110 -2.6517
   20CHL1    C2 1453   2.035   0.649   5.638 -0.1341  0.0360  0.5634
   20CHL1   H2A 1454   2.137   0.631   5.677  0.9820  2.8017 -0.8019
   20CHL1   H2B 1455   1.976   0.555   5.642 -2.3914  1.3331 -0.4542
   20CHL1   C20 1456   2.001   0.915   4.732  0.2901 -0.0255  0.1316
   20CHL1   H20 1457   1.912   0.855   4.705  0.9336 -0.8386 -0.2074
   20CHL1   C21 1458   2.120   0.811   4.713 -0.9347 -0.0704  0.1888
   20CHL1  H21A 1459   2.090   0.716   4.763  0.2985 -0.1289  0.8376
   20CHL1  H21B 1460   2.215   0.835   4.764  0.4429  0.0075 -2.2573
   20CHL1  H21C 1461   2.143   0.786   4.607 -0.1256 -0.4250  0.4418
   20CHL1   C22 1462   2.025   1.030   4.635  0.5650  0.2919  0.3858
   20CHL1  H22A 1463   1.934   1.092   4.622  0.5910 -0.2941 -3.9682
   20CHL1  H22B 1464   2.108   1.086   4.683 -0.3479 -0.8282  3.5740
   20CHL1   C23 1465   2.039   0.991   4.482  0.0349 -0.3198  0.3525
   20CHL1  H23A 1466   2.129   0.932   4.455  0.5393  1.2154 -1.5059
   20CHL1  H23B 1467   1.958   0.919   4.460 -0.4520  0.3046  0.0487
   20CHL1   C24 1468   2.017   1.113   4.393  0.2353 -0.1082  0.6932
   20CHL1  H24A 1469   1.913   1.152   4.401  1.2023  2.7212  0.5880
   20CHL1  H24B 1470   2.082   1.189   4.441 -1.6845  0.5072  2.4609
   20CHL1   C25 1471   2.053   1.082   4.247 -0.2550 -0.7000  0.0991
   20CHL1   H25 1472   1.999   0.994   4.205 -0.5007 -0.8625  0.7499
   20CHL1   C26 1473   2.005   1.195   4.154  0.2196  0.1890 -0.0802
   20CHL1  H26A 1474   1.896   1.208   4.169  0.3346 -0.6131  1.7246
   20CHL1  H26B 1475   2.053   1.289   4.188  1.3158 -1.4261  3.3125
   20CHL1  H26C 1476   2.026   1.171   4.048 -0.4361  1.3541 -0.4858
   20CHL1   C27 1477   2.203   1.061   4.231 -0.5488 -0.4816 -0.4062
   20CHL1  H27A 1478   2.232   1.058   4.124 -1.6146 -2.0101 -0.6881
   20CHL1  H27B 1479   2.258   1.151   4.265 -3.2533  1.1773 -0.1217
   20CHL1  H27C 1480   2.237   0.965   4.276 -2.7435 -0.2195  2.1150
   21CHL1    C3 1481   6.783   2.095   5.606 -0.0666  0.6075  0.8870
   21CHL1    H3 1482   6.889   2.103   5.640  0.4477  1.8823 -0.8602
   21CHL1    O3 1483   6.702   2.120   5.725 -0.1529  0.1074  0.4103
   21CHL1   H3' 1484   6.612   2.140   5.699  0.0511 -1.2268 -1.5208
   21CHL1    C4 1485   6.756   2.203   5.504 -0.1379 -0.3853  0.0760
   21CHL1   H4A 1486   6.647   2.208   5.480 -0.0300 -1.4465 -0.7094
   21CHL1   H4B 1487   6.794   2.294   5.555  1.9474 -0.8747 -0.5227
   21CHL1    C5 1488   6.837   2.176   5.375  0.0924  0.1488 -0.0551
   21CHL1    C6 1489   6.915   2.272   5.326  0.6160 -0.5856 -0.8672
   21CHL1    H6 1490   6.920   2.369   5.378 -1.0275 -1.5306  1.1985
   21CHL1    C7 1491   6.995   2.270   5.209 -0.7949  0.3222  0.1300
   21CHL1   H7A 1492   6.994   2.367   5.156 -0.5353  1.6954  2.4698
   21CHL1   H7B 1493   7.103   2.269   5.235 -0.6708  0.2025 -0.3760
   21CHL1    C8 1494   6.956   2.141   5.121 -0.7259 -0.6605  0.0558
   21CHL1    H8 1495   6.869   2.180   5.064  0.3626  3.0158  0.6315
   21CHL1   C14 1496   7.075   2.112   5.030 -0.9759  0.0962  0.4585
   21CHL1   H14 1497   7.161   2.089   5.096 -1.0564 -1.0012  0.2017
   21CHL1   C15 1498   7.119   2.230   4.940 -0.3247  0.1860  0.5323
   21CHL1  H15A 1499   7.039   2.258   4.868  1.8502  0.0940 -2.1254
   21CHL1  H15B 1500   7.159   2.321   4.989 -0.6952  1.8762 -2.0723
   21CHL1   C16 1501   7.226   2.155   4.856 -0.3254 -0.2077 -0.1843
   21CHL1  H16A 1502   7.220   2.196   4.753 -3.1545  2.0712  0.7709
   21CHL1  H16B 1503   7.333   2.158   4.888 -0.4480 -1.5253  0.4228
   21CHL1   C17 1504   7.182   1.997   4.858 -0.5309 -0.8710 -0.3681
   21CHL1   H17 1505   7.259   1.949   4.923 -0.3670 -0.6325 -0.3827
   21CHL1   C13 1506   7.056   1.995   4.933  0.1722 -0.1952 -0.3092
   21CHL1   C18 1507   6.938   2.023   4.840 -0.1340  0.7891 -0.0778
   21CHL1  H18A 1508   6.958   2.089   4.753  0.7333  0.1332 -0.4023
   21CHL1  H18B 1509   6.899   1.928   4.797 -0.4482  0.9060 -0.0512
   21CHL1  H18C 1510   6.843   2.051   4.889 -0.7682 -1.9942  0.4791
   21CHL1   C12 1511   7.022   1.875   5.014  0.2785 -0.2888 -0.1236
   21CHL1  H12A 1512   6.985   1.792   4.949 -3.0975 -0.5019  1.8174
   21CHL1  H12B 1513   7.106   1.840   5.077  1.7993 -0.5835 -2.2061
   21CHL1   C11 1514   6.906   1.900   5.111  0.7307 -0.2200  0.7348
   21CHL1  H11A 1515   6.817   1.911   5.046  1.5742 -1.4353 -0.6907
   21CHL1  H11B 1516   6.883   1.806   5.166  0.0810 -0.0789  0.7010
   21CHL1    C9 1517   6.926   2.018   5.206  0.2534  0.2785  0.2397
   21CHL1    H9 1518   7.022   1.999   5.258  0.7048 -0.7006 -0.8774
   21CHL1   C10 1519   6.822   2.033   5.318 -0.0415  0.3344  0.1884
   21CHL1   C19 1520   6.682   2.013   5.249  0.7995 -0.1468 -0.3397
   21CHL1  H19A 1521   6.663   1.908   5.220  0.2207 -0.1084 -0.1020
   21CHL1  H19B 1522   6.596   2.067   5.293 -0.2890 -0.8089 -1.5978
   21CHL1  H19C 1523   6.690   2.047   5.143 -0.0822 -2.7906 -1.3169
   21CHL1    C1 1524   6.848   1.925   5.427  0.2431  0.2252  0.1833
   21CHL1   H1A 1525   6.827   1.821   5.395 -0.5678  0.1252  0.9819
   21CHL1   H1B 1526   6.951   1.926   5.469  0.3347 -0.3381 -0.0145
   21CHL1    C2 1527   6.761   1.951   5.553 -0.1686 -0.4290  0.0163
   21CHL1   H2A 1528   6.788   1.874   5.629  0.1791 -0.1704  0.1589
   21CHL1   H2B 1529   6.656   1.934   5.522 -0.3112  2.7252 -1.5724
   21CHL1   C20 1530   7.194   1.923   4.727 -0.4276 -0.1202 -0.3639
   21CHL1   H20 1531   7.120   1.964   4.656  0.1372  1.7298  0.0560
   21CHL1   C21 1532   7.159   1.769   4.730 -0.5205 -0.6697 -0.4600
   21CHL1  H21A 1533   7.145   1.725   4.629  2.0722 -0.5889 -0.9223
   21CHL1  H21B 1534   7.064   1.745   4.782 -0.7957  1.0603 -0.0957
   21CHL1  H21C 1535   7.244   1.721   4.784  0.5390  2.5741  0.9766
   21CHL1   C22 1536   7.342   1.937   4.674 -0.6148  0.0365  0.2044
   21CHL1  H22A 1537   7.373   2.044   4.665  1.4622 -0.5863 -0.5090
   21CHL1  H22B 1538   7.414   1.889   4.744  2.6578  0.8228 -2.3841
   21CHL1   C23 1539   7.356   1.878   4.531  0.8140  0.5667  0.1239
   21CHL1  H23A 1540   7.337   1.770   4.547 -1.9993  0.7016 -1.6253
   21CHL1  H23B 1541   7.281   1.924   4.463  1.3159 -0.5897 -1.2659
   21CHL1   C24 1542   7.493   1.898   4.467 -0.2778 -0.2848 -0.7048
   21CHL1  H24A 1543   7.514   1.992   4.411 -0.5441 -0.4585 -1.0997
   21CHL1  H24B 1544   7.568   1.881   4.547  1.8352 -1.1529 -2.7384
   21CHL1   C25 1545   7.539   1.789   4.367  0.0299  0.4046  0.5726
   21CHL1   H25 1546   7.527   1.687   4.409 -1.1957  0.6495  0.8602
   21CHL1   C26 1547   7.451   1.785   4.235 -0.0266  0.3254 -0.0301
   21CHL1  H26A 1548   7.498   1.715   4.163 -1.2200 -0.1076 -0.4197
   21CHL1  H26B 1549   7.353   1.743   4.265  0.1981 -0.6938 -0.6645
   21CHL1  H26C 1550   7.444   1.891   4.204  2.0589  0.3755 -0.5071
   21CHL1   C27 1551   7.685   1.790   4.329  0.5873 -0.4549 -0.1144
   21CHL1  H27A 1552   7.701   1.867   4.251  0.0168  0.7371  0.9246
   21CHL1  H27B 1553   7.736   1.806   4.426 -0.4737 -1.3044  0.6077
   21CHL1  H27C 1554   7.711   1.689   4.290  1.9614  0.1790 -0.9273
   22CHL1    C3 1555   0.625   4.900   5.356 -0.7145 -0.1450 -0.0235
   22CHL1    H3 1556   0.582   4.811   5.306 -1.5427 -0.3207  0.9633
   22CHL1    O3 1557   0.642   4.852   5.488 -0.1414 -0.0954  0.5337
   22CHL1   H3' 1558   0.560   4.864   5.536 -0.0122 -0.9621  1.0119
   22CHL1    C4 1559   0.762   4.932   5.299 -0.2784  0.2994 -0.1370
   22CHL1   H4A 1560   0.807   5.009   5.364  1.1497 -0.6192 -0.0019
   22CHL1   H4B 1561   0.826   4.841   5.303 -1.8170 -0.8099  0.2179
   22CHL1    C5 1562   0.754   4.986   5.159 -0.2490 -0.1295  0.1252
   22CHL1    C6 1563   0.814   4.929   5.051  0.0402 -0.4381 -0.8894
   22CHL1    H6 1564   0.877   4.840   5.059 -0.4776 -0.6514  1.4953
   22CHL1    C7 1565   0.814   4.982   4.912 -0.2817 -0.1613  0.8924
   22CHL1   H7A 1566   0.914   4.980   4.864 -0.2913 -1.6221  0.8906
   22CHL1   H7B 1567   0.761   4.903   4.854  1.5813 -1.6804  1.1810
   22CHL1    C8 1568   0.752   5.124   4.901  0.1452  0.4469  0.0183
   22CHL1    H8 1569   0.831   5.195   4.935 -0.9494  1.8189 -0.2286
   22CHL1   C14 1570   0.718   5.153   4.750 -0.2838  0.1012 -0.0356
   22CHL1   H14 1571   0.634   5.085   4.724 -1.9364  1.8906  0.3156
   22CHL1   C15 1572   0.834   5.144   4.643 -0.6525 -0.1809  0.2849
   22CHL1  H15A 1573   0.926   5.183   4.691  0.3925 -0.0506 -1.7222
   22CHL1  H15B 1574   0.859   5.040   4.612 -2.1710 -0.4854 -0.0073
   22CHL1   C16 1575   0.782   5.238   4.531 -0.1203 -0.5095 -1.0577
   22CHL1  H16A 1576   0.850   5.325   4.526 -1.2790  0.4479 -0.6524
   22CHL1  H16B 1577   0.766   5.193   4.430  0.6162  0.2455 -1.5211
   22CHL1   C17 1578   0.637   5.288   4.580  0.0632 -0.3269 -0.0027
   22CHL1   H17 1579   0.566   5.205   4.559 -0.4014 -0.1118  0.6846
   22CHL1   C13 1580   0.653   5.286   4.737  0.1790 -0.0186  0.0186
   22CHL1   C18 1581   0.754   5.394   4.785 -0.3405  0.3112 -0.8812
   22CHL1  H18A 1582   0.723   5.499   4.768 -0.1714  1.1584  3.2202
   22CHL1  H18B 1583   0.770   5.391   4.895 -2.5664  0.7485 -0.4981
   22CHL1  H18C 1584   0.853   5.387   4.734 -0.8149  1.5135 -2.0087
   22CHL1   C12 1585   0.520   5.290   4.819 -0.6028 -0.2203  0.2060
   22CHL1  H12A 1586   0.482   5.389   4.786  1.6462 -0.0248 -2.1760
   22CHL1  H12B 1587   0.453   5.214   4.774 -0.1133  0.3370 -1.5259
   22CHL1   C11 1588   0.548   5.271   4.967  0.0508  0.5967  0.4476
   22CHL1  H11A 1589   0.605   5.360   5.003 -0.8680  1.5816 -0.4495
   22CHL1  H11B 1590   0.450   5.267   5.019 -0.1004  0.5615  0.1608
   22CHL1    C9 1591   0.630   5.138   4.990  0.5366 -0.2058 -0.3182
   22CHL1    H9 1592   0.564   5.062   4.944 -1.8274  1.6839 -0.2807
   22CHL1   C10 1593   0.656   5.106   5.137 -1.0354  0.3367 -0.5083
   22CHL1   C19 1594   0.729   5.230   5.206 -0.1936  0.5592  0.1793
   22CHL1  H19A 1595   0.833   5.238   5.167  0.7523 -0.1511  2.4010
   22CHL1  H19B 1596   0.677   5.328   5.201  1.5456  1.5131 -0.1065
   22CHL1  H19C 1597   0.727   5.222   5.316  0.7218 -0.6825  0.1199
   22CHL1    C1 1598   0.517   5.090   5.207  0.2617  0.2495 -0.1586
   22CHL1   H1A 1599   0.464   5.186   5.221 -0.2779 -0.1501  0.6076
   22CHL1   H1B 1600   0.457   5.022   5.144  1.8222  1.1868 -2.8122
   22CHL1    C2 1601   0.532   5.028   5.353 -0.1994  0.8066  0.8095
   22CHL1   H2A 1602   0.432   4.991   5.382 -0.8837  0.0824 -2.1242
   22CHL1   H2B 1603   0.569   5.111   5.416 -0.4857  1.2181  0.4445
   22CHL1   C20 1604   0.580   5.422   4.516 -0.2010 -0.1667  0.7967
   22CHL1   H20 1605   0.601   5.490   4.601 -0.4586 -0.5760  1.1996
   22CHL1   C21 1606   0.426   5.395   4.506 -0.1691 -0.3361 -0.4631
   22CHL1  H21A 1607   0.385   5.345   4.596  2.1776 -2.4345 -0.4360
   22CHL1  H21B 1608   0.397   5.344   4.412  1.5829 -0.0930 -1.1789
   22CHL1  H21C 1609   0.366   5.489   4.503  1.2188  1.0448  4.8804
   22CHL1   C22 1610   0.643   5.491   4.388  0.0659  0.0914 -0.3214
   22CHL1  H22A 1611   0.752   5.502   4.406 -0.3188  1.6334  1.3362
   22CHL1  H22B 1612   0.638   5.418   4.304  2.3945 -0.6213  0.0875
   22CHL1   C23 1613   0.579   5.629   4.358 -0.3532  0.1924 -0.5114
   22CHL1  H23A 1614   0.473   5.615   4.327 -0.0669  0.5870 -1.7353
   22CHL1  H23B 1615   0.590   5.670   4.461  0.8711 -0.3940 -0.3901
   22CHL1   C24 1616   0.637   5.711   4.246 -1.1019  0.7479  0.4185
   22CHL1  H24A 1617   0.742   5.745   4.254 -0.4808 -0.8028 -0.7744
   22CHL1  H24B 1618   0.633   5.649   4.155 -0.3119 -1.6180  1.8991
   22CHL1   C25 1619   0.561   5.847   4.233 -0.4388  0.1626  0.3055
   22CHL1   H25 1620   0.540   5.883   4.336 -0.1166  1.3044 -0.0091
   22CHL1   C26 1621   0.641   5.956   4.153  0.5417 -0.2294 -0.2968
   22CHL1  H26A 1622   0.666   5.915   4.053  0.5969  0.7730 -0.7072
   22CHL1  H26B 1623   0.575   6.044   4.139  0.8734  0.1276  0.3270
   22CHL1  H26C 1624   0.730   5.983   4.214 -0.2480  0.0022  0.7791
   22CHL1   C27 1625   0.423   5.816   4.162  0.2485  0.0237  0.1135
   22CHL1  H27A 1626   0.345   5.764   4.221  0.4850 -1.7750 -1.0983
   22CHL1  H27B 1627   0.376   5.916   4.153 -0.6786 -0.1608  2.2376
   22CHL1  H27C 1628   0.435   5.781   4.058 -4.3579  2.1170 -1.3662
   23CHL1    C3 1629   0.044   1.962   5.692 -0.1213 -0.4619  0.0905
   23CHL1    H3 1630  -0.045   1.969   5.626 -0.0256 -1.3239 -0.1433
   23CHL1    O3 1631  -0.007   1.940   5.827  0.0598 -0.2030  0.1318
   23CHL1   H3' 1632   0.080   1.956   5.866  0.5843  2.5602 -1.8618
   23CHL1    C4 1633   0.144   1.849   5.678  0.0228 -0.1313 -0.7520
   23CHL1   H4A 1634   0.224   1.858   5.754  1.1947 -0.7351 -1.8911
   23CHL1   H4B 1635   0.091   1.752   5.680 -0.7073  0.2432 -1.3243
   23CHL1    C5 1636   0.200   1.866   5.540 -0.0183  0.1095 -0.1430
   23CHL1    C6 1637   0.190   1.769   5.452 -0.5023  0.2824 -0.4260
   23CHL1    H6 1638   0.149   1.670   5.476  2.8500 -0.9353  0.8958
   23CHL1    C7 1639   0.235   1.783   5.313 -0.5518  0.2113  0.5000
   23CHL1   H7A 1640   0.277   1.687   5.277 -1.3582  0.0417 -0.0181
   23CHL1   H7B 1641   0.142   1.803   5.256  0.0436 -2.7392 -1.7449
   23CHL1    C8 1642   0.340   1.898   5.296 -0.0525  0.4928 -0.0626
   23CHL1    H8 1643   0.434   1.867   5.347  0.3914 -0.0170 -1.1572
   23CHL1   C14 1644   0.378   1.920   5.144 -0.3569  0.0169 -0.4654
   23CHL1   H14 1645   0.281   1.938   5.093  0.9728  1.1879 -2.7363
   23CHL1   C15 1646   0.440   1.807   5.068  0.2926  0.1960 -0.0995
   23CHL1  H15A 1647   0.507   1.746   5.132  1.1430  1.5461  0.3372
   23CHL1  H15B 1648   0.373   1.726   5.032 -0.0062  0.2260  0.3798
   23CHL1   C16 1649   0.513   1.876   4.959 -0.3202  0.0421 -0.1716
   23CHL1  H16A 1650   0.623   1.864   4.967 -0.5292 -1.1557  1.3971
   23CHL1  H16B 1651   0.486   1.837   4.859 -0.7456  1.8829 -0.8151
   23CHL1   C17 1652   0.487   2.033   4.971  0.0548 -0.5939  0.5609
   23CHL1   H17 1653   0.385   2.033   4.927  1.1311  0.0912 -2.1334
   23CHL1   C13 1654   0.470   2.043   5.127  0.6105 -0.1756 -0.0230
   23CHL1   C18 1655   0.608   2.006   5.195 -0.9276 -1.0201 -0.0913
   23CHL1  H18A 1656   0.690   2.080   5.184 -1.3894 -0.4767  0.0657
   23CHL1  H18B 1657   0.591   1.995   5.304 -0.1885  0.7548  0.2351
   23CHL1  H18C 1658   0.642   1.904   5.167  1.0683 -0.2992 -0.4056
   23CHL1   C12 1659   0.412   2.174   5.188 -0.7759  0.1309 -0.7289
   23CHL1  H12A 1660   0.480   2.261   5.176  0.9993 -1.1609 -0.5366
   23CHL1  H12B 1661   0.316   2.197   5.137 -1.1358 -2.5118 -1.4221
   23CHL1   C11 1662   0.383   2.153   5.337 -1.0276  0.1087  0.0006
   23CHL1  H11A 1663   0.479   2.163   5.391 -1.9405  0.0525  1.6789
   23CHL1  H11B 1664   0.329   2.243   5.374 -2.6388 -1.7802  2.5554
   23CHL1    C9 1665   0.296   2.026   5.365 -0.4734  0.1903 -0.0899
   23CHL1    H9 1666   0.196   2.050   5.324 -0.3679  0.2432 -0.3199
   23CHL1   C10 1667   0.266   2.009   5.514  0.5010  0.5318  0.2746
   23CHL1   C19 1668   0.401   2.014   5.597  0.2434  0.6140 -0.6181
   23CHL1  H19A 1669   0.387   2.007   5.707  0.4113  1.2573 -0.5484
   23CHL1  H19B 1670   0.476   1.942   5.558 -1.5384 -1.6688  0.0186
   23CHL1  H19C 1671   0.447   2.114   5.579 -0.7019  1.4708  1.5019
   23CHL1    C1 1672   0.174   2.127   5.564 -0.3606  0.1459 -0.3276
   23CHL1   H1A 1673   0.236   2.219   5.576  0.5531 -0.4829 -0.1524
   23CHL1   H1B 1674   0.092   2.160   5.497 -0.6503  0.3952  0.1473
   23CHL1    C2 1675   0.115   2.099   5.703  0.5444  0.2588  0.6429
   23CHL1   H2A 1676   0.028   2.166   5.718  1.3113  2.1942 -2.4934
   23CHL1   H2B 1677   0.185   2.099   5.789  0.6857 -0.2193  0.5285
   23CHL1   C20 1678   0.592   2.116   4.892  0.3353  0.6098 -0.1566
   23CHL1   H20 1679   0.690   2.109   4.944 -0.2589  1.8232  1.1785
   23CHL1   C21 1680   0.538   2.259   4.900  0.1355 -0.8968  0.8373
   23CHL1  H21A 1681   0.588   2.328   4.829  0.1549 -0.1133  1.6030
   23CHL1  H21B 1682   0.563   2.299   5.000  0.1124  0.5079  0.2987
   23CHL1  H21C 1683   0.430   2.267   4.879  0.4405 -0.7171 -0.8365
   23CHL1   C22 1684   0.634   2.053   4.750 -0.4123 -0.0628  0.1163
   23CHL1  H22A 1685   0.691   1.959   4.767  1.3093  0.9912  0.4485
   23CHL1  H22B 1686   0.541   2.038   4.691 -1.9929  1.7543  1.9411
   23CHL1   C23 1687   0.727   2.143   4.670  0.4297 -0.8229  0.2275
   23CHL1  H23A 1688   0.682   2.244   4.659 -2.0015 -1.8670 -0.1137
   23CHL1  H23B 1689   0.821   2.168   4.723  0.2811 -1.0740  0.6134
   23CHL1   C24 1690   0.760   2.087   4.537  0.0370  0.1168 -0.2658
   23CHL1  H24A 1691   0.807   1.987   4.551  0.2820  0.2648 -0.0155
   23CHL1  H24B 1692   0.657   2.074   4.499 -0.2226  4.2959 -1.4180
   23CHL1   C25 1693   0.839   2.177   4.439 -0.3742 -0.6502 -0.3670
   23CHL1   H25 1694   0.940   2.185   4.484 -0.2833 -0.1090 -0.6542
   23CHL1   C26 1695   0.854   2.123   4.292  0.5349 -0.3708  0.9987
   23CHL1  H26A 1696   0.928   2.175   4.229  0.6951 -1.1961  0.4975
   23CHL1  H26B 1697   0.870   2.013   4.297  1.3352 -0.2636  0.8843
   23CHL1  H26C 1698   0.758   2.159   4.248  1.4097  2.7953  1.4289
   23CHL1   C27 1699   0.800   2.325   4.427  1.2138  0.5090  0.2732
   23CHL1  H27A 1700   0.703   2.340   4.375  0.4461  0.6164  1.7116
   23CHL1  H27B 1701   0.797   2.377   4.525  0.8781  0.9979  0.0122
   23CHL1  H27C 1702   0.875   2.381   4.366 -1.3072  0.8829 -2.7713
   24CHL1    C3 1703   1.280   6.855   5.651 -0.3692  0.0466  0.9943
   24CHL1    H3 1704   1.193   6.919   5.624 -0.8368 -0.9878 -0.0527
   24CHL1    O3 1705   1.291   6.829   5.787 -0.5580 -0.2670  0.3942
   24CHL1   H3' 1706   1.375   6.782   5.792 -0.9902 -1.3367 -1.4150
   24CHL1    C4 1707   1.276   6.722   5.569 -0.6540 -0.2646  0.1521
   24CHL1   H4A 1708   1.371   6.666   5.582 -0.5355 -0.0128  0.3995
   24CHL1   H4B 1709   1.192   6.657   5.599 -0.2944 -1.0008 -0.4106
   24CHL1    C5 1710   1.273   6.758   5.420 -0.8281  0.0104  0.3606
   24CHL1    C6 1711   1.173   6.711   5.338  0.0286 -0.1506 -0.2189
   24CHL1    H6 1712   1.090   6.658   5.387 -1.3193  3.0142  1.1959
   24CHL1    C7 1713   1.166   6.734   5.190  0.3943 -0.0073 -0.5682
   24CHL1   H7A 1714   1.125   6.649   5.132 -1.2762 -0.2550  0.8650
   24CHL1   H7B 1715   1.095   6.818   5.172  1.4699  1.0321 -0.1167
   24CHL1    C8 1716   1.300   6.783   5.142 -0.0208 -0.0578 -0.4094
   24CHL1    H8 1717   1.377   6.702   5.149  0.8835  0.8140 -0.0911
   24CHL1   C14 1718   1.274   6.825   4.999  0.0851 -0.1354 -0.2469
   24CHL1   H14 1719   1.200   6.907   5.012  1.0115  0.4749  1.5894
   24CHL1   C15 1720   1.213   6.731   4.910  0.5798 -0.2019  0.4979
   24CHL1  H15A 1721   1.248   6.628   4.934  1.9512  0.1307 -0.0361
   24CHL1  H15B 1722   1.102   6.721   4.914  0.6038 -0.5638  0.2759
   24CHL1   C16 1723   1.244   6.782   4.767  0.5157 -0.3196 -0.4713
   24CHL1  H16A 1724   1.288   6.696   4.712 -0.0843  0.2531 -1.8819
   24CHL1  H16B 1725   1.159   6.810   4.701 -0.5596 -0.9221  0.5963
   24CHL1   C17 1726   1.346   6.903   4.780 -0.2379 -0.1819  0.8619
   24CHL1   H17 1727   1.287   6.997   4.775  1.2619  1.0018  3.1597
   24CHL1   C13 1728   1.395   6.883   4.928 -1.0944  0.3746  0.5419
   24CHL1   C18 1729   1.508   6.777   4.928  0.2538  0.1464 -0.5783
   24CHL1  H18A 1730   1.602   6.820   4.887 -0.6615  1.6905 -1.1487
   24CHL1  H18B 1731   1.520   6.743   5.033 -3.0451  0.5687  0.0443
   24CHL1  H18C 1732   1.477   6.694   4.860  0.1764 -0.0145 -0.3454
   24CHL1   C12 1733   1.444   7.009   5.016  0.0830 -0.1486  0.4714
   24CHL1  H12A 1734   1.529   7.066   4.973  1.6735 -0.2118  3.2929
   24CHL1  H12B 1735   1.358   7.079   5.019 -0.6342 -0.5199 -4.1043
   24CHL1   C11 1736   1.477   6.970   5.156 -0.0230 -0.3177  0.1576
   24CHL1  H11A 1737   1.570   6.908   5.154  0.7791  0.8347  0.6580
   24CHL1  H11B 1738   1.510   7.057   5.217  0.8314 -0.3054 -0.2995
   24CHL1    C9 1739   1.363   6.892   5.224  0.0234  0.0740  0.3165
   24CHL1    H9 1740   1.290   6.974   5.242  1.7015  1.1315  2.8243
   24CHL1   C10 1741   1.391   6.838   5.367 -0.9990  0.0630  0.4725
   24CHL1   C19 1742   1.524   6.752   5.377 -0.0921  0.0271 -0.4566
   24CHL1  H19A 1743   1.530   6.696   5.473  0.4719  1.5245  0.4218
   24CHL1  H19B 1744   1.528   6.674   5.299 -0.9927  1.0651 -1.5852
   24CHL1  H19C 1745   1.615   6.815   5.373  0.5258 -0.8466 -0.3515
   24CHL1    C1 1746   1.398   6.967   5.457 -0.6710  0.0576 -0.4952
   24CHL1   H1A 1747   1.493   7.021   5.438 -1.3605  2.1507  1.5875
   24CHL1   H1B 1748   1.315   7.036   5.431 -0.1507  0.6519 -0.6002
   24CHL1    C2 1749   1.410   6.929   5.605  0.5636  0.2484 -0.7014
   24CHL1   H2A 1750   1.401   7.023   5.663 -2.0707 -0.7531  0.6908
   24CHL1   H2B 1751   1.500   6.870   5.636  0.0637 -0.9772 -1.5014
   24CHL1   C20 1752   1.455   6.902   4.668  0.4541 -0.3221 -0.5382
   24CHL1   H20 1753   1.514   6.811   4.690 -2.2437 -3.0874 -3.6473
   24CHL1   C21 1754   1.540   7.031   4.680  0.4722  0.3915  0.7757
   24CHL1  H21A 1755   1.481   7.125   4.669  0.1491  0.3891  2.2520
   24CHL1  H21B 1756   1.629   7.035   4.613  0.2484 -0.1248  0.4458
   24CHL1  H21C 1757   1.582   7.031   4.783  0.4316  1.6809  0.8145
   24CHL1   C22 1758   1.396   6.884   4.522  0.6220 -0.5822  0.1729
   24CHL1  H22A 1759   1.328   6.798   4.508 -3.0180  2.2170 -0.6797
   24CHL1  H22B 1760   1.347   6.982   4.502  0.3895 -0.4122  1.4813
   24CHL1   C23 1761   1.499   6.887   4.406 -0.8355 -0.4877 -0.0428
   24CHL1  H23A 1762   1.507   6.994   4.374 -1.5072 -0.3694  0.1793
   24CHL1  H23B 1763   1.598   6.852   4.442 -0.3706  0.8016 -0.0057
   24CHL1   C24 1764   1.472   6.795   4.286  0.6551 -0.0825  1.0072
   24CHL1  H24A 1765   1.374   6.832   4.249 -0.6984 -2.1062  2.3450
   24CHL1  H24B 1766   1.550   6.797   4.207 -0.6115 -2.0983 -0.3859
   24CHL1   C25 1767   1.454   6.645   4.314  0.1389 -0.4219 -0.7369
   24CHL1   H25 1768   1.383   6.641   4.399 -0.0589  0.2191 -0.8654
   24CHL1   C26 1769   1.388   6.583   4.188 -0.5432 -0.6738 -1.0485
   24CHL1  H26A 1770   1.459   6.607   4.107 -1.1547  2.3540 -0.7786
   24CHL1  H26B 1771   1.376   6.473   4.204 -3.0084 -0.7418 -2.7703
   24CHL1  H26C 1772   1.282   6.614   4.173 -0.9686 -1.6523 -0.2470
   24CHL1   C27 1773   1.585   6.580   4.355 -0.6215 -0.3408  0.1855
   24CHL1  H27A 1774   1.557   6.477   4.385 -1.7145  0.0105  0.4154
   24CHL1  H27B 1775   1.649   6.572   4.265  0.1096 -0.4321  0.7072
   24CHL1  H27C 1776   1.638   6.616   4.446  3.9198 -2.8687 -1.1891
   25CHL1    C3 1777   6.671   1.331   5.732 -0.2607 -1.0661  0.0531
   25CHL1    H3 1778   6.761   1.267   5.739 -0.3689 -1.1516  0.6628
   25CHL1    O3 1779   6.603   1.349   5.857  0.0474  0.0840 -0.0032
   25CHL1   H3' 1780   6.569   1.439   5.852  1.3528  0.5960  0.1623
   25CHL1    C4 1781   6.712   1.475   5.683 -0.4587 -0.4357  0.5222
   25CHL1   H4A 1782   6.617   1.532   5.669 -1.1796 -1.3407  1.5708
   25CHL1   H4B 1783   6.773   1.529   5.758  0.8003 -2.0956  0.7512
   25CHL1    C5 1784   6.775   1.473   5.542  1.3303  0.9924 -0.3959
   25CHL1    C6 1785   6.896   1.533   5.540  0.3064  0.1974  0.5343
   25CHL1    H6 1786   6.939   1.580   5.630  0.1040  0.6666  0.3880
   25CHL1    C7 1787   6.980   1.536   5.413 -0.1508 -1.1903  0.2149
   25CHL1   H7A 1788   7.011   1.640   5.388 -2.6905 -0.0598  1.4538
   25CHL1   H7B 1789   7.070   1.471   5.428  0.1181 -0.7527  0.5157
   25CHL1    C8 1790   6.907   1.475   5.289 -0.9198  0.0748 -0.8596
   25CHL1    H8 1791   6.849   1.560   5.248 -1.8319  0.3513  0.9236
   25CHL1   C14 1792   7.011   1.427   5.179  0.1466  0.3873 -0.0307
   25CHL1   H14 1793   7.055   1.336   5.226  1.4466  1.2122  0.3990
   25CHL1   C15 1794   7.131   1.514   5.147 -0.3062  0.5602 -0.2280
   25CHL1  H15A 1795   7.096   1.619   5.138 -1.0515  0.3982  0.6930
   25CHL1  H15B 1796   7.216   1.506   5.219  0.2153 -2.0815 -1.0207
   25CHL1   C16 1797   7.179   1.457   5.016 -0.2823 -0.8781 -0.2118
   25CHL1  H16A 1798   7.183   1.539   4.941  1.3923 -1.9228 -1.3178
   25CHL1  H16B 1799   7.282   1.414   5.015  0.3623  0.5428  0.9045
   25CHL1   C17 1800   7.080   1.349   4.964  0.7006  0.3021 -0.4034
   25CHL1   H17 1801   7.110   1.244   4.986  1.4189  0.0206 -2.4729
   25CHL1   C13 1802   6.954   1.377   5.044 -0.1786 -0.9296 -0.9525
   25CHL1   C18 1803   6.889   1.502   4.977 -0.1743  0.1511  0.1164
   25CHL1  H18A 1804   6.809   1.476   4.904 -2.3224  1.5689  1.8434
   25CHL1  H18B 1805   6.829   1.560   5.050  0.0581  1.3625 -0.6306
   25CHL1  H18C 1806   6.960   1.580   4.941 -0.7248  1.8323  2.4530
   25CHL1   C12 1807   6.848   1.266   5.073 -0.3774  0.2014 -0.6857
   25CHL1  H12A 1808   6.783   1.242   4.986 -1.3979 -2.8806  0.7965
   25CHL1  H12B 1809   6.907   1.178   5.106  1.4849  1.1197 -1.4647
   25CHL1   C11 1810   6.748   1.303   5.184  0.0192  0.0967  0.4343
   25CHL1  H11A 1811   6.688   1.383   5.136 -0.2396  0.1501  0.8440
   25CHL1  H11B 1812   6.690   1.209   5.196  1.4133 -0.7694  0.6519
   25CHL1    C9 1813   6.812   1.351   5.319  0.1139 -0.2526 -0.2204
   25CHL1    H9 1814   6.879   1.270   5.353  0.5775 -0.4496 -1.5350
   25CHL1   C10 1815   6.709   1.388   5.428  0.5751 -1.3090  0.0629
   25CHL1   C19 1816   6.591   1.475   5.370  0.5652 -0.2909  0.2769
   25CHL1  H19A 1817   6.530   1.407   5.306  0.1196 -0.9882  1.4194
   25CHL1  H19B 1818   6.525   1.522   5.445  1.9498  2.6920 -0.2389
   25CHL1  H19C 1819   6.643   1.557   5.316  1.0709  0.8306  2.3986
   25CHL1    C1 1820   6.658   1.256   5.491  0.2303  0.6515 -0.0081
   25CHL1   H1A 1821   6.580   1.219   5.420 -3.2092  0.5954  3.4209
   25CHL1   H1B 1822   6.740   1.183   5.505 -0.7616 -0.9686 -2.0478
   25CHL1    C2 1823   6.581   1.274   5.623  0.3917  0.7710 -0.2023
   25CHL1   H2A 1824   6.551   1.170   5.649  1.6417  0.2622 -0.7388
   25CHL1   H2B 1825   6.491   1.339   5.612  1.9490  2.9990 -0.4311
   25CHL1   C20 1826   7.079   1.341   4.813 -0.0246  0.0413 -0.0906
   25CHL1   H20 1827   7.018   1.422   4.768 -0.3077 -0.7004 -1.0683
   25CHL1   C21 1828   6.999   1.214   4.780 -0.2204 -0.0278  0.1609
   25CHL1  H21A 1829   6.895   1.241   4.811 -0.2242 -1.4073  1.4265
   25CHL1  H21B 1830   7.025   1.128   4.845 -1.8416  0.4037  1.4718
   25CHL1  H21C 1831   7.005   1.189   4.672 -1.2833  2.4643 -0.5579
   25CHL1   C22 1832   7.223   1.353   4.756  0.1718 -0.5252  0.0484
   25CHL1  H22A 1833   7.265   1.455   4.761 -0.2278 -0.3699  0.2936
   25CHL1  H22B 1834   7.299   1.286   4.800  2.0043  0.6699 -1.1543
   25CHL1   C23 1835   7.213   1.320   4.605 -0.1780  0.9052 -0.1408
   25CHL1  H23A 1836   7.191   1.211   4.605  1.2153  0.5935  0.9530
   25CHL1  H23B 1837   7.134   1.377   4.551 -1.2002 -0.4554 -0.1250
   25CHL1   C24 1838   7.347   1.340   4.530 -0.2016 -0.0076  0.4552
   25CHL1  H24A 1839   7.371   1.448   4.538 -0.4524  0.0242  0.7997
   25CHL1  H24B 1840   7.427   1.283   4.582 -1.1345 -1.2674  0.5553
   25CHL1   C25 1841   7.339   1.302   4.382 -0.5243  0.0128  0.1735
   25CHL1   H25 1842   7.276   1.371   4.323 -0.2706 -0.8970 -1.1984
   25CHL1   C26 1843   7.485   1.303   4.325  0.1688 -0.1772 -0.1417
   25CHL1  H26A 1844   7.483   1.248   4.229 -2.0697 -0.3854 -0.0277
   25CHL1  H26B 1845   7.519   1.408   4.307 -1.9417  0.9340  1.7730
   25CHL1  H26C 1846   7.555   1.249   4.392 -0.0912  1.1228  1.2360
   25CHL1   C27 1847   7.274   1.164   4.358 -0.2989  0.1849 -0.7611
   25CHL1  H27A 1848   7.276   1.137   4.250 -1.3334 -0.2511 -0.6904
   25CHL1  H27B 1849   7.324   1.091   4.426 -3.2349  1.2541  2.8645
   25CHL1  H27C 1850   7.166   1.165   4.384 -0.5385 -1.8033 -1.4514
   26CHL1    C3 1851   1.849   0.061   5.617  0.2891  0.6260  0.0256
   26CHL1    H3 1852   1.935  -0.000   5.584 -0.8770 -0.7108 -0.6281
   26CHL1    O3 1853   1.831   0.045   5.757 -0.5452  0.1309  0.0553
   26CHL1   H3' 1854   1.794   0.129   5.785 -0.8586 -0.3049  0.9915
   26CHL1    C4 1855   1.882   0.208   5.590  0.6486 -0.4103  0.2922
   26CHL1   H4A 1856   1.787   0.257   5.621  1.2088  2.1678 -1.7671
   26CHL1   H4B 1857   1.973   0.231   5.649  0.5622 -2.8962  1.5488
   26CHL1    C5 1858   1.899   0.234   5.440  0.0361 -0.3257 -0.0208
   26CHL1    C6 1859   2.011   0.295   5.391 -0.4685  0.4742 -1.0042
   26CHL1    H6 1860   2.092   0.326   5.458 -1.2504 -0.2593  0.3327
   26CHL1    C7 1861   2.042   0.310   5.247 -0.0751  0.3803 -0.2842
   26CHL1   H7A 1862   2.085   0.412   5.238  0.0736  0.2125 -1.7691
   26CHL1   H7B 1863   2.122   0.236   5.226  0.3483  0.6655  0.3040
   26CHL1    C8 1864   1.920   0.299   5.149  0.5215 -0.5333 -1.0209
   26CHL1    H8 1865   1.855   0.387   5.170  1.1697 -0.4276  0.7518
   26CHL1   C14 1866   1.962   0.298   5.004  0.3457 -0.1695  0.0495
   26CHL1   H14 1867   2.031   0.212   4.994 -1.0050 -1.4100  1.1275
   26CHL1   C15 1868   2.049   0.421   4.953  0.3276 -0.0183  0.2823
   26CHL1  H15A 1869   2.007   0.520   4.981 -0.8164 -1.0314  2.3399
   26CHL1  H15B 1870   2.147   0.408   5.005 -0.2209  1.9687  1.9604
   26CHL1   C16 1871   2.059   0.400   4.809  0.2224  0.5330  0.1775
   26CHL1  H16A 1872   2.029   0.495   4.759 -0.6679  0.6437  0.9049
   26CHL1  H16B 1873   2.156   0.368   4.767  0.0830 -1.8450  1.4981
   26CHL1   C17 1874   1.953   0.287   4.773  0.5288  0.3525 -0.1459
   26CHL1   H17 1875   2.013   0.193   4.768  0.6665  0.4949 -1.6475
   26CHL1   C13 1876   1.856   0.273   4.901 -0.2689 -0.3184 -0.8888
   26CHL1   C18 1877   1.762   0.396   4.902 -0.1366  0.2722 -0.3663
   26CHL1  H18A 1878   1.675   0.387   4.834 -0.3600 -2.0543  0.1351
   26CHL1  H18B 1879   1.730   0.418   5.006  2.8953 -0.0341  0.7460
   26CHL1  H18C 1880   1.820   0.486   4.872  0.1678  0.2685  0.1958
   26CHL1   C12 1881   1.778   0.147   4.937  0.5820  0.3872 -0.1286
   26CHL1  H12A 1882   1.687   0.148   4.873  0.2894 -0.7899  0.2393
   26CHL1  H12B 1883   1.840   0.058   4.910  0.4175  1.0757 -3.1884
   26CHL1   C11 1884   1.734   0.140   5.083 -0.1694 -0.9858  0.1955
   26CHL1  H11A 1885   1.654   0.217   5.090  0.0920 -0.4953 -1.6149
   26CHL1  H11B 1886   1.689   0.042   5.111 -2.0314  0.2560  1.8170
   26CHL1    C9 1887   1.843   0.177   5.191  0.1987  0.2949  0.8303
   26CHL1    H9 1888   1.920   0.098   5.186 -0.3957 -0.2487 -0.2274
   26CHL1   C10 1889   1.787   0.180   5.336  0.0283  0.7924  0.1557
   26CHL1   C19 1890   1.675   0.277   5.350  0.3878 -0.1660  0.3055
   26CHL1  H19A 1891   1.714   0.381   5.346 -1.3363  0.5281  0.7671
   26CHL1  H19B 1892   1.591   0.272   5.277 -1.3817 -0.5147  2.2953
   26CHL1  H19C 1893   1.620   0.263   5.445  0.8538 -4.3249  0.1524
   26CHL1    C1 1894   1.747   0.039   5.388  0.1877  0.0311  0.8542
   26CHL1   H1A 1895   1.649   0.006   5.346 -0.2951  2.2909  0.0988
   26CHL1   H1B 1896   1.819  -0.036   5.349  0.2182  1.0487 -1.1426
   26CHL1    C2 1897   1.726   0.017   5.536  0.4329  0.2279 -0.2131
   26CHL1   H2A 1898   1.704  -0.088   5.562  2.2985 -0.2311 -0.3806
   26CHL1   H2B 1899   1.630   0.058   5.574  1.4978  1.1121  1.6893
   26CHL1   C20 1900   1.884   0.310   4.638 -0.4182  0.5280  0.3986
   26CHL1   H20 1901   1.841   0.413   4.637 -2.4231 -0.2714 -0.1528
   26CHL1   C21 1902   1.775   0.200   4.619 -0.6177  0.1167  0.7982
   26CHL1  H21A 1903   1.831   0.107   4.640 -0.2262  0.0586 -0.4098
   26CHL1  H21B 1904   1.746   0.188   4.512 -0.8480 -0.2672  0.9028
   26CHL1  H21C 1905   1.686   0.212   4.685 -1.1224 -0.1105  0.1734
   26CHL1   C22 1906   1.983   0.306   4.523  0.2071 -0.0606  0.5425
   26CHL1  H22A 1907   2.060   0.374   4.564  1.3041 -0.5217 -0.6956
   26CHL1  H22B 1908   2.018   0.206   4.492 -3.4880 -1.2340 -0.4330
   26CHL1   C23 1909   1.944   0.397   4.399  0.0271  1.5284 -0.1984
   26CHL1  H23A 1910   1.894   0.342   4.318  0.3783  1.1170 -0.1394
   26CHL1  H23B 1911   1.867   0.468   4.436 -0.8727 -0.7209  2.6103
   26CHL1   C24 1912   2.059   0.484   4.347  0.4466  0.0513  0.6733
   26CHL1  H24A 1913   2.085   0.555   4.429  0.9029  0.2959  0.3177
   26CHL1  H24B 1914   2.139   0.408   4.341  0.6201  0.1037  1.9618
   26CHL1   C25 1915   2.049   0.568   4.218  0.2787 -0.9191  0.1052
   26CHL1   H25 1916   1.983   0.656   4.237 -0.1777 -1.2011 -0.1698
   26CHL1   C26 1917   2.190   0.625   4.185 -0.3888  0.4871  0.0928
   26CHL1  H26A 1918   2.197   0.704   4.107  0.4723 -2.2033 -2.7519
   26CHL1  H26B 1919   2.243   0.651   4.279 -2.6154 -1.3487  1.9679
   26CHL1  H26C 1920   2.237   0.534   4.143 -2.3643 -0.9308  0.8384
   26CHL1   C27 1921   1.992   0.492   4.099  0.2629 -0.0816 -0.4728
   26CHL1  H27A 1922   1.894   0.442   4.114  0.6172 -0.4299  0.8224
   26CHL1  H27B 1923   1.982   0.549   4.004  2.4750 -0.5770 -1.0692
   26CHL1  H27C 1924   2.053   0.406   4.065 -0.8786 -0.7238 -0.9584
   27CHL1    C3 1925   0.725   6.612   5.256 -0.0611 -0.1722 -0.1006
   27CHL1    H3 1926   0.767   6.710   5.284 -0.9286 -0.1001  1.0310
   27CHL1    O3 1927   0.676   6.535   5.363 -0.2512  0.2059 -0.2043
   27CHL1   H3' 1928   0.750   6.493   5.406 -1.3816 -1.6988  0.0017
   27CHL1    C4 1929   0.603   6.637   5.162 -0.0976  0.3188  0.3291
   27CHL1   H4A 1930   0.543   6.543   5.156 -1.1849  0.9930  0.4378
   27CHL1   H4B 1931   0.526   6.697   5.215 -0.5996  0.2061 -0.2605
   27CHL1    C5 1932   0.636   6.693   5.017  0.1952  0.4228 -0.6148
   27CHL1    C6 1933   0.581   6.810   4.975 -0.2233  0.0172  0.0397
   27CHL1    H6 1934   0.498   6.863   5.025 -1.1025  0.6778 -2.0145
   27CHL1    C7 1935   0.604   6.871   4.834  0.6899  0.0078 -0.5906
   27CHL1   H7A 1936   0.508   6.896   4.784  0.4210  0.9648  0.3516
   27CHL1   H7B 1937   0.658   6.968   4.842  1.1935 -0.4092  2.6889
   27CHL1    C8 1938   0.669   6.774   4.743 -1.0654  0.4815 -0.2308
   27CHL1    H8 1939   0.593   6.698   4.714  0.6887 -1.7991  0.7564
   27CHL1   C14 1940   0.729   6.840   4.614  0.3631  0.4568  0.4563
   27CHL1   H14 1941   0.813   6.900   4.655  0.4155  0.3674  0.4793
   27CHL1   C15 1942   0.640   6.929   4.532 -0.0092 -0.2243 -0.2775
   27CHL1  H15A 1943   0.541   6.879   4.533  0.0297 -0.3002 -0.2231
   27CHL1  H15B 1944   0.626   7.029   4.581 -1.4203 -0.0448 -0.9831
   27CHL1   C16 1945   0.711   6.952   4.400 -0.3873  0.7088  0.1876
   27CHL1  H16A 1946   0.643   6.943   4.312 -0.9755  2.3972  0.4383
   27CHL1  H16B 1947   0.769   7.046   4.390 -1.1808  1.2004  0.1348
   27CHL1   C17 1948   0.832   6.856   4.398  0.2487  0.3184 -0.7111
   27CHL1   H17 1949   0.916   6.914   4.443  0.3985 -0.7742  0.4811
   27CHL1   C13 1950   0.792   6.747   4.508 -0.7782  0.3850  0.4813
   27CHL1   C18 1951   0.685   6.655   4.439 -0.2638  0.3566 -0.4350
   27CHL1  H18A 1952   0.740   6.582   4.376  1.6335  0.6674  0.7529
   27CHL1  H18B 1953   0.629   6.598   4.517  1.2399 -0.2806  0.2248
   27CHL1  H18C 1954   0.611   6.716   4.384 -1.1621 -0.1052  0.2366
   27CHL1   C12 1955   0.905   6.666   4.584  0.0074  0.4389  0.3144
   27CHL1  H12A 1956   0.948   6.595   4.510  1.6224  0.9784  0.7004
   27CHL1  H12B 1957   0.976   6.744   4.619 -0.3475  0.2312  1.5661
   27CHL1   C11 1958   0.844   6.588   4.703 -0.0181  0.6126  0.0281
   27CHL1  H11A 1959   0.774   6.507   4.675 -1.4692  0.6550  3.2104
   27CHL1  H11B 1960   0.920   6.531   4.761 -2.0217 -1.2515  0.9382
   27CHL1    C9 1961   0.775   6.682   4.807  0.1884 -0.0080 -0.4614
   27CHL1    H9 1962   0.859   6.752   4.826  0.3868 -0.3657 -0.0099
   27CHL1   C10 1963   0.732   6.609   4.935  0.1795  0.4897 -0.6660
   27CHL1   C19 1964   0.657   6.472   4.904 -0.0832 -0.5483 -0.2804
   27CHL1  H19A 1965   0.622   6.424   4.998 -0.2648  1.2306  0.5912
   27CHL1  H19B 1966   0.571   6.501   4.841  1.7328 -1.4944 -3.4252
   27CHL1  H19C 1967   0.724   6.404   4.847 -0.0519 -1.3138  0.6361
   27CHL1    C1 1968   0.849   6.577   5.023  0.4884 -0.0082  0.1057
   27CHL1   H1A 1969   0.916   6.507   4.970 -3.0772 -2.1693 -1.9527
   27CHL1   H1B 1970   0.917   6.666   5.026 -1.2621  1.4000 -0.1866
   27CHL1    C2 1971   0.821   6.523   5.164  0.1999 -0.1753  0.1334
   27CHL1   H2A 1972   0.913   6.512   5.225 -0.6557  0.9608  1.7046
   27CHL1   H2B 1973   0.793   6.416   5.155 -0.7945 -0.1444  2.2276
   27CHL1   C20 1974   0.879   6.801   4.265  0.2088 -0.2918 -0.2776
   27CHL1   H20 1975   0.805   6.727   4.227  2.0327 -3.0857  1.1935
   27CHL1   C21 1976   1.013   6.727   4.285  0.1047 -0.0683  0.0801
   27CHL1  H21A 1977   1.060   6.726   4.184  1.5053  0.9462  0.6835
   27CHL1  H21B 1978   1.001   6.619   4.306  1.7386 -0.3695 -0.3501
   27CHL1  H21C 1979   1.085   6.780   4.351  0.8659  0.9361 -1.4686
   27CHL1   C22 1980   0.905   6.916   4.164  0.0706  0.0022 -0.2496
   27CHL1  H22A 1981   0.926   6.861   4.069 -1.4372 -1.9036  0.4440
   27CHL1  H22B 1982   0.812   6.963   4.126  0.4164  0.6539 -0.2957
   27CHL1   C23 1983   1.000   7.025   4.213  0.7465  0.0171 -0.0997
   27CHL1  H23A 1984   0.955   7.075   4.302  0.4955  0.2712 -0.3685
   27CHL1  H23B 1985   1.093   6.972   4.243 -0.4138 -2.8587 -1.2929
   27CHL1   C24 1986   1.033   7.131   4.107 -0.4945  0.6915 -0.6524
   27CHL1  H24A 1987   1.107   7.185   4.170  0.7506 -0.6571 -0.9000
   27CHL1  H24B 1988   1.080   7.087   4.017 -0.4306 -0.1452 -0.2265
   27CHL1   C25 1989   0.917   7.225   4.057  0.3398 -0.6669  0.1890
   27CHL1   H25 1990   0.842   7.166   4.001 -1.7084  1.9683 -0.0303
   27CHL1   C26 1991   0.836   7.300   4.162  0.0300 -0.4669 -0.1573
   27CHL1  H26A 1992   0.831   7.238   4.255 -0.0442 -2.7449 -1.6074
   27CHL1  H26B 1993   0.882   7.399   4.180 -2.2634  0.8520 -1.1302
   27CHL1  H26C 1994   0.730   7.325   4.142 -0.1869 -0.2265  1.1841
   27CHL1   C27 1995   0.975   7.319   3.948  0.7362  0.1398 -0.0509
   27CHL1  H27A 1996   1.015   7.267   3.858  0.2686  0.2664 -0.3353
   27CHL1  H27B 1997   0.887   7.378   3.915  0.7197  2.1816  3.1635
   27CHL1  H27C 1998   1.052   7.386   3.992  0.1566  1.8474 -1.5455
   28CHL1    C3 1999   0.952   0.625   5.668  0.4435 -0.1119 -0.5904
   28CHL1    H3 2000   0.884   0.553   5.618  2.3648 -0.7803 -2.3907
   28CHL1    O3 2001   0.999   0.573   5.798  1.0482  0.5980 -0.2056
   28CHL1   H3' 2002   1.061   0.643   5.822  1.6480 -0.0983  0.3140
   28CHL1    C4 2003   1.072   0.636   5.573 -0.3547 -0.3488 -0.3141
   28CHL1   H4A 2004   1.148   0.701   5.620  0.0733 -1.1850  0.1750
   28CHL1   H4B 2005   1.113   0.533   5.566 -2.8700 -1.5467  1.1604
   28CHL1    C5 2006   1.039   0.686   5.436 -0.5542  0.7485 -0.5706
   28CHL1    C6 2007   1.070   0.620   5.325 -0.5650  0.9218 -0.0814
   28CHL1    H6 2008   1.132   0.530   5.327 -0.2174  1.1579 -0.1859
   28CHL1    C7 2009   1.032   0.674   5.190 -0.1555  0.3184  0.8636
   28CHL1   H7A 2010   1.119   0.658   5.123 -0.8239  2.5934 -0.6459
   28CHL1   H7B 2011   0.948   0.612   5.151  0.4245 -1.3896  2.1881
   28CHL1    C8 2012   0.982   0.821   5.184 -0.6963 -0.0888  0.2954
   28CHL1    H8 2013   1.069   0.888   5.199 -0.7493  0.6423 -2.1666
   28CHL1   C14 2014   0.913   0.854   5.052 -0.9009  0.2248 -0.3039
   28CHL1   H14 2015   0.824   0.787   5.050 -1.1937  0.5923  0.4264
   28CHL1   C15 2016   0.992   0.823   4.921 -0.0507  0.6404 -0.5383
   28CHL1  H15A 2017   1.100   0.849   4.927 -0.4671  2.2666  0.6771
   28CHL1  H15B 2018   0.973   0.718   4.890 -0.9310  0.4577  0.5637
   28CHL1   C16 2019   0.926   0.922   4.821  0.1489  0.1149  0.4817
   28CHL1  H16A 2020   1.003   0.998   4.795 -0.6323  0.7996  0.1133
   28CHL1  H16B 2021   0.894   0.870   4.728  0.3597  1.7959 -0.5669
   28CHL1   C17 2022   0.807   0.994   4.891  0.0375  0.0675  0.0910
   28CHL1   H17 2023   0.723   0.922   4.874 -2.0547  2.7805 -2.1373
   28CHL1   C13 2024   0.848   0.994   5.038 -0.7998 -0.6156  0.3736
   28CHL1   C18 2025   0.961   1.096   5.049  0.1431  0.3795  0.4763
   28CHL1  H18A 2026   1.020   1.110   4.956 -1.2433 -0.9309 -0.6674
   28CHL1  H18B 2027   0.906   1.192   5.046 -0.2470  0.1335 -1.6895
   28CHL1  H18C 2028   1.020   1.092   5.144  1.8043  0.8021 -0.4880
   28CHL1   C12 2029   0.745   1.007   5.149 -0.1539  0.0524 -0.5474
   28CHL1  H12A 2030   0.702   1.109   5.158  0.0085  0.2750 -2.1410
   28CHL1  H12B 2031   0.672   0.926   5.129  0.0157 -1.0683  2.6473
   28CHL1   C11 2032   0.807   0.978   5.290  0.0753  0.3246  0.8700
   28CHL1  H11A 2033   0.869   1.068   5.314 -1.1606  1.3307  0.4042
   28CHL1  H11B 2034   0.718   0.978   5.356 -2.3062  1.7499 -2.1023
   28CHL1    C9 2035   0.880   0.840   5.299 -0.2124  0.4025 -0.0326
   28CHL1    H9 2036   0.800   0.763   5.293  0.2758 -0.0705 -0.7650
   28CHL1   C10 2037   0.948   0.815   5.438 -0.3876 -0.4666 -0.2150
   28CHL1   C19 2038   1.034   0.938   5.472 -0.2511  0.0025 -0.3891
   28CHL1  H19A 2039   1.103   0.958   5.387  1.1214  1.0329  0.9118
   28CHL1  H19B 2040   0.972   1.030   5.482  0.2282  0.4643 -1.5219
   28CHL1  H19C 2041   1.095   0.942   5.565 -0.8087  2.2147 -0.0436
   28CHL1    C1 2042   0.836   0.808   5.549  0.0443 -0.2430  0.3598
   28CHL1   H1A 2043   0.777   0.902   5.555 -0.6211 -0.6904  0.9501
   28CHL1   H1B 2044   0.760   0.734   5.519 -1.6249  2.1792 -1.7793
   28CHL1    C2 2045   0.888   0.763   5.688  0.6637  0.0387  0.0262
   28CHL1   H2A 2046   0.808   0.762   5.766  1.2586  1.4876  0.6924
   28CHL1   H2B 2047   0.965   0.836   5.720  0.2771  0.1081  0.8136
   28CHL1   C20 2048   0.751   1.120   4.818  0.4183  0.1640 -0.9304
   28CHL1   H20 2049   0.827   1.200   4.836 -0.4709  0.8388 -0.0163
   28CHL1   C21 2050   0.615   1.167   4.886 -0.8345  0.2060 -0.5175
   28CHL1  H21A 2051   0.565   1.252   4.834  0.7365  0.9013 -0.9502
   28CHL1  H21B 2052   0.635   1.187   4.993 -2.2790 -1.8917  0.2143
   28CHL1  H21C 2053   0.546   1.080   4.878 -2.2799  1.1765  0.8764
   28CHL1   C22 2054   0.736   1.126   4.666  0.0445 -0.8369  0.4220
   28CHL1  H22A 2055   0.841   1.111   4.633  0.9090 -0.2940  2.7462
   28CHL1  H22B 2056   0.669   1.045   4.630 -2.5111  0.8051  1.2591
   28CHL1   C23 2057   0.694   1.258   4.593  0.2810  0.0570 -0.1949
   28CHL1  H23A 2058   0.726   1.238   4.488  0.2756 -0.2717 -0.1347
   28CHL1  H23B 2059   0.585   1.274   4.599  0.1762  0.1716 -1.8772
   28CHL1   C24 2060   0.766   1.382   4.641  0.6475 -0.7105  0.3238
   28CHL1  H24A 2061   0.777   1.398   4.751 -0.4967  0.4413  0.2983
   28CHL1  H24B 2062   0.870   1.364   4.606  0.4529 -2.1110  0.4346
   28CHL1   C25 2063   0.709   1.514   4.575 -0.2578 -0.4587 -0.2834
   28CHL1   H25 2064   0.705   1.503   4.464  0.5328 -0.5124 -0.3104
   28CHL1   C26 2065   0.571   1.538   4.636  0.4987 -0.2142  0.4265
   28CHL1  H26A 2066   0.549   1.558   4.743 -0.0251 -0.8425  0.4476
   28CHL1  H26B 2067   0.523   1.627   4.588  1.1437  0.7585  1.5480
   28CHL1  H26C 2068   0.500   1.456   4.610  0.0079  0.2305  0.3275
   28CHL1   C27 2069   0.800   1.637   4.599 -0.7572  0.0024 -0.2358
   28CHL1  H27A 2070   0.894   1.631   4.541 -0.6734 -0.0336 -0.0982
   28CHL1  H27B 2071   0.739   1.729   4.585 -1.9710 -0.5015  1.3549
   28CHL1  H27C 2072   0.824   1.642   4.708  0.5907  1.9575 -0.5803
   29CHL1    C3 2073   3.778   2.968   2.177 -0.7601  0.6055 -0.3197
   29CHL1    H3 2074   3.697   3.043   2.177  0.5973  2.1361  0.3463
   29CHL1    O3 2075   3.803   2.932   2.046  0.7496 -0.1446 -0.0964
   29CHL1   H3' 2076   3.860   2.855   2.042  0.5777 -0.3131  0.6043
   29CHL1    C4 2077   3.911   3.011   2.238 -0.2091  0.1658 -0.8378
   29CHL1   H4A 2078   3.992   2.945   2.201  1.6188  0.0525  2.9219
   29CHL1   H4B 2079   3.940   3.109   2.194  0.7604 -0.1570 -0.9309
   29CHL1    C5 2080   3.933   3.004   2.385 -0.0422  0.0614  0.2040
   29CHL1    C6 2081   3.978   3.108   2.452 -0.4850  0.3324  0.1262
   29CHL1    H6 2082   4.011   3.196   2.395 -0.8010  0.6948  0.4918
   29CHL1    C7 2083   3.990   3.121   2.600 -0.8324  0.1499 -0.1407
   29CHL1   H7A 2084   4.084   3.177   2.621 -0.4643  0.0955 -1.5782
   29CHL1   H7B 2085   3.901   3.180   2.631 -2.0160 -1.7291  0.2194
   29CHL1    C8 2086   3.989   2.986   2.664  0.1613 -0.0197  0.1300
   29CHL1    H8 2087   4.081   2.929   2.638 -0.0022  0.0711 -0.6714
   29CHL1   C14 2088   3.952   2.993   2.811 -0.1687 -0.0471 -0.4763
   29CHL1   H14 2089   3.849   3.036   2.822 -0.1560 -0.4596  1.7391
   29CHL1   C15 2090   4.056   3.079   2.884 -0.2121  0.7408  0.4391
   29CHL1  H15A 2091   4.158   3.052   2.851  0.6575  0.2278  3.2915
   29CHL1  H15B 2092   4.038   3.188   2.871  1.9374  1.2590  1.5068
   29CHL1   C16 2093   4.052   3.035   3.026 -0.2080 -0.3782 -0.3368
   29CHL1  H16A 2094   4.149   2.984   3.040 -0.1777 -0.4538 -0.8052
   29CHL1  H16B 2095   4.038   3.115   3.102  0.9519 -0.1906 -0.3118
   29CHL1   C17 2096   3.951   2.911   3.042 -0.3269 -0.0739  0.1745
   29CHL1   H17 2097   3.853   2.962   3.053 -0.3059 -0.1553  0.8239
   29CHL1   C13 2098   3.955   2.861   2.895 -0.0439  0.1818 -0.3665
   29CHL1   C18 2099   4.077   2.774   2.872 -0.5167 -0.3211  0.1656
   29CHL1  H18A 2100   4.169   2.817   2.916  0.0763  0.1883 -1.4922
   29CHL1  H18B 2101   4.059   2.673   2.915  1.7062 -0.7828  0.1527
   29CHL1  H18C 2102   4.098   2.760   2.764  1.3537 -0.5804  0.5208
   29CHL1   C12 2103   3.835   2.781   2.842  0.8597  0.3729  0.4582
   29CHL1  H12A 2104   3.838   2.681   2.890  1.4200 -0.5525 -1.3956
   29CHL1  H12B 2105   3.753   2.852   2.866 -0.5565 -1.0751  0.1006
   29CHL1   C11 2106   3.840   2.764   2.692 -0.2193 -0.1844  0.2880
   29CHL1  H11A 2107   3.921   2.693   2.663 -0.7598 -0.4509 -0.5975
   29CHL1  H11B 2108   3.735   2.737   2.666 -0.3157  1.4285 -1.1061
   29CHL1    C9 2109   3.877   2.892   2.610 -0.6561 -0.3066 -0.3660
   29CHL1    H9 2110   3.789   2.959   2.621 -0.4502  0.0216 -0.6833
   29CHL1   C10 2111   3.882   2.878   2.452 -0.1435  0.3940  0.0636
   29CHL1   C19 2112   3.972   2.759   2.411  0.0454  0.4635  0.8572
   29CHL1  H19A 2113   4.075   2.769   2.452  1.0347  0.9878 -1.5709
   29CHL1  H19B 2114   3.935   2.664   2.456  0.4268 -0.3392 -0.4660
   29CHL1  H19C 2115   3.992   2.740   2.303  1.1149 -1.7826  1.3836
   29CHL1    C1 2116   3.741   2.843   2.397  0.4829  0.2276  0.6985
   29CHL1   H1A 2117   3.717   2.740   2.431 -0.5867  0.4203  0.5467
   29CHL1   H1B 2118   3.669   2.920   2.432 -0.9393 -1.2569  1.1416
   29CHL1    C2 2119   3.737   2.836   2.243  0.3136  0.1513 -0.5764
   29CHL1   H2A 2120   3.635   2.805   2.213  0.6738  0.8440 -2.6224
   29CHL1   H2B 2121   3.800   2.751   2.208 -0.7057 -0.6722 -0.4736
   29CHL1   C20 2122   3.976   2.816   3.163  0.0785 -0.6592  0.3979
   29CHL1   H20 2123   4.073   2.765   3.146  0.8928  0.7811  0.5407
   29CHL1   C21 2124   3.867   2.716   3.179 -0.2802 -0.2272 -0.1621
   29CHL1  H21A 2125   3.769   2.764   3.198  0.1357  0.0808  1.2524
   29CHL1  H21B 2126   3.886   2.646   3.263 -0.6672  0.4649  0.5024
   29CHL1  H21C 2127   3.849   2.646   3.094  0.6730 -0.8651  0.1410
   29CHL1   C22 2128   4.002   2.901   3.290  0.0839 -0.1364  0.7691
   29CHL1  H22A 2129   4.079   2.977   3.269 -0.7805 -0.0009 -2.3749
   29CHL1  H22B 2130   3.905   2.944   3.324 -1.7366 -2.2678 -1.3171
   29CHL1   C23 2131   4.055   2.823   3.409 -0.1231 -0.3097  0.6400
   29CHL1  H23A 2132   3.986   2.739   3.428  1.8398 -1.6655  2.1254
   29CHL1  H23B 2133   4.148   2.780   3.367  0.7788  3.6916 -2.1223
   29CHL1   C24 2134   4.098   2.905   3.529 -0.3947 -0.5009 -0.4028
   29CHL1  H24A 2135   4.195   2.946   3.493 -2.0655  1.2231 -3.3399
   29CHL1  H24B 2136   4.020   2.984   3.532  1.4994  1.4391  1.7708
   29CHL1   C25 2137   4.118   2.833   3.662  0.6662 -0.6726  1.4818
   29CHL1   H25 2138   4.018   2.792   3.687 -0.8246  1.1112 -1.0941
   29CHL1   C26 2139   4.226   2.721   3.667  0.2216 -0.3510  0.5343
   29CHL1  H26A 2140   4.211   2.647   3.585 -0.9139 -0.8019  1.1137
   29CHL1  H26B 2141   4.325   2.768   3.652 -0.2209  0.4601  0.0806
   29CHL1  H26C 2142   4.213   2.674   3.768  1.5600 -0.5596  0.6205
   29CHL1   C27 2143   4.154   2.930   3.771  0.3181 -0.5316 -0.1926
   29CHL1  H27A 2144   4.075   3.003   3.798  1.5369  0.9417 -0.4977
   29CHL1  H27B 2145   4.170   2.858   3.855 -0.4464 -0.0468  0.3837
   29CHL1  H27C 2146   4.243   2.988   3.739  0.7432  0.7060  2.8969
   30CHL1    C3 2147   3.950   4.724   2.619 -0.7121  0.7581  0.6509
   30CHL1    H3 2148   3.980   4.617   2.614 -1.0020  0.7232 -0.5101
   30CHL1    O3 2149   3.886   4.763   2.499  0.4294  0.0700 -0.0312
   30CHL1   H3' 2150   3.855   4.851   2.518 -0.1580 -0.4426  1.5579
   30CHL1    C4 2151   3.858   4.749   2.739  1.2922 -0.2065 -0.8802
   30CHL1   H4A 2152   3.815   4.851   2.750 -0.9768 -1.2464  0.7277
   30CHL1   H4B 2153   3.766   4.689   2.726  1.2481 -0.0242 -1.4207
   30CHL1    C5 2154   3.931   4.708   2.869  0.2752 -0.3236  0.2004
   30CHL1    C6 2155   3.887   4.613   2.941 -0.0367 -0.1577 -0.2074
   30CHL1    H6 2156   3.794   4.558   2.919 -1.5814  2.8606 -1.9512
   30CHL1    C7 2157   3.956   4.563   3.061 -0.7066  0.2575  0.1816
   30CHL1   H7A 2158   3.883   4.533   3.140 -0.6871  0.5488  0.3117
   30CHL1   H7B 2159   4.016   4.473   3.035 -0.8125 -0.1810  1.3771
   30CHL1    C8 2160   4.048   4.670   3.121  0.1872  0.2069  0.1357
   30CHL1    H8 2161   3.985   4.752   3.160  0.7004  0.3019  0.7694
   30CHL1   C14 2162   4.130   4.602   3.236  0.1250  0.5562 -0.1133
   30CHL1   H14 2163   4.177   4.513   3.188 -1.3025  0.2093 -0.9422
   30CHL1   C15 2164   4.053   4.540   3.356 -0.6120 -0.2223  0.0134
   30CHL1  H15A 2165   3.976   4.617   3.375  0.7975  1.1996  0.1640
   30CHL1  H15B 2166   3.997   4.446   3.334 -0.1106  0.0894 -3.0477
   30CHL1   C16 2167   4.152   4.539   3.469  0.1462 -1.0513  0.1599
   30CHL1  H16A 2168   4.113   4.612   3.543  2.2437  1.0141 -0.6643
   30CHL1  H16B 2169   4.175   4.451   3.532 -2.1222  0.1493  2.9179
   30CHL1   C17 2170   4.277   4.602   3.412 -0.5194 -0.0442 -0.4212
   30CHL1   H17 2171   4.337   4.521   3.364  0.5841  0.4395  0.1041
   30CHL1   C13 2172   4.235   4.691   3.296  0.3767  0.2361 -0.6032
   30CHL1   C18 2173   4.175   4.824   3.349  0.3566 -0.7968  0.0795
   30CHL1  H18A 2174   4.244   4.904   3.385 -0.7406 -0.2128  0.9699
   30CHL1  H18B 2175   4.117   4.874   3.268  0.3420 -0.1238  0.4978
   30CHL1  H18C 2176   4.095   4.809   3.425  0.4144 -1.8375 -0.0504
   30CHL1   C12 2177   4.339   4.737   3.191  0.1204 -0.1404  0.1897
   30CHL1  H12A 2178   4.404   4.817   3.233  1.0631 -0.7737 -0.0189
   30CHL1  H12B 2179   4.404   4.652   3.161  1.0402  0.0781  1.4802
   30CHL1   C11 2180   4.263   4.802   3.068 -0.8862 -0.8106  0.3868
   30CHL1  H11A 2181   4.240   4.908   3.088  0.5307 -0.5954  1.0479
   30CHL1  H11B 2182   4.340   4.806   2.989  0.6461  0.7161  1.8648
   30CHL1    C9 2183   4.144   4.715   3.015 -0.2988  0.3819 -0.8153
   30CHL1    H9 2184   4.186   4.617   2.982 -1.2163 -0.0755 -0.6507
   30CHL1   C10 2185   4.066   4.779   2.896  0.1870 -0.6318 -0.2584
   30CHL1   C19 2186   4.024   4.925   2.929 -0.8921 -0.1248 -0.0565
   30CHL1  H19A 2187   4.115   4.987   2.920 -2.8364  3.0107  0.6119
   30CHL1  H19B 2188   3.957   4.977   2.857  1.0850  1.5619 -0.7443
   30CHL1  H19C 2189   3.979   4.941   3.030 -0.1887  1.4475  0.0340
   30CHL1    C1 2190   4.154   4.771   2.766  0.0513  0.4849  0.0444
   30CHL1   H1A 2191   4.242   4.838   2.770  1.5350 -1.1634 -2.2054
   30CHL1   H1B 2192   4.201   4.670   2.766  0.2616  0.5148 -2.7124
   30CHL1    C2 2193   4.076   4.805   2.634 -0.2688  0.2189 -0.6756
   30CHL1   H2A 2194   4.135   4.786   2.542 -0.2510  1.2239 -0.8824
   30CHL1   H2B 2195   4.045   4.911   2.642 -0.9344 -0.1141  2.5347
   30CHL1   C20 2196   4.363   4.667   3.522 -0.1525 -0.2349  0.0252
   30CHL1   H20 2197   4.334   4.770   3.552  3.7821  0.9077  0.4587
   30CHL1   C21 2198   4.504   4.692   3.458 -0.3148 -0.1134  0.4989
   30CHL1  H21A 2199   4.525   4.602   3.397  0.6210  1.3989 -1.5569
   30CHL1  H21B 2200   4.584   4.701   3.535 -0.3911 -1.8156  0.8026
   30CHL1  H21C 2201   4.518   4.782   3.394  0.5647 -0.6978 -0.1562
   30CHL1   C22 2202   4.358   4.594   3.659 -0.2896  0.4347  0.1667
   30CHL1  H22A 2203   4.255   4.578   3.697 -0.5178  0.6677 -0.3414
   30CHL1  H22B 2204   4.404   4.494   3.646  0.3630  0.8959 -1.2875
   30CHL1   C23 2205   4.431   4.675   3.768  0.5443  0.0595 -0.3203
   30CHL1  H23A 2206   4.536   4.692   3.735  0.9285 -2.6648 -0.7561
   30CHL1  H23B 2207   4.388   4.777   3.773 -0.2393 -0.3100  1.1665
   30CHL1   C24 2208   4.433   4.600   3.903  0.0091  0.1880  0.0932
   30CHL1  H24A 2209   4.333   4.603   3.951  0.3826  1.0317  0.8551
   30CHL1  H24B 2210   4.461   4.492   3.909 -0.2065  0.1180 -0.1455
   30CHL1   C25 2211   4.516   4.676   4.017  0.1667  0.3669 -0.3118
   30CHL1   H25 2212   4.481   4.782   4.014 -4.4452 -0.9562 -1.6449
   30CHL1   C26 2213   4.479   4.617   4.152 -0.5103 -0.3569  0.3756
   30CHL1  H26A 2214   4.515   4.513   4.140 -1.9168 -0.6667 -1.6234
   30CHL1  H26B 2215   4.529   4.668   4.238 -0.7489  0.2671  0.1503
   30CHL1  H26C 2216   4.369   4.626   4.169 -0.1722  2.7433  1.6759
   30CHL1   C27 2217   4.663   4.682   3.999 -0.0695 -0.6418  0.4221
   30CHL1  H27A 2218   4.719   4.586   3.992  1.5479  0.3228 -0.3589
   30CHL1  H27B 2219   4.690   4.744   3.911  1.8298 -1.8188  0.1270
   30CHL1  H27C 2220   4.720   4.732   4.080  1.1415 -1.5157  0.1387
   31CHL1    C3 2221   3.270   4.519   2.462  0.1985 -0.7290 -0.4093
   31CHL1    H3 2222   3.315   4.611   2.505  0.2519 -0.7368 -0.4482
   31CHL1    O3 2223   3.253   4.549   2.326 -0.0687 -0.3044  0.2541
   31CHL1   H3' 2224   3.329   4.601   2.300  1.5911 -1.5515  2.3013
   31CHL1    C4 2225   3.359   4.396   2.482 -0.4781 -0.8537  0.0737
   31CHL1   H4A 2226   3.315   4.306   2.433  0.1363 -0.0269 -2.1368
   31CHL1   H4B 2227   3.452   4.412   2.424 -1.1109  0.4969 -0.6224
   31CHL1    C5 2228   3.393   4.365   2.627  0.2163 -0.1023  0.0111
   31CHL1    C6 2229   3.517   4.364   2.676 -0.5102 -0.1268  0.2120
   31CHL1    H6 2230   3.600   4.393   2.610 -1.4089  2.1003 -0.0024
   31CHL1    C7 2231   3.549   4.347   2.823 -0.2101 -0.3197 -0.4630
   31CHL1   H7A 2232   3.643   4.290   2.839 -0.2384 -0.4055 -0.5972
   31CHL1   H7B 2233   3.556   4.446   2.872 -0.9628  0.3330 -1.6105
   31CHL1    C8 2234   3.431   4.265   2.895  0.1215 -0.0379 -0.1355
   31CHL1    H8 2235   3.429   4.165   2.846  0.1590  0.2233 -0.6746
   31CHL1   C14 2236   3.455   4.277   3.047  0.6092 -0.0027 -0.2627
   31CHL1   H14 2237   3.455   4.386   3.065  0.5642 -0.3941  2.5716
   31CHL1   C15 2238   3.593   4.233   3.102 -0.6968 -0.0012  0.0038
   31CHL1  H15A 2239   3.625   4.131   3.072 -1.6951 -1.7184  4.1426
   31CHL1  H15B 2240   3.674   4.307   3.082 -2.7907  2.2796 -0.6244
   31CHL1   C16 2241   3.566   4.233   3.252  0.5206  0.1686 -0.1199
   31CHL1  H16A 2242   3.618   4.141   3.284 -0.4522 -0.6113 -0.7297
   31CHL1  H16B 2243   3.620   4.319   3.297  1.9110  0.0222 -1.4150
   31CHL1   C17 2244   3.411   4.236   3.276 -0.6105  0.3960 -0.9239
   31CHL1   H17 2245   3.395   4.342   3.306  2.2816  0.2051  1.7849
   31CHL1   C13 2246   3.351   4.211   3.136  0.0656  0.2730 -0.2457
   31CHL1   C18 2247   3.345   4.052   3.106  0.0015 -0.1963 -0.2971
   31CHL1  H18A 2248   3.268   3.996   3.164 -1.0217 -0.3378 -1.7419
   31CHL1  H18B 2249   3.314   4.027   3.002 -0.4872  0.6319 -0.3565
   31CHL1  H18C 2250   3.439   3.994   3.115  0.1087  0.0670  0.3269
   31CHL1   C12 2251   3.217   4.284   3.104  0.0710 -0.0732  0.5629
   31CHL1  H12A 2252   3.124   4.258   3.159 -0.1451 -0.4393  0.0311
   31CHL1  H12B 2253   3.220   4.395   3.117  0.3025  0.1752 -1.2863
   31CHL1   C11 2254   3.178   4.282   2.957 -0.2142 -0.5948 -1.1780
   31CHL1  H11A 2255   3.164   4.174   2.934 -0.6876 -1.0030  0.8092
   31CHL1  H11B 2256   3.088   4.346   2.952 -0.5449 -0.7756  1.1360
   31CHL1    C9 2257   3.298   4.340   2.870  0.6023 -0.0117 -0.1594
   31CHL1    H9 2258   3.314   4.446   2.900 -1.5907  0.7578 -1.4863
   31CHL1   C10 2259   3.267   4.350   2.716 -0.3446 -0.3337 -0.3582
   31CHL1   C19 2260   3.191   4.216   2.675 -0.0529 -0.2734 -0.0459
   31CHL1  H19A 2261   3.101   4.205   2.739  1.7807 -0.4303  2.6616
   31CHL1  H19B 2262   3.170   4.210   2.566  0.4601  0.0880 -0.1677
   31CHL1  H19C 2263   3.247   4.123   2.699  1.6223  0.4543 -0.9449
   31CHL1    C1 2264   3.173   4.462   2.687 -0.0209 -0.2688  0.4065
   31CHL1   H1A 2265   3.081   4.457   2.750  0.3742  2.5992  1.3484
   31CHL1   H1B 2266   3.210   4.557   2.729  1.2686 -0.6517  0.1751
   31CHL1    C2 2267   3.137   4.495   2.535 -0.5265  0.7958  0.9912
   31CHL1   H2A 2268   3.074   4.585   2.517  0.7924  1.4337 -0.6686
   31CHL1   H2B 2269   3.071   4.420   2.487  0.4793  0.7209 -0.3348
   31CHL1   C20 2270   3.369   4.148   3.392 -0.3548  0.0658 -0.6774
   31CHL1   H20 2271   3.372   4.037   3.382 -2.6961  0.0183 -1.3097
   31CHL1   C21 2272   3.218   4.165   3.418  0.1220  0.2835 -0.6682
   31CHL1  H21A 2273   3.164   4.152   3.321  1.0708  1.9131 -1.4409
   31CHL1  H21B 2274   3.200   4.261   3.470 -2.6450  0.0643 -1.0314
   31CHL1  H21C 2275   3.185   4.094   3.497  0.8169 -0.4194 -0.9889
   31CHL1   C22 2276   3.434   4.192   3.532  0.1489  0.3435  0.0261
   31CHL1  H22A 2277   3.541   4.206   3.508  0.1425  1.5604  0.6064
   31CHL1  H22B 2278   3.396   4.296   3.539 -2.8572 -0.6709  0.1993
   31CHL1   C23 2279   3.417   4.100   3.660  0.7077 -0.1497  0.3923
   31CHL1  H23A 2280   3.314   4.060   3.668  0.0702  1.6527  1.8814
   31CHL1  H23B 2281   3.487   4.017   3.640 -0.2668 -0.9122  0.0750
   31CHL1   C24 2282   3.449   4.177   3.793  0.0897 -0.9366  0.7099
   31CHL1  H24A 2283   3.554   4.213   3.785 -0.6277  0.9334 -2.0606
   31CHL1  H24B 2284   3.390   4.271   3.802  2.8755  0.9228  0.9288
   31CHL1   C25 2285   3.412   4.104   3.927 -0.4269  0.4588 -0.0108
   31CHL1   H25 2286   3.463   4.005   3.933 -3.3452 -1.0924  2.6037
   31CHL1   C26 2287   3.461   4.167   4.053 -0.5092  0.2171  0.6512
   31CHL1  H26A 2288   3.565   4.199   4.078  0.0182 -1.7070  1.1026
   31CHL1  H26B 2289   3.406   4.262   4.068  2.4852  1.9314  1.7704
   31CHL1  H26C 2290   3.439   4.105   4.143 -0.0775  1.0063  1.3117
   31CHL1   C27 2291   3.261   4.073   3.951 -0.0058 -0.1964 -0.1290
   31CHL1  H27A 2292   3.246   4.042   4.057 -1.6810  0.8547 -0.0207
   31CHL1  H27B 2293   3.197   4.162   3.931  0.6097 -0.0628 -1.6174
   31CHL1  H27C 2294   3.226   3.997   3.878 -1.0196  0.6144 -0.5105
   32CHL1    C3 2295   3.309   2.429   2.344  0.0720 -0.2706  0.3618
   32CHL1    H3 2296   3.246   2.337   2.344  0.5247 -0.6013 -0.7474
   32CHL1    O3 2297   3.298   2.470   2.212  0.1993 -0.3036  0.3022
   32CHL1   H3' 2298   3.303   2.391   2.158 -0.9705 -1.8765  2.3185
   32CHL1    C4 2299   3.264   2.542   2.443 -0.1051  0.1457  0.0263
   32CHL1   H4A 2300   3.323   2.633   2.422 -0.5017  0.5937  0.7974
   32CHL1   H4B 2301   3.163   2.577   2.412 -0.2358 -1.3210 -1.3606
   32CHL1    C5 2302   3.278   2.505   2.586  0.5554  0.1067 -0.0612
   32CHL1    C6 2303   3.168   2.517   2.669 -0.5457 -0.7503  0.1263
   32CHL1    H6 2304   3.076   2.551   2.617 -0.1152  1.4285  0.6870
   32CHL1    C7 2305   3.168   2.485   2.816 -0.0987  0.2879  0.3930
   32CHL1   H7A 2306   3.124   2.562   2.881  0.2426  0.2095  0.7196
   32CHL1   H7B 2307   3.119   2.387   2.835  3.0426 -1.8688 -1.4506
   32CHL1    C8 2308   3.318   2.471   2.870  0.6014  0.0563 -0.2458
   32CHL1    H8 2309   3.362   2.572   2.884 -1.5670  1.2775 -1.7007
   32CHL1   C14 2310   3.314   2.387   2.996  0.5788 -0.3999 -0.0768
   32CHL1   H14 2311   3.270   2.289   2.971  0.6212 -1.2645  2.8403
   32CHL1   C15 2312   3.222   2.447   3.106 -0.3603  0.4265 -0.8145
   32CHL1  H15A 2313   3.247   2.549   3.142  1.2657 -0.4827  0.8350
   32CHL1  H15B 2314   3.115   2.442   3.075 -0.6394 -0.4615  0.2381
   32CHL1   C16 2315   3.272   2.365   3.231  0.3573  0.1193 -0.1264
   32CHL1  H16A 2316   3.302   2.429   3.317  3.1435 -1.7652  0.4082
   32CHL1  H16B 2317   3.190   2.295   3.258  1.1294 -0.9869 -0.5858
   32CHL1   C17 2318   3.404   2.290   3.194  0.0332 -0.3112  0.2880
   32CHL1   H17 2319   3.380   2.186   3.161  2.4065 -0.1055 -2.5588
   32CHL1   C13 2320   3.452   2.360   3.065  0.1265 -0.2024 -0.3818
   32CHL1   C18 2321   3.524   2.493   3.107  0.2457 -0.0540  0.4908
   32CHL1  H18A 2322   3.551   2.547   3.014  0.2919  1.9290  1.6027
   32CHL1  H18B 2323   3.449   2.555   3.161 -1.3865 -0.3400 -1.3354
   32CHL1  H18C 2324   3.613   2.485   3.174  0.7306 -0.0632 -0.1460
   32CHL1   C12 2325   3.525   2.279   2.959  0.4025  0.4138 -0.5710
   32CHL1  H12A 2326   3.625   2.256   3.002 -0.0733 -0.3345  0.1588
   32CHL1  H12B 2327   3.474   2.180   2.948  3.0318 -1.4064  2.1998
   32CHL1   C11 2328   3.541   2.360   2.831 -0.7682 -0.2987  0.3292
   32CHL1  H11A 2329   3.604   2.451   2.839 -0.6299 -0.2508 -0.9837
   32CHL1  H11B 2330   3.596   2.290   2.764  0.7923  0.8323  0.3888
   32CHL1    C9 2331   3.405   2.395   2.769 -0.3383 -0.2781  0.0703
   32CHL1    H9 2332   3.360   2.293   2.764 -0.2103 -0.2909 -1.6080
   32CHL1   C10 2333   3.420   2.456   2.626 -0.1064 -0.2396  0.0316
   32CHL1   C19 2334   3.495   2.584   2.637  0.0756  0.0829 -0.7618
   32CHL1  H19A 2335   3.604   2.573   2.657 -0.3177 -2.1035  0.4665
   32CHL1  H19B 2336   3.490   2.642   2.542 -1.1596  1.9793  0.4028
   32CHL1  H19C 2337   3.457   2.647   2.720 -0.2594 -2.5009  1.1732
   32CHL1    C1 2338   3.487   2.359   2.524  0.6875  0.1642 -0.0610
   32CHL1   H1A 2339   3.593   2.344   2.551  0.4026 -0.3073  0.8498
   32CHL1   H1B 2340   3.430   2.266   2.546 -0.0186  0.2517 -1.4211
   32CHL1    C2 2341   3.463   2.405   2.376  0.1823 -0.0412  0.6934
   32CHL1   H2A 2342   3.514   2.339   2.304  1.8892  0.6841  1.1808
   32CHL1   H2B 2343   3.509   2.506   2.368 -0.0803 -0.0663 -1.9611
   32CHL1   C20 2344   3.508   2.278   3.310  0.0850  0.3971 -0.0201
   32CHL1   H20 2345   3.530   2.380   3.347 -0.9778  1.5342 -2.2594
   32CHL1   C21 2346   3.633   2.200   3.274 -0.1285 -0.7545 -0.3417
   32CHL1  H21A 2347   3.702   2.206   3.361 -0.5928 -0.2823 -0.0014
   32CHL1  H21B 2348   3.683   2.258   3.193 -1.4678  2.7955  1.1886
   32CHL1  H21C 2349   3.611   2.094   3.247 -0.8613 -1.2062  1.8831
   32CHL1   C22 2350   3.443   2.199   3.423  0.0054 -0.0464 -0.2288
   32CHL1  H22A 2351   3.338   2.230   3.441 -0.3254 -0.1115 -1.8524
   32CHL1  H22B 2352   3.457   2.090   3.408  0.8936 -0.1199  1.0485
   32CHL1   C23 2353   3.517   2.220   3.557  0.6071  0.1752 -0.1376
   32CHL1  H23A 2354   3.603   2.150   3.568 -0.1384 -0.4030  2.7986
   32CHL1  H23B 2355   3.564   2.319   3.542 -1.5275  0.9840 -1.9413
   32CHL1   C24 2356   3.423   2.214   3.673  0.2823 -0.5111 -0.1407
   32CHL1  H24A 2357   3.347   2.295   3.670  1.6593  0.8218 -0.1702
   32CHL1  H24B 2358   3.378   2.112   3.671 -2.1773  0.5008 -1.7106
   32CHL1   C25 2359   3.496   2.235   3.811 -0.3741 -0.1950 -0.3682
   32CHL1   H25 2360   3.565   2.322   3.801 -0.4443 -0.2996 -1.9085
   32CHL1   C26 2361   3.386   2.269   3.920  0.1820  0.0480  0.2479
   32CHL1  H26A 2362   3.336   2.367   3.908  0.0994 -0.2205 -2.2991
   32CHL1  H26B 2363   3.318   2.182   3.929  1.2782 -0.6806  2.2672
   32CHL1  H26C 2364   3.438   2.273   4.018 -1.0459  2.4392  0.8605
   32CHL1   C27 2365   3.572   2.111   3.850 -0.0254 -0.8817 -0.8153
   32CHL1  H27A 2366   3.617   2.128   3.950 -0.2184 -2.7856 -0.3798
   32CHL1  H27B 2367   3.503   2.026   3.867  0.8679 -1.1956  1.6434
   32CHL1  H27C 2368   3.651   2.080   3.778  0.4284 -0.9737 -0.2875
   33CHL1    C3 2369   2.484   3.172   2.471 -0.3793  0.5662  0.1824
   33CHL1    H3 2370   2.384   3.216   2.455 -0.7469  0.9885  3.1397
   33CHL1    O3 2371   2.575   3.200   2.361 -0.1256  0.2133 -0.2403
   33CHL1   H3' 2372   2.600   3.292   2.365  0.1091  0.3677 -2.9368
   33CHL1    C4 2373   2.530   3.243   2.600 -0.4765  0.1024 -0.7659
   33CHL1   H4A 2374   2.640   3.230   2.611 -0.3960 -0.5608 -2.2458
   33CHL1   H4B 2375   2.519   3.352   2.583 -1.7162 -0.0665 -1.1577
   33CHL1    C5 2376   2.461   3.202   2.730 -0.5821 -0.5012  0.5223
   33CHL1    C6 2377   2.407   3.303   2.799  0.1570  0.9261 -0.4018
   33CHL1    H6 2378   2.419   3.400   2.749  0.5405  0.3157 -1.5078
   33CHL1    C7 2379   2.341   3.284   2.936  0.3401  0.2862 -0.2047
   33CHL1   H7A 2380   2.385   3.345   3.017 -0.6339 -0.6689  1.0763
   33CHL1   H7B 2381   2.233   3.310   2.937  0.1517 -0.5180  0.1696
   33CHL1    C8 2382   2.352   3.135   2.986 -0.9567  0.0292 -0.2077
   33CHL1    H8 2383   2.449   3.125   3.039 -1.7362  0.3023  1.3288
   33CHL1   C14 2384   2.239   3.100   3.084  0.6885 -0.9351  0.3381
   33CHL1   H14 2385   2.144   3.096   3.027 -0.7120 -1.6885  2.5871
   33CHL1   C15 2386   2.217   3.200   3.202 -0.4273 -0.3891 -0.7503
   33CHL1  H15A 2387   2.313   3.229   3.249 -0.9604 -1.5704  1.1933
   33CHL1  H15B 2388   2.171   3.296   3.170  1.8153  0.4303 -1.7636
   33CHL1   C16 2389   2.145   3.121   3.303 -0.2755  0.2063  0.0460
   33CHL1  H16A 2390   2.204   3.106   3.396 -1.6134 -1.8229  0.6139
   33CHL1  H16B 2391   2.047   3.166   3.329  0.0718  1.7331 -1.1250
   33CHL1   C17 2392   2.129   2.975   3.246 -0.6585  0.0305  0.1418
   33CHL1   H17 2393   2.032   2.971   3.193 -1.2508 -0.4911  1.2325
   33CHL1   C13 2394   2.244   2.959   3.144 -0.3320 -0.4577 -0.4141
   33CHL1   C18 2395   2.376   2.937   3.225  0.1432  0.6917 -0.6781
   33CHL1  H18A 2396   2.388   2.840   3.278 -1.9198 -1.4857 -3.8426
   33CHL1  H18B 2397   2.470   2.940   3.165  1.5121 -2.8264  0.9839
   33CHL1  H18C 2398   2.385   3.019   3.299  0.2000  3.0505 -3.1363
   33CHL1   C12 2399   2.233   2.856   3.032 -0.5239 -0.2663  0.5324
   33CHL1  H12A 2400   2.257   2.755   3.071 -1.1675 -0.3197  0.8004
   33CHL1  H12B 2401   2.132   2.855   2.986 -0.4075  0.5610  0.2379
   33CHL1   C11 2402   2.337   2.883   2.915 -0.5885 -0.1920  0.1133
   33CHL1  H11A 2403   2.431   2.851   2.964 -0.9579 -0.0349  0.9445
   33CHL1  H11B 2404   2.326   2.812   2.829 -0.8564  0.7138 -0.6191
   33CHL1    C9 2405   2.344   3.032   2.871 -0.2316 -0.1936 -0.0566
   33CHL1    H9 2406   2.241   3.052   2.834  0.9259  0.8685 -3.0183
   33CHL1   C10 2407   2.446   3.054   2.759  0.5102  0.2040 -0.0016
   33CHL1   C19 2408   2.582   2.990   2.800  0.2405 -0.2016  0.6162
   33CHL1  H19A 2409   2.574   2.880   2.815 -1.4388  0.0315  1.6042
   33CHL1  H19B 2410   2.657   3.016   2.722  0.1775 -0.9024  0.3069
   33CHL1  H19C 2411   2.620   3.028   2.897 -1.5878  1.1138  0.8586
   33CHL1    C1 2412   2.394   2.983   2.625  0.1905 -0.1464  0.6260
   33CHL1   H1A 2413   2.385   2.873   2.627 -2.5460  0.0153  1.5009
   33CHL1   H1B 2414   2.285   3.004   2.613  0.2160 -0.5496 -0.3534
   33CHL1    C2 2415   2.473   3.021   2.501 -0.2431 -0.2010  1.0780
   33CHL1   H2A 2416   2.442   2.973   2.405  0.0784  0.2876  0.7302
   33CHL1   H2B 2417   2.579   2.996   2.520 -0.4201 -2.4306 -0.4545
   33CHL1   C20 2418   2.124   2.860   3.354 -0.0441 -0.7549 -0.6226
   33CHL1   H20 2419   2.224   2.849   3.401 -1.7971  1.0335  4.0791
   33CHL1   C21 2420   2.082   2.728   3.292 -0.4971 -0.2849  0.3720
   33CHL1  H21A 2421   2.052   2.667   3.380 -0.5971 -0.7447  0.0238
   33CHL1  H21B 2422   2.172   2.692   3.238 -1.6514  0.3206 -2.0856
   33CHL1  H21C 2423   1.998   2.740   3.220  0.5651 -0.2655 -0.8937
   33CHL1   C22 2424   2.024   2.889   3.470 -0.9212 -0.3036 -0.0302
   33CHL1  H22A 2425   2.019   2.997   3.496 -2.3302 -0.5082  0.6146
   33CHL1  H22B 2426   1.923   2.859   3.436 -0.7405  1.7807 -2.7575
   33CHL1   C23 2427   2.065   2.809   3.599 -0.1251 -0.2856 -0.1898
   33CHL1  H23A 2428   2.047   2.701   3.583  0.1911 -0.4057  0.2682
   33CHL1  H23B 2429   2.175   2.823   3.602 -0.1732  0.9983 -2.2203
   33CHL1   C24 2430   1.988   2.842   3.726  0.2725 -0.1425  0.2806
   33CHL1  H24A 2431   1.986   2.952   3.739  3.4426  0.6913 -4.1442
   33CHL1  H24B 2432   1.883   2.823   3.696 -0.0937  1.4370  0.4617
   33CHL1   C25 2433   2.044   2.778   3.856 -0.4645 -0.3290 -0.0127
   33CHL1   H25 2434   2.050   2.668   3.838  0.9299 -0.5059  1.3051
   33CHL1   C26 2435   2.180   2.837   3.881 -0.1633 -0.3400  0.0299
   33CHL1  H26A 2436   2.256   2.791   3.815  2.8617  3.2239  0.7121
   33CHL1  H26B 2437   2.181   2.947   3.864  3.4363 -0.2528  0.1995
   33CHL1  H26C 2438   2.209   2.817   3.986  0.6463  0.8422  0.0483
   33CHL1   C27 2439   1.947   2.808   3.977 -0.1879  0.0527  0.4091
   33CHL1  H27A 2440   1.924   2.916   3.987 -1.5512 -0.2548  0.9082
   33CHL1  H27B 2441   1.844   2.767   3.967  0.2853 -0.5855 -2.9693
   33CHL1  H27C 2442   1.996   2.764   4.067 -2.7734 -0.6648  1.5639
   34CHL1    C3 2443   4.231   5.213   2.283  0.0621  0.3935  0.0942
   34CHL1    H3 2444   4.122   5.209   2.303  0.1187 -1.8877  0.1938
   34CHL1    O3 2445   4.236   5.202   2.139  0.4616 -0.0758 -0.0643
   34CHL1   H3' 2446   4.330   5.189   2.127  1.1367  3.6410 -0.1123
   34CHL1    C4 2447   4.308   5.339   2.327 -0.3840 -0.2607  0.5948
   34CHL1   H4A 2448   4.412   5.334   2.289 -0.9241 -0.5472 -0.9014
   34CHL1   H4B 2449   4.268   5.426   2.270  1.4467  0.0782 -0.2355
   34CHL1    C5 2450   4.295   5.361   2.478  0.1246 -0.6064  0.1628
   34CHL1    C6 2451   4.243   5.475   2.533  0.2157 -0.9197 -0.5834
   34CHL1    H6 2452   4.203   5.553   2.467  0.7661 -2.1839 -2.4763
   34CHL1    C7 2453   4.223   5.496   2.681  0.2166  0.6436 -0.1313
   34CHL1   H7A 2454   4.248   5.601   2.709  0.8565  0.5827 -0.4649
   34CHL1   H7B 2455   4.118   5.476   2.712  0.0636 -0.6007 -1.3599
   34CHL1    C8 2456   4.324   5.392   2.754 -0.5442 -0.4850 -0.4366
   34CHL1    H8 2457   4.427   5.418   2.725 -0.1335 -0.9568  0.5373
   34CHL1   C14 2458   4.298   5.397   2.901  0.2293 -0.0852 -0.3686
   34CHL1   H14 2459   4.195   5.364   2.928  0.0809  0.2766 -0.4878
   34CHL1   C15 2460   4.307   5.531   2.967  0.0535 -0.7896 -0.3037
   34CHL1  H15A 2461   4.391   5.581   2.916 -0.8152  0.0986 -0.9083
   34CHL1  H15B 2462   4.221   5.599   2.949  0.8470  0.1422 -0.6419
   34CHL1   C16 2463   4.328   5.507   3.114 -0.4679 -0.5994 -0.2219
   34CHL1  H16A 2464   4.408   5.579   3.145 -0.6964  0.2394 -1.5038
   34CHL1  H16B 2465   4.250   5.553   3.178 -0.8247  0.2569 -1.2386
   34CHL1   C17 2466   4.351   5.359   3.130  0.6427 -0.0353  0.4388
   34CHL1   H17 2467   4.248   5.318   3.141  0.4572  0.0056 -0.9754
   34CHL1   C13 2468   4.391   5.303   2.988  0.1268  0.3088  0.4159
   34CHL1   C18 2469   4.539   5.331   2.963 -0.3215 -0.7287  0.9044
   34CHL1  H18A 2470   4.595   5.256   3.022 -0.2394 -1.0495  0.4305
   34CHL1  H18B 2471   4.589   5.324   2.864  0.7382 -1.2014  1.4567
   34CHL1  H18C 2472   4.573   5.426   3.009 -0.2891  0.3022 -1.1282
   34CHL1   C12 2473   4.349   5.165   2.946  0.9716  0.4257  0.4080
   34CHL1  H12A 2474   4.404   5.096   3.013  0.9762  1.0364  1.0380
   34CHL1  H12B 2475   4.241   5.151   2.970  0.7706 -0.1199 -0.7365
   34CHL1   C11 2476   4.355   5.142   2.795 -0.1070  0.4470 -0.7796
   34CHL1  H11A 2477   4.462   5.118   2.775  0.5997 -0.0399  2.9105
   34CHL1  H11B 2478   4.293   5.051   2.776 -1.2441  1.4203 -1.8626
   34CHL1    C9 2479   4.295   5.253   2.700  0.5070  0.5925  0.4250
   34CHL1    H9 2480   4.185   5.239   2.713  0.5098 -1.0481 -0.8265
   34CHL1   C10 2481   4.335   5.236   2.553 -0.0065  0.3273 -0.4197
   34CHL1   C19 2482   4.486   5.225   2.539 -0.8287 -0.1614 -0.5087
   34CHL1  H19A 2483   4.544   5.299   2.599 -0.7170 -1.6907  1.3845
   34CHL1  H19B 2484   4.534   5.128   2.565  2.3849  1.2045 -0.8008
   34CHL1  H19C 2485   4.499   5.232   2.429 -2.4909  1.9946 -0.6220
   34CHL1    C1 2486   4.271   5.104   2.501 -0.2550  0.3027 -0.1091
   34CHL1   H1A 2487   4.318   5.018   2.554  2.0137  1.4089 -0.1918
   34CHL1   H1B 2488   4.161   5.101   2.512 -0.1787  1.9731  1.6756
   34CHL1    C2 2489   4.283   5.089   2.351 -0.4970  0.0034  0.7134
   34CHL1   H2A 2490   4.223   5.006   2.308 -0.3158 -0.2038  0.8605
   34CHL1   H2B 2491   4.387   5.073   2.316 -0.4572  1.8574 -0.1520
   34CHL1   C20 2492   4.429   5.318   3.249 -0.2931  0.1850 -0.7242
   34CHL1   H20 2493   4.536   5.301   3.222 -0.1876 -2.4311  1.0192
   34CHL1   C21 2494   4.381   5.179   3.298 -0.2724  0.6941 -0.6187
   34CHL1  H21A 2495   4.449   5.134   3.374 -0.3309  0.1512 -0.8826
   34CHL1  H21B 2496   4.375   5.108   3.213 -0.9220 -0.8014  0.6183
   34CHL1  H21C 2497   4.291   5.175   3.363  1.0685  0.5664  1.3547
   34CHL1   C22 2498   4.429   5.417   3.370  0.8600  0.5895  0.5325
   34CHL1  H22A 2499   4.474   5.508   3.323  0.5092  0.6692  0.3459
   34CHL1  H22B 2500   4.329   5.424   3.417  1.6542  0.6836  2.2871
   34CHL1   C23 2501   4.522   5.376   3.488  0.3268  0.5531  0.3483
   34CHL1  H23A 2502   4.477   5.287   3.535  0.1248 -0.7149 -2.0699
   34CHL1  H23B 2503   4.626   5.348   3.461  0.6482  0.0324  1.9949
   34CHL1   C24 2504   4.530   5.488   3.594 -0.6310 -0.0737 -0.1786
   34CHL1  H24A 2505   4.606   5.556   3.551  1.9988 -2.1756  0.8611
   34CHL1  H24B 2506   4.434   5.544   3.596 -1.1874 -0.9879  2.0527
   34CHL1   C25 2507   4.574   5.443   3.732  0.6405  0.7737 -0.2082
   34CHL1   H25 2508   4.493   5.374   3.764  0.6884  0.2923 -1.0886
   34CHL1   C26 2509   4.698   5.364   3.732  0.1170 -1.3070  0.3551
   34CHL1  H26A 2510   4.710   5.331   3.837 -0.8447  0.8091  1.1906
   34CHL1  H26B 2511   4.693   5.280   3.659  1.3070  0.4863 -1.9203
   34CHL1  H26C 2512   4.781   5.433   3.706 -1.9673  0.3395 -2.6188
   34CHL1   C27 2513   4.574   5.556   3.837 -0.3597  0.5880  0.4562
   34CHL1  H27A 2514   4.583   5.517   3.941 -3.5759 -0.5941  0.4053
   34CHL1  H27B 2515   4.664   5.620   3.822  0.6027 -0.4491  1.5882
   34CHL1  H27C 2516   4.486   5.623   3.825 -2.6034 -1.9658  1.4673
   35CHL1    C3 2517   2.200   4.727   2.479  0.0467  0.8803  0.0556
   35CHL1    H3 2518   2.156   4.829   2.489  0.3916  1.3178 -2.2627
   35CHL1    O3 2519   2.205   4.673   2.345  0.2792 -0.1203 -0.2742
   35CHL1   H3' 2520   2.201   4.579   2.360  0.3276 -0.0512  0.1908
   35CHL1    C4 2521   2.346   4.724   2.528 -0.3492 -0.2584  0.2676
   35CHL1   H4A 2522   2.399   4.632   2.498 -1.0140 -0.9519  1.1522
   35CHL1   H4B 2523   2.397   4.807   2.474  0.8494 -0.9911  0.2477
   35CHL1    C5 2524   2.355   4.730   2.677  0.0861 -0.3961 -0.1217
   35CHL1    C6 2525   2.437   4.825   2.732 -0.0906 -0.1209  0.1112
   35CHL1    H6 2526   2.488   4.904   2.675 -0.5041  1.8114  2.3156
   35CHL1    C7 2527   2.457   4.844   2.879  0.6232  0.6467 -0.2715
   35CHL1   H7A 2528   2.560   4.869   2.910  0.7205 -0.7184  0.5813
   35CHL1   H7B 2529   2.390   4.927   2.912 -0.0947 -0.2785  0.6544
   35CHL1    C8 2530   2.415   4.715   2.964 -0.3045  0.1378 -0.5221
   35CHL1    H8 2531   2.489   4.633   2.952  0.0780  0.5677 -1.1045
   35CHL1   C14 2532   2.406   4.733   3.117  0.9320  0.3479 -0.4161
   35CHL1   H14 2533   2.341   4.822   3.135  0.3991 -0.1096 -0.0559
   35CHL1   C15 2534   2.538   4.774   3.174 -0.5972  0.0420  0.0622
   35CHL1  H15A 2535   2.608   4.698   3.131 -1.2993 -1.2532  1.1430
   35CHL1  H15B 2536   2.579   4.874   3.147 -0.8245 -0.7405 -3.7485
   35CHL1   C16 2537   2.528   4.743   3.322  0.3533 -0.2908  0.0914
   35CHL1  H16A 2538   2.607   4.674   3.357  1.0619  0.7892  0.7057
   35CHL1  H16B 2539   2.539   4.837   3.381  2.1060  0.5194 -1.4179
   35CHL1   C17 2540   2.388   4.672   3.336 -0.9484 -0.4722 -0.3229
   35CHL1   H17 2541   2.325   4.760   3.359  0.4334  0.3258  0.6118
   35CHL1   C13 2542   2.351   4.614   3.199 -0.1290 -0.6727 -0.4105
   35CHL1   C18 2543   2.432   4.483   3.178 -0.4506 -0.1963 -0.9791
   35CHL1  H18A 2544   2.389   4.404   3.243 -1.3231 -0.8239 -2.2625
   35CHL1  H18B 2545   2.429   4.446   3.073 -0.4870 -0.8063 -0.7658
   35CHL1  H18C 2546   2.535   4.514   3.207 -0.9440  2.2277 -1.5826
   35CHL1   C12 2547   2.208   4.614   3.153  0.3740  1.0008  0.2738
   35CHL1  H12A 2548   2.142   4.544   3.209  0.1624 -0.5526 -1.7952
   35CHL1  H12B 2549   2.167   4.715   3.174 -1.7727  0.2643 -0.1748
   35CHL1   C11 2550   2.203   4.574   3.005 -0.5156 -0.0233 -0.0299
   35CHL1  H11A 2551   2.249   4.473   3.003  0.5866  0.4320  1.3383
   35CHL1  H11B 2552   2.095   4.550   2.989 -0.9728  1.0483  1.3007
   35CHL1    C9 2553   2.276   4.676   2.914  0.1949  0.9570  0.1631
   35CHL1    H9 2554   2.212   4.767   2.920  1.1683  1.5468  3.1685
   35CHL1   C10 2555   2.275   4.632   2.767 -0.0694  0.4771  0.3212
   35CHL1   C19 2556   2.340   4.495   2.753  0.4632 -0.2490 -0.2051
   35CHL1  H19A 2557   2.434   4.485   2.812  0.0841 -1.7093  0.1955
   35CHL1  H19B 2558   2.277   4.428   2.814 -1.2106  1.8251  0.4715
   35CHL1  H19C 2559   2.343   4.466   2.646  0.0581 -0.2475 -0.2166
   35CHL1    C1 2560   2.131   4.646   2.703  0.1072  0.1724 -0.5346
   35CHL1   H1A 2561   2.057   4.580   2.752  0.3241 -0.5526 -1.1518
   35CHL1   H1B 2562   2.113   4.752   2.728  1.8594 -0.0946  2.3043
   35CHL1    C2 2563   2.118   4.626   2.558  0.0344 -0.3306 -0.1055
   35CHL1   H2A 2564   2.013   4.614   2.523  0.4429 -0.0237 -1.5088
   35CHL1   H2B 2565   2.165   4.528   2.540  0.8572  0.0765 -0.2090
   35CHL1   C20 2566   2.382   4.577   3.460  0.4019  0.0799  1.4672
   35CHL1   H20 2567   2.449   4.491   3.441  0.5507  0.4144  0.4661
   35CHL1   C21 2568   2.243   4.514   3.469 -0.3186 -0.1371  0.1943
   35CHL1  H21A 2569   2.165   4.590   3.492  0.1926 -0.1000  1.8596
   35CHL1  H21B 2570   2.242   4.455   3.563  0.4186  0.3018  0.4844
   35CHL1  H21C 2571   2.225   4.443   3.385  1.0004 -0.2752  0.0037
   35CHL1   C22 2572   2.428   4.633   3.593  0.4818 -0.4258  0.4498
   35CHL1  H22A 2573   2.532   4.670   3.580 -0.8415  3.3053 -0.6176
   35CHL1  H22B 2574   2.369   4.726   3.608 -1.0724 -1.2450 -0.3148
   35CHL1   C23 2575   2.446   4.546   3.717 -0.4633 -0.3558 -0.5364
   35CHL1  H23A 2576   2.352   4.502   3.756  0.7532 -4.4373 -1.6944
   35CHL1  H23B 2577   2.506   4.453   3.704  0.2939 -0.5790  3.3086
   35CHL1   C24 2578   2.513   4.634   3.829 -0.3870  0.3085 -0.4480
   35CHL1  H24A 2579   2.620   4.646   3.804 -0.0581 -1.3729  0.0284
   35CHL1  H24B 2580   2.467   4.735   3.835  0.5802  0.7113  0.3770
   35CHL1   C25 2581   2.504   4.569   3.973 -0.6206 -0.0074  0.1360
   35CHL1   H25 2582   2.522   4.459   3.967 -1.8218 -0.1797 -0.6365
   35CHL1   C26 2583   2.600   4.631   4.080  0.0245 -0.2236  0.5699
   35CHL1  H26A 2584   2.577   4.588   4.180 -0.9698 -1.2580 -0.0796
   35CHL1  H26B 2585   2.704   4.615   4.045 -1.3309  1.5113 -5.3050
   35CHL1  H26C 2586   2.587   4.741   4.087  0.1612  0.0694 -2.5015
   35CHL1   C27 2587   2.365   4.595   4.030  0.3542  0.7049  0.0657
   35CHL1  H27A 2588   2.284   4.541   3.976  0.8803  0.0819 -0.1000
   35CHL1  H27B 2589   2.346   4.567   4.136 -0.3399  0.0615 -0.2176
   35CHL1  H27C 2590   2.330   4.700   4.018 -0.5366  0.4351  0.2467
   36CHL1    C3 2591   2.896   1.889   2.039 -0.3922 -0.7870 -0.1309
   36CHL1    H3 2592   2.836   1.971   2.083  1.2777 -0.1491  1.0592
   36CHL1    O3 2593   2.891   1.888   1.895  0.1908  0.4370 -0.8873
   36CHL1   H3' 2594   2.965   1.834   1.866  3.1900  3.3793  0.5184
   36CHL1    C4 2595   3.036   1.904   2.087 -0.5486  0.1959  0.3532
   36CHL1   H4A 2596   3.087   1.810   2.059  0.8525  0.9268  0.3605
   36CHL1   H4B 2597   3.074   1.993   2.032 -2.5525 -0.0751 -1.6277
   36CHL1    C5 2598   3.040   1.916   2.235 -0.6278  0.5363  0.2018
   36CHL1    C6 2599   3.097   2.031   2.280 -0.2598 -0.2499 -0.2147
   36CHL1    H6 2600   3.148   2.100   2.212  0.5884 -1.4620 -0.8431
   36CHL1    C7 2601   3.114   2.044   2.424 -0.1442 -0.0507 -0.3082
   36CHL1   H7A 2602   3.213   2.087   2.450  1.7242 -3.0502 -1.8384
   36CHL1   H7B 2603   3.033   2.112   2.459 -0.0323 -0.3797  0.6176
   36CHL1    C8 2604   3.104   1.905   2.504 -0.1065  0.6353 -0.1687
   36CHL1    H8 2605   3.196   1.847   2.482  0.0501  0.4795  0.8874
   36CHL1   C14 2606   3.090   1.931   2.650  0.5478  0.4505  0.3195
   36CHL1   H14 2607   2.999   1.993   2.664  0.3619 -0.2208  2.3604
   36CHL1   C15 2608   3.200   2.011   2.718  0.1381  1.0602  0.1222
   36CHL1  H15A 2609   3.298   1.988   2.671  0.1659  0.1632  0.6034
   36CHL1  H15B 2610   3.202   2.121   2.703  1.0823  0.9376 -0.7338
   36CHL1   C16 2611   3.190   1.973   2.867 -0.1447 -0.1787  1.5113
   36CHL1  H16A 2612   3.285   1.924   2.894 -0.5921 -2.4358 -0.6483
   36CHL1  H16B 2613   3.175   2.068   2.923  0.9216 -0.4200  2.2163
   36CHL1   C17 2614   3.083   1.871   2.880  0.6321 -0.2150 -0.2369
   36CHL1   H17 2615   2.984   1.918   2.896 -0.5066 -3.0891  2.3934
   36CHL1   C13 2616   3.072   1.811   2.738  0.6989  0.3562  0.5101
   36CHL1   C18 2617   3.181   1.713   2.712 -0.4811  0.0772 -0.5632
   36CHL1  H18A 2618   3.191   1.672   2.609  0.7523 -1.2186  0.0385
   36CHL1  H18B 2619   3.279   1.764   2.726 -0.3919 -0.2199 -0.1090
   36CHL1  H18C 2620   3.183   1.629   2.784  0.5727  0.5596  0.0032
   36CHL1   C12 2621   2.942   1.738   2.702 -0.4688 -0.4151  0.8942
   36CHL1  H12A 2622   2.924   1.637   2.746 -1.0022 -0.0282  1.5862
   36CHL1  H12B 2623   2.862   1.802   2.745  1.1990  0.8816  2.2441
   36CHL1   C11 2624   2.931   1.710   2.547  0.0018 -1.0694 -0.3259
   36CHL1  H11A 2625   2.993   1.618   2.544  0.7433 -0.6011  0.4036
   36CHL1  H11B 2626   2.825   1.685   2.522  0.2046 -0.3109 -2.0917
   36CHL1    C9 2627   2.982   1.827   2.452  0.1136  0.3734 -0.2153
   36CHL1    H9 2628   2.900   1.900   2.469 -0.8735 -0.9021  0.6882
   36CHL1   C10 2629   2.983   1.796   2.307  0.3396 -0.0361 -0.9842
   36CHL1   C19 2630   3.072   1.675   2.292  0.3095 -0.4585 -0.3151
   36CHL1  H19A 2631   3.171   1.694   2.338  0.0686 -1.0024  0.4526
   36CHL1  H19B 2632   3.032   1.582   2.339 -1.5112 -0.1772 -1.2030
   36CHL1  H19C 2633   3.082   1.644   2.186  0.3712 -2.4864  0.2349
   36CHL1    C1 2634   2.848   1.756   2.253  0.1430 -0.2027  0.7527
   36CHL1   H1A 2635   2.827   1.650   2.281  2.2138 -0.2020  2.5463
   36CHL1   H1B 2636   2.774   1.832   2.287  0.5212  0.8107 -0.6141
   36CHL1    C2 2637   2.832   1.761   2.104 -0.2496 -0.4761  0.2044
   36CHL1   H2A 2638   2.724   1.761   2.080  0.4472 -0.1737 -3.6941
   36CHL1   H2B 2639   2.886   1.674   2.059 -1.2756 -1.3820  0.6728
   36CHL1   C20 2640   3.097   1.787   3.003  0.0425 -0.3573 -0.1956
   36CHL1   H20 2641   3.166   1.702   2.983  1.3480 -0.0418  2.4726
   36CHL1   C21 2642   2.963   1.733   3.035  0.0670  0.2711 -0.0097
   36CHL1  H21A 2643   2.890   1.812   3.064 -2.0384 -1.1943 -1.0177
   36CHL1  H21B 2644   2.975   1.667   3.124  0.1275  0.9000  0.4563
   36CHL1  H21C 2645   2.922   1.671   2.953  1.0323 -0.4775  0.0513
   36CHL1   C22 2646   3.161   1.862   3.130 -0.1654 -0.3868  0.2999
   36CHL1  H22A 2647   3.264   1.898   3.109  0.3155 -0.8300  1.7504
   36CHL1  H22B 2648   3.107   1.946   3.179  3.3067 -0.7069  5.5259
   36CHL1   C23 2649   3.181   1.775   3.249  0.6003  0.0762 -0.6714
   36CHL1  H23A 2650   3.081   1.749   3.290  0.2842  0.1988 -1.3457
   36CHL1  H23B 2651   3.222   1.679   3.211  2.9405  0.6153  0.3491
   36CHL1   C24 2652   3.269   1.836   3.364  0.6099 -0.0723  0.6380
   36CHL1  H24A 2653   3.369   1.864   3.323  0.9440 -0.2258  1.3239
   36CHL1  H24B 2654   3.212   1.926   3.394  1.9419  0.8798  0.4047
   36CHL1   C25 2655   3.303   1.748   3.486 -0.7135  0.0815  0.0112
   36CHL1   H25 2656   3.213   1.696   3.525 -1.3114 -0.9060 -2.5516
   36CHL1   C26 2657   3.420   1.647   3.445  0.4338  0.0080  0.1003
   36CHL1  H26A 2658   3.524   1.687   3.441 -0.4729  2.6010  0.8506
   36CHL1  H26B 2659   3.400   1.558   3.508 -2.3155  0.5281  0.0766
   36CHL1  H26C 2660   3.399   1.620   3.339  1.1779 -0.5849  0.0894
   36CHL1   C27 2661   3.350   1.834   3.606  0.1483  0.4613  0.1544
   36CHL1  H27A 2662   3.443   1.874   3.561 -0.4488  0.2026 -1.3575
   36CHL1  H27B 2663   3.293   1.926   3.632  1.3229  1.0051  0.8944
   36CHL1  H27C 2664   3.360   1.766   3.694 -0.8108 -1.3314 -1.0652
   37CHL1    C3 2665   5.693   4.494   2.135  0.0298  0.2598 -0.4887
   37CHL1    H3 2666   5.785   4.554   2.155 -0.8881  0.8709  2.3513
   37CHL1    O3 2667   5.675   4.474   1.996  0.7120 -0.0882  0.5838
   37CHL1   H3' 2668   5.582   4.453   1.983  0.1318  1.2731  2.2261
   37CHL1    C4 2669   5.695   4.355   2.204  1.2117 -0.5242 -0.7409
   37CHL1   H4A 2670   5.607   4.295   2.172  0.5445  0.2761 -0.4618
   37CHL1   H4B 2671   5.785   4.306   2.163  2.4810  1.9801 -1.1804
   37CHL1    C5 2672   5.710   4.379   2.361 -0.0901  0.5554  0.5690
   37CHL1    C6 2673   5.814   4.328   2.428  0.1608  0.2928 -0.8272
   37CHL1    H6 2674   5.890   4.261   2.384  0.5969  0.2360 -0.0091
   37CHL1    C7 2675   5.834   4.357   2.571  0.4658  0.4464 -0.6061
   37CHL1   H7A 2676   5.888   4.273   2.618  0.1912  0.2197 -0.6853
   37CHL1   H7B 2677   5.906   4.441   2.579  1.2991 -0.4114  1.4290
   37CHL1    C8 2678   5.703   4.392   2.647  0.2048  0.4101 -0.4723
   37CHL1    H8 2679   5.641   4.300   2.651  0.4848  0.1063 -2.4412
   37CHL1   C14 2680   5.726   4.425   2.797 -0.0710 -0.2774  0.0153
   37CHL1   H14 2681   5.790   4.515   2.790 -0.8251  0.4121  1.4897
   37CHL1   C15 2682   5.824   4.350   2.888  0.6902 -0.0810  0.5663
   37CHL1  H15A 2683   5.794   4.243   2.880 -1.9127  0.6557 -0.6211
   37CHL1  H15B 2684   5.925   4.371   2.847  0.8370 -0.6023  0.6508
   37CHL1   C16 2685   5.792   4.400   3.028  0.0222  0.5244 -0.0695
   37CHL1  H16A 2686   5.781   4.317   3.101  0.5696  0.1718 -0.3827
   37CHL1  H16B 2687   5.881   4.446   3.074  0.5750 -0.7813  0.2127
   37CHL1   C17 2688   5.666   4.500   3.020 -0.0212  0.2170  0.3373
   37CHL1   H17 2689   5.704   4.604   3.029  2.6709 -0.4861 -1.6679
   37CHL1   C13 2690   5.605   4.474   2.876 -0.9995  0.2843  0.9688
   37CHL1   C18 2691   5.504   4.354   2.896 -0.0722  0.2284  0.5419
   37CHL1  H18A 2692   5.485   4.312   2.795  1.2378  0.0218  0.3605
   37CHL1  H18B 2693   5.546   4.267   2.951 -2.8675 -0.7552  1.2860
   37CHL1  H18C 2694   5.409   4.384   2.944  0.0323  1.4078  0.0356
   37CHL1   C12 2695   5.532   4.587   2.798  0.0713  0.2972  0.3178
   37CHL1  H12A 2696   5.431   4.596   2.844 -0.8618 -1.0708 -1.3389
   37CHL1  H12B 2697   5.586   4.684   2.798  2.2317 -0.8323  1.4844
   37CHL1   C11 2698   5.505   4.549   2.648  0.5890 -0.9798 -0.8523
   37CHL1  H11A 2699   5.422   4.476   2.652 -0.1147 -0.2480 -1.5526
   37CHL1  H11B 2700   5.462   4.633   2.589  2.3190  0.5370 -0.0747
   37CHL1    C9 2701   5.627   4.501   2.573 -1.0552 -0.3412  0.1348
   37CHL1    H9 2702   5.699   4.585   2.571 -1.0543 -0.3373  0.3299
   37CHL1   C10 2703   5.593   4.467   2.417  0.2457 -0.3469 -0.1092
   37CHL1   C19 2704   5.463   4.385   2.409 -0.0181  0.2425  0.4023
   37CHL1  H19A 2705   5.372   4.438   2.443 -0.1462 -0.2998  0.9122
   37CHL1  H19B 2706   5.442   4.345   2.308 -0.9143  1.7280 -0.0327
   37CHL1  H19C 2707   5.470   4.304   2.484 -0.3310 -0.7667 -0.6258
   37CHL1    C1 2708   5.591   4.599   2.335 -0.6495  0.5435  0.2614
   37CHL1   H1A 2709   5.508   4.666   2.367 -0.8786  0.1399  0.5198
   37CHL1   H1B 2710   5.683   4.658   2.356  0.3491 -1.0679  0.5585
   37CHL1    C2 2711   5.577   4.582   2.187 -0.3135  0.2088  0.4494
   37CHL1   H2A 2712   5.576   4.681   2.137 -2.4050 -0.1257 -0.2844
   37CHL1   H2B 2713   5.486   4.527   2.154 -0.3676 -0.5477  1.8052
   37CHL1   C20 2714   5.576   4.486   3.139  0.5839 -0.2115 -0.2863
   37CHL1   H20 2715   5.537   4.382   3.141  3.0623 -1.2318 -1.0438
   37CHL1   C21 2716   5.455   4.582   3.126  0.7646  0.3195 -0.2132
   37CHL1  H21A 2717   5.479   4.690   3.142 -0.7771  0.4566  1.5646
   37CHL1  H21B 2718   5.374   4.550   3.196  1.4082 -1.5445 -0.2783
   37CHL1  H21C 2719   5.394   4.569   3.034 -0.3185 -4.0764  0.8907
   37CHL1   C22 2720   5.644   4.510   3.277  0.7915 -0.0654  0.2261
   37CHL1  H22A 2721   5.736   4.448   3.281 -1.1645 -3.1619  0.2717
   37CHL1  H22B 2722   5.653   4.621   3.281 -0.8562  0.0774  0.4707
   37CHL1   C23 2723   5.565   4.472   3.399  0.7353  0.1913 -0.0736
   37CHL1  H23A 2724   5.624   4.513   3.484  3.5608  1.0432 -2.2628
   37CHL1  H23B 2725   5.467   4.523   3.407  0.7068 -0.0844  1.6253
   37CHL1   C24 2726   5.553   4.319   3.413 -0.4319  0.7635  0.1006
   37CHL1  H24A 2727   5.510   4.258   3.331 -1.9078  2.6445 -0.5876
   37CHL1  H24B 2728   5.653   4.271   3.411 -1.2133 -0.9745 -2.5050
   37CHL1   C25 2729   5.490   4.283   3.546 -0.0506 -0.3157 -0.5470
   37CHL1   H25 2730   5.401   4.349   3.555  1.1449  1.2311  0.5423
   37CHL1   C26 2731   5.441   4.142   3.552  0.1948 -0.2591 -0.2062
   37CHL1  H26A 2732   5.515   4.066   3.519  1.5651  0.7330  0.4890
   37CHL1  H26B 2733   5.406   4.119   3.654  2.0420  0.8249  0.7214
   37CHL1  H26C 2734   5.356   4.130   3.481  0.6141  1.6885 -1.1229
   37CHL1   C27 2735   5.596   4.302   3.660 -0.6549  0.4139 -0.8078
   37CHL1  H27A 2736   5.570   4.242   3.750  0.7895 -1.6754 -1.6991
   37CHL1  H27B 2737   5.693   4.254   3.635 -0.6516  0.2310 -0.4687
   37CHL1  H27C 2738   5.618   4.408   3.686 -0.0642  0.1395 -0.1341
   38CHL1    C3 2739   2.776   5.044   2.451  0.2759  1.2405  0.3836
   38CHL1    H3 2740   2.686   4.984   2.475  0.9583  0.9665  2.4571
   38CHL1    O3 2741   2.780   5.087   2.319 -0.4573 -0.3397  0.1152
   38CHL1   H3' 2742   2.766   5.182   2.321 -1.1197 -0.4094 -0.5580
   38CHL1    C4 2743   2.789   5.165   2.543 -0.0136  0.2759 -0.0301
   38CHL1   H4A 2744   2.882   5.217   2.512  0.7175 -0.4662  0.8791
   38CHL1   H4B 2745   2.702   5.232   2.527  0.6684  0.6445 -2.8248
   38CHL1    C5 2746   2.806   5.123   2.685 -0.1313  1.0583 -0.3916
   38CHL1    C6 2747   2.720   5.161   2.783 -0.2663 -0.6690 -0.0258
   38CHL1    H6 2748   2.640   5.234   2.765  1.3810  1.2227 -0.0035
   38CHL1    C7 2749   2.724   5.120   2.926 -0.2646 -0.2288  0.2667
   38CHL1   H7A 2750   2.706   5.213   2.984  0.5131  0.3237 -0.3523
   38CHL1   H7B 2751   2.634   5.058   2.945 -0.5717 -0.7575 -2.4705
   38CHL1    C8 2752   2.860   5.059   2.971  0.4119 -0.2792  0.7231
   38CHL1    H8 2753   2.931   5.144   2.968  2.5650 -2.0027  0.0360
   38CHL1   C14 2754   2.853   5.001   3.107 -0.1346  0.2719 -0.6624
   38CHL1   H14 2755   2.781   4.918   3.091  1.7929 -1.3809 -1.1007
   38CHL1   C15 2756   2.817   5.088   3.225  0.1003 -0.6524  0.3116
   38CHL1  H15A 2757   2.888   5.173   3.238  0.8780 -1.2910  0.3490
   38CHL1  H15B 2758   2.711   5.119   3.222  0.6718  1.3489 -1.0019
   38CHL1   C16 2759   2.855   4.992   3.344 -0.1993  0.3504 -0.3206
   38CHL1  H16A 2760   2.877   5.055   3.434 -2.2199  1.5932 -0.6386
   38CHL1  H16B 2761   2.758   4.944   3.366 -0.7135  1.4990  0.0230
   38CHL1   C17 2762   2.951   4.883   3.294 -1.2087  0.6252  0.2244
   38CHL1   H17 2763   2.894   4.789   3.275  0.2497 -0.7633  2.2777
   38CHL1   C13 2764   2.982   4.927   3.149  0.2237 -0.5219 -0.0548
   38CHL1   C18 2765   3.104   5.025   3.142 -0.2719  0.7402  0.0174
   38CHL1  H18A 2766   3.185   4.967   3.191 -0.7335 -1.5852 -1.8248
   38CHL1  H18B 2767   3.127   5.050   3.036 -0.9624  2.1371  0.1712
   38CHL1  H18C 2768   3.091   5.112   3.210  1.6260 -0.1738  1.6679
   38CHL1   C12 2769   2.994   4.810   3.052 -0.6261 -0.2817  0.2456
   38CHL1  H12A 2770   3.065   4.733   3.091 -2.5364 -0.5172  3.5756
   38CHL1  H12B 2771   2.895   4.761   3.045 -1.1360  0.7675 -0.0278
   38CHL1   C11 2772   3.012   4.851   2.907  0.8632  0.1978 -0.0435
   38CHL1  H11A 2773   3.107   4.903   2.885  0.5834  1.3569  1.2960
   38CHL1  H11B 2774   3.008   4.764   2.838  0.4005  0.3053 -0.1607
   38CHL1    C9 2775   2.899   4.949   2.866  0.3621  0.1251 -0.3578
   38CHL1    H9 2776   2.806   4.889   2.861  0.1348  0.2328  1.7579
   38CHL1   C10 2777   2.915   5.019   2.718  0.0822 -0.6039  0.0289
   38CHL1   C19 2778   3.058   5.090   2.707 -0.3166  0.3289 -0.1116
   38CHL1  H19A 2779   3.138   5.021   2.671 -1.1890  0.7137 -3.0906
   38CHL1  H19B 2780   3.059   5.172   2.632 -1.6005  2.2668  1.8919
   38CHL1  H19C 2781   3.084   5.143   2.801  0.3159 -0.6760  0.2985
   38CHL1    C1 2782   2.912   4.908   2.614  0.1011  0.4229  0.2642
   38CHL1   H1A 2783   3.003   4.844   2.615 -0.8617 -1.0315  1.6855
   38CHL1   H1B 2784   2.837   4.828   2.633 -0.5351 -0.1222 -3.7013
   38CHL1    C2 2785   2.897   4.944   2.471 -0.1061  0.0609  0.0443
   38CHL1   H2A 2786   2.894   4.847   2.418 -0.2288  0.9755 -1.7056
   38CHL1   H2B 2787   2.993   4.994   2.445  0.3489 -0.4332  0.7335
   38CHL1   C20 2788   3.052   4.838   3.394  0.3477 -0.0194 -0.3180
   38CHL1   H20 2789   3.127   4.920   3.399  0.4795 -0.1702  0.2077
   38CHL1   C21 2790   3.132   4.723   3.345  0.0759 -0.0809 -0.0601
   38CHL1  H21A 2791   3.189   4.671   3.426 -0.3653  0.4065  0.5740
   38CHL1  H21B 2792   3.190   4.755   3.257  0.4166  0.0355  0.2068
   38CHL1  H21C 2793   3.057   4.649   3.309 -0.6385 -0.5201  2.1219
   38CHL1   C22 2794   2.996   4.825   3.540 -0.3714 -0.0730  0.1083
   38CHL1  H22A 2795   2.908   4.892   3.548 -1.9220 -1.9452 -0.2402
   38CHL1  H22B 2796   2.961   4.720   3.553  0.6978 -0.4630 -0.0308
   38CHL1   C23 2797   3.101   4.860   3.647  0.1465  0.7061 -0.0985
   38CHL1  H23A 2798   3.167   4.771   3.643 -2.0141 -1.0507  1.1082
   38CHL1  H23B 2799   3.164   4.948   3.621 -0.5482  0.9788 -0.9008
   38CHL1   C24 2800   3.044   4.890   3.793  0.4368  0.2401  0.2075
   38CHL1  H24A 2801   2.986   4.984   3.791  3.2059  2.0488 -1.1750
   38CHL1  H24B 2802   2.979   4.808   3.830  2.0348 -2.2944 -2.2240
   38CHL1   C25 2803   3.146   4.912   3.902 -0.6317  0.4889  0.0488
   38CHL1   H25 2804   3.211   4.822   3.907 -0.1848  0.7705 -0.5936
   38CHL1   C26 2805   3.234   5.045   3.879 -0.0353 -0.1577 -0.3367
   38CHL1  H26A 2806   3.286   5.036   3.781  1.3241  2.7831  0.0052
   38CHL1  H26B 2807   3.174   5.138   3.885  0.6776  0.3387 -0.8284
   38CHL1  H26C 2808   3.304   5.054   3.965 -1.8639 -0.0825  1.2200
   38CHL1   C27 2809   3.070   4.925   4.038  0.6523 -0.2686  0.0610
   38CHL1  H27A 2810   3.006   4.838   4.062 -0.7965  0.4007 -1.2422
   38CHL1  H27B 2811   3.143   4.929   4.122 -0.2497 -1.7674  0.9674
   38CHL1  H27C 2812   3.001   5.011   4.030  0.3024 -0.2871  2.2474
   39CHL1    C3 2813   4.156   5.849   2.370 -0.1710  0.0432  0.0144
   39CHL1    H3 2814   4.151   5.742   2.400 -0.6175  0.0045 -0.2001
   39CHL1    O3 2815   4.134   5.869   2.231  0.4367  0.0091 -0.1693
   39CHL1   H3' 2816   4.130   5.964   2.217 -0.9389 -0.1490 -1.0880
   39CHL1    C4 2817   4.044   5.921   2.448  0.4621 -0.0495  0.1717
   39CHL1   H4A 2818   4.027   6.026   2.418 -1.3187 -0.8221 -1.7534
   39CHL1   H4B 2819   3.951   5.873   2.411 -1.4807  2.4778  1.4921
   39CHL1    C5 2820   4.063   5.918   2.602  0.2563  1.1692  0.1893
   39CHL1    C6 2821   3.974   5.855   2.678 -0.4525  0.0415  0.7647
   39CHL1    H6 2822   3.883   5.818   2.629 -0.5931  2.3123 -0.8418
   39CHL1    C7 2823   3.988   5.833   2.825  0.5479 -0.3795 -0.4556
   39CHL1   H7A 2824   3.890   5.851   2.875  1.1352  0.7359  0.3542
   39CHL1   H7B 2825   4.031   5.733   2.847  0.1889 -0.0062  2.3163
   39CHL1    C8 2826   4.097   5.941   2.883 -0.3051  0.3035  0.2343
   39CHL1    H8 2827   4.042   6.038   2.885  1.7473  1.5048  0.5400
   39CHL1   C14 2828   4.135   5.895   3.024  0.2362  0.2619 -0.3615
   39CHL1   H14 2829   4.180   5.794   3.008  2.8228  1.2247  0.2391
   39CHL1   C15 2830   4.020   5.867   3.128  0.1861 -0.8834  0.1269
   39CHL1  H15A 2831   3.945   5.948   3.133  2.6495  1.4830  2.1224
   39CHL1  H15B 2832   3.978   5.769   3.094 -1.1434 -1.0483  2.0822
   39CHL1   C16 2833   4.093   5.854   3.264  0.2679  0.4313 -0.1409
   39CHL1  H16A 2834   4.053   5.935   3.328 -1.4632  1.2214 -2.0931
   39CHL1  H16B 2835   4.079   5.752   3.306  0.5801  0.4866  0.1041
   39CHL1   C17 2836   4.247   5.885   3.230 -0.1839  0.9540  0.6883
   39CHL1   H17 2837   4.291   5.788   3.201  1.8277  1.9805  0.0883
   39CHL1   C13 2838   4.247   5.969   3.095 -0.4692  0.3779  0.1727
   39CHL1   C18 2839   4.196   6.110   3.111 -0.2028  0.7381  0.3655
   39CHL1  H18A 2840   4.096   6.116   3.160 -1.7667  0.6177 -2.5469
   39CHL1  H18B 2841   4.269   6.176   3.161  2.4179 -1.0499 -0.8518
   39CHL1  H18C 2842   4.176   6.163   3.015 -0.7763 -1.1921 -0.6495
   39CHL1   C12 2843   4.362   5.962   2.996 -0.4270 -0.2479 -0.6675
   39CHL1  H12A 2844   4.446   6.020   3.040  1.1226 -0.9664 -2.5783
   39CHL1  H12B 2845   4.391   5.856   2.983 -2.8089 -1.3941  2.1094
   39CHL1   C11 2846   4.336   6.025   2.864  0.2577  0.1235  0.1886
   39CHL1  H11A 2847   4.315   6.133   2.879 -0.9943 -0.1367  0.4368
   39CHL1  H11B 2848   4.417   6.013   2.789 -0.5964 -0.7444 -0.6227
   39CHL1    C9 2849   4.221   5.941   2.797  0.5742  0.1722 -0.2987
   39CHL1    H9 2850   4.252   5.835   2.805  0.1697  0.2051  4.7485
   39CHL1   C10 2851   4.187   5.979   2.653 -1.0958  0.5674  0.4043
   39CHL1   C19 2852   4.174   6.131   2.637 -0.2102 -0.2083  0.2087
   39CHL1  H19A 2853   4.095   6.197   2.678  1.8823  3.4687 -1.1152
   39CHL1  H19B 2854   4.263   6.181   2.682 -1.6115  1.1607  1.5923
   39CHL1  H19C 2855   4.172   6.152   2.528 -0.8747  1.3305  0.4883
   39CHL1    C1 2856   4.304   5.915   2.561  0.2478 -1.2235 -0.3736
   39CHL1   H1A 2857   4.396   5.975   2.581  0.1522 -0.0474 -3.0281
   39CHL1   H1B 2858   4.312   5.810   2.595  0.1659 -0.6413  1.5681
   39CHL1    C2 2859   4.278   5.920   2.406 -0.9151 -0.6165  0.5194
   39CHL1   H2A 2860   4.368   5.878   2.356 -1.3514  0.6108 -1.4199
   39CHL1   H2B 2861   4.280   6.025   2.368 -3.0431  0.1225  2.2634
   39CHL1   C20 2862   4.329   5.949   3.343  0.3839  0.1319 -0.2789
   39CHL1   H20 2863   4.274   6.045   3.356  0.1200 -0.2122  1.2645
   39CHL1   C21 2864   4.478   5.981   3.316  0.1277 -0.2327 -0.3386
   39CHL1  H21A 2865   4.503   6.063   3.246  4.8837 -0.1035  1.1568
   39CHL1  H21B 2866   4.530   5.884   3.305  0.4590 -0.1831  0.6530
   39CHL1  H21C 2867   4.521   6.034   3.404  0.8220  0.4577 -1.0867
   39CHL1   C22 2868   4.320   5.865   3.469 -0.4281  0.2438 -0.4662
   39CHL1  H22A 2869   4.224   5.809   3.462  1.6865 -3.4420 -3.8820
   39CHL1  H22B 2870   4.392   5.781   3.474 -1.8926 -1.0045  0.7820
   39CHL1   C23 2871   4.326   5.938   3.599 -0.5342  0.1975 -0.0418
   39CHL1  H23A 2872   4.428   5.984   3.601 -0.6482  0.4729 -0.4736
   39CHL1  H23B 2873   4.249   6.018   3.613 -1.1294  0.0854 -2.3804
   39CHL1   C24 2874   4.300   5.845   3.721  0.5675 -0.1073 -0.2813
   39CHL1  H24A 2875   4.199   5.802   3.704  0.3854  0.0476  0.3984
   39CHL1  H24B 2876   4.376   5.764   3.710 -0.4065 -0.8200 -2.4441
   39CHL1   C25 2877   4.323   5.907   3.860 -0.2768 -0.3848 -0.0745
   39CHL1   H25 2878   4.321   5.830   3.939  0.9576 -0.1803  0.1743
   39CHL1   C26 2879   4.461   5.979   3.856  0.0978 -0.5572  0.1744
   39CHL1  H26A 2880   4.507   5.997   3.955 -1.4561 -0.2065  0.8728
   39CHL1  H26B 2881   4.530   5.927   3.786  0.6609  1.8315 -1.1471
   39CHL1  H26C 2882   4.443   6.083   3.821  3.2393  0.3935  1.0728
   39CHL1   C27 2883   4.215   6.012   3.893 -0.4157 -0.1627 -0.0214
   39CHL1  H27A 2884   4.214   6.091   3.816 -1.6093  0.1347  0.2754
   39CHL1  H27B 2885   4.119   5.959   3.913 -0.4903 -0.0669 -0.1296
   39CHL1  H27C 2886   4.223   6.052   3.996 -0.6823 -1.0251  0.3533
   40CHL1    C3 2887   5.981   2.583   2.388  0.4299 -0.5364 -0.0198
   40CHL1    H3 2888   5.933   2.682   2.373  1.1678 -0.2886 -0.7915
   40CHL1    O3 2889   6.058   2.553   2.271  0.2518 -0.1238 -0.2573
   40CHL1   H3' 2890   6.091   2.463   2.276 -0.0363 -0.3423 -1.7411
   40CHL1    C4 2891   6.080   2.593   2.509  0.6542  0.1934 -0.3389
   40CHL1   H4A 2892   6.139   2.502   2.530  3.2574  2.3858  2.8582
   40CHL1   H4B 2893   6.159   2.667   2.482  0.5335  0.0252 -1.1848
   40CHL1    C5 2894   6.006   2.626   2.632 -0.3575  0.5853 -0.1431
   40CHL1    C6 2895   6.036   2.735   2.703 -0.2905 -0.4025 -0.2311
   40CHL1    H6 2896   6.114   2.800   2.661 -2.4386  1.7388 -1.1804
   40CHL1    C7 2897   5.960   2.784   2.824  0.0679 -0.1071 -0.3538
   40CHL1   H7A 2898   6.020   2.835   2.903  0.6898 -0.0754 -0.8375
   40CHL1   H7B 2899   5.882   2.855   2.790 -0.3458 -1.3534 -2.1378
   40CHL1    C8 2900   5.883   2.661   2.887  0.4260 -0.5351  0.0711
   40CHL1    H8 2901   5.958   2.591   2.932  0.9056 -0.3957 -0.5047
   40CHL1   C14 2902   5.795   2.714   2.993  0.3324  0.2679  0.0954
   40CHL1   H14 2903   5.718   2.779   2.946  0.3555  1.2637  1.3722
   40CHL1   C15 2904   5.851   2.807   3.101  0.0073  1.0558  0.5108
   40CHL1  H15A 2905   5.947   2.758   3.128 -2.3218 -4.2961  0.3996
   40CHL1  H15B 2906   5.865   2.913   3.071 -1.0910  1.1604  0.3316
   40CHL1   C16 2907   5.740   2.806   3.211 -0.4260 -0.2945  0.3031
   40CHL1  H16A 2908   5.784   2.780   3.309  0.0854  0.5488  0.3111
   40CHL1  H16B 2909   5.683   2.901   3.221 -2.8503 -1.8113  2.2072
   40CHL1   C17 2910   5.635   2.697   3.169  0.0767  0.2298  0.1409
   40CHL1   H17 2911   5.546   2.739   3.117  0.6635 -0.1006 -1.1528
   40CHL1   C13 2912   5.707   2.611   3.060  0.3143  0.0843 -0.1031
   40CHL1   C18 2913   5.788   2.509   3.142 -0.4038 -0.9095 -0.0090
   40CHL1  H18A 2914   5.861   2.460   3.073 -0.6315 -1.0729 -0.1353
   40CHL1  H18B 2915   5.836   2.570   3.221  0.2737 -0.1199 -0.9957
   40CHL1  H18C 2916   5.737   2.420   3.183  0.9517 -0.8094  2.0228
   40CHL1   C12 2917   5.611   2.534   2.965 -0.3411  0.0816  0.1353
   40CHL1  H12A 2918   5.559   2.447   3.010  1.4293  0.0158  2.2359
   40CHL1  H12B 2919   5.538   2.609   2.929  1.0256  1.1816 -0.4508
   40CHL1   C11 2920   5.693   2.485   2.845 -0.5607 -0.0200 -0.2024
   40CHL1  H11A 2921   5.755   2.397   2.874  0.4223  1.0729  1.1362
   40CHL1  H11B 2922   5.632   2.447   2.760 -1.9370  1.0217  0.2766
   40CHL1    C9 2923   5.800   2.588   2.781  0.5301 -0.6736 -0.0844
   40CHL1    H9 2924   5.742   2.669   2.730  0.2357 -1.7773 -1.5846
   40CHL1   C10 2925   5.883   2.528   2.672 -0.9218  0.7895  0.7173
   40CHL1   C19 2926   5.952   2.398   2.716 -0.5219  0.2641  0.2574
   40CHL1  H19A 2927   6.032   2.355   2.652 -0.7486 -0.4600  0.4530
   40CHL1  H19B 2928   6.001   2.419   2.814 -1.5019 -1.5874  1.1929
   40CHL1  H19C 2929   5.883   2.313   2.729  1.3432 -1.0530  2.3104
   40CHL1    C1 2930   5.795   2.502   2.545 -1.2967 -0.5412 -0.1935
   40CHL1   H1A 2931   5.729   2.415   2.566 -3.0946  0.3916 -1.7133
   40CHL1   H1B 2932   5.730   2.591   2.528 -0.9081  0.3467  2.5411
   40CHL1    C2 2933   5.874   2.474   2.413  0.6390 -0.2295 -0.0737
   40CHL1   H2A 2934   5.802   2.483   2.328  0.5952  2.1751  0.1620
   40CHL1   H2B 2935   5.925   2.375   2.413 -1.5589 -1.4166  0.4174
   40CHL1   C20 2936   5.572   2.634   3.297 -0.5101  0.1908 -0.0861
   40CHL1   H20 2937   5.654   2.587   3.356 -0.6948  0.1679  0.1526
   40CHL1   C21 2938   5.464   2.527   3.276  0.4292  0.2019 -0.1199
   40CHL1  H21A 2939   5.432   2.467   3.364  1.0905 -0.1962 -0.1419
   40CHL1  H21B 2940   5.484   2.447   3.202  0.0065  0.4271 -0.4743
   40CHL1  H21C 2941   5.371   2.573   3.236  0.4981  0.1197 -0.3752
   40CHL1   C22 2942   5.523   2.755   3.393 -0.8018 -0.0943 -0.2547
   40CHL1  H22A 2943   5.611   2.814   3.428 -0.2575 -1.0842  0.0868
   40CHL1  H22B 2944   5.455   2.825   3.340 -1.4286  1.2715  2.1845
   40CHL1   C23 2945   5.450   2.702   3.516  0.1874  0.7618 -0.1503
   40CHL1  H23A 2946   5.355   2.653   3.486 -0.1985  2.2734 -1.5061
   40CHL1  H23B 2947   5.516   2.641   3.582  0.3773  0.9695 -0.1449
   40CHL1   C24 2948   5.406   2.817   3.617 -0.8244 -0.2608 -0.3451
   40CHL1  H24A 2949   5.370   2.763   3.707 -0.9974 -0.4269 -0.5125
   40CHL1  H24B 2950   5.497   2.867   3.656 -1.8409  0.9641  0.5385
   40CHL1   C25 2951   5.322   2.931   3.568  0.1940 -0.2829 -0.4002
   40CHL1   H25 2952   5.378   2.985   3.490 -2.4154  1.4609 -1.2086
   40CHL1   C26 2953   5.181   2.887   3.519 -0.1070  0.6354 -0.1278
   40CHL1  H26A 2954   5.127   2.835   3.601 -0.5600 -1.7499 -1.8248
   40CHL1  H26B 2955   5.143   2.983   3.478 -1.8509 -0.6360 -1.6946
   40CHL1  H26C 2956   5.194   2.818   3.433 -0.2893  0.5988 -0.1265
   40CHL1   C27 2957   5.293   3.035   3.682  0.1573  0.5898  0.3696
   40CHL1  H27A 2958   5.215   3.105   3.646 -0.0374 -0.6088 -1.6700
   40CHL1  H27B 2959   5.272   2.989   3.781 -0.7777 -0.0751 -0.1262
   40CHL1  H27C 2960   5.382   3.100   3.699  0.1826 -0.0154  2.9520
   41CHL1    C3 2961   4.624   5.647   2.061  0.1025 -0.0712 -0.0930
   41CHL1    H3 2962   4.570   5.743   2.071  0.2085 -0.2720  3.1856
   41CHL1    O3 2963   4.622   5.600   1.923  0.0380  0.3547 -0.2005
   41CHL1   H3' 2964   4.665   5.667   1.869  0.1377  0.4248 -0.0364
   41CHL1    C4 2965   4.768   5.656   2.104 -0.6220  0.2670 -0.4920
   41CHL1   H4A 2966   4.824   5.560   2.106  1.9682  1.6977  0.1167
   41CHL1   H4B 2967   4.814   5.729   2.035  0.5265  0.1632  0.1530
   41CHL1    C5 2968   4.772   5.712   2.247  0.2169  0.6829 -0.2447
   41CHL1    C6 2969   4.825   5.826   2.274 -0.4249 -0.2762 -0.4773
   41CHL1    H6 2970   4.882   5.875   2.193 -0.6816  1.5463  0.4008
   41CHL1    C7 2971   4.838   5.881   2.412 -0.6356 -0.3001  0.6304
   41CHL1   H7A 2972   4.937   5.931   2.415  0.4441 -2.2629 -0.1836
   41CHL1   H7B 2973   4.763   5.961   2.430 -1.0114 -0.8231  1.4355
   41CHL1    C8 2974   4.813   5.772   2.516 -0.0485 -0.3295 -0.3215
   41CHL1    H8 2975   4.902   5.706   2.527 -0.1497 -0.1374  1.9515
   41CHL1   C14 2976   4.790   5.840   2.654 -0.7627 -0.3151 -0.2549
   41CHL1   H14 2977   4.693   5.889   2.632 -0.9348  0.0112  1.1333
   41CHL1   C15 2978   4.875   5.953   2.698 -0.1835 -0.0137 -0.0779
   41CHL1  H15A 2979   4.980   5.929   2.671 -0.6604 -0.6234 -1.5057
   41CHL1  H15B 2980   4.848   6.051   2.652 -1.6502  0.2143  1.2010
   41CHL1   C16 2981   4.856   5.964   2.847  0.3448 -0.3421 -0.5995
   41CHL1  H16A 2982   4.953   5.940   2.895 -0.7095 -4.5383 -0.1254
   41CHL1  H16B 2983   4.824   6.065   2.879 -1.2687 -1.1586  0.5334
   41CHL1   C17 2984   4.751   5.855   2.887 -0.3545  0.4987  0.4493
   41CHL1   H17 2985   4.650   5.900   2.893  0.2003  1.8001  0.4835
   41CHL1   C13 2986   4.758   5.749   2.771 -0.3292 -0.0568 -0.3469
   41CHL1   C18 2987   4.881   5.657   2.787  0.0348  0.6119 -0.2833
   41CHL1  H18A 2988   4.904   5.596   2.697 -1.3601 -0.2218 -0.1037
   41CHL1  H18B 2989   4.976   5.710   2.810  1.2370 -2.3238  2.1380
   41CHL1  H18C 2990   4.866   5.587   2.871 -2.5354  0.6847 -0.6152
   41CHL1   C12 2991   4.624   5.677   2.742  0.4684  0.3263 -0.2435
   41CHL1  H12A 2992   4.601   5.598   2.817  0.1060 -0.9763 -1.6889
   41CHL1  H12B 2993   4.547   5.758   2.741  0.9074  0.7717 -2.4483
   41CHL1   C11 2994   4.630   5.609   2.602 -0.6965  0.4548 -0.8055
   41CHL1  H11A 2995   4.683   5.515   2.626  1.4602  1.6688 -0.5193
   41CHL1  H11B 2996   4.525   5.577   2.585  0.0445 -3.5663  1.0123
   41CHL1    C9 2997   4.689   5.696   2.489  0.6025 -0.9293  0.3376
   41CHL1    H9 2998   4.609   5.773   2.477  2.1830  0.9865  1.5239
   41CHL1   C10 2999   4.708   5.625   2.348  0.3458 -0.7145 -0.0878
   41CHL1   C19 3000   4.787   5.497   2.370 -0.1148  0.6187  0.3964
   41CHL1  H19A 3001   4.795   5.441   2.275 -2.4513  0.9366 -0.0470
   41CHL1  H19B 3002   4.891   5.518   2.404  1.2476 -2.5428 -1.4020
   41CHL1  H19C 3003   4.736   5.431   2.443  0.7408 -2.8040 -1.8728
   41CHL1    C1 3004   4.562   5.597   2.297 -0.1097 -0.0070  0.5336
   41CHL1   H1A 3005   4.520   5.525   2.371 -1.4406  1.6170  1.3980
   41CHL1   H1B 3006   4.504   5.691   2.299  0.0897  0.2012 -1.5558
   41CHL1    C2 3007   4.558   5.545   2.154  0.1565  0.3407  0.2793
   41CHL1   H2A 3008   4.452   5.537   2.122 -0.2218  0.8127  1.3645
   41CHL1   H2B 3009   4.592   5.439   2.150 -2.0791 -0.4110 -2.3936
   41CHL1   C20 3010   4.770   5.800   3.025 -0.0296  0.1064 -0.0624
   41CHL1   H20 3011   4.848   5.720   3.021 -0.3994 -0.4494  2.1236
   41CHL1   C21 3012   4.647   5.726   3.072  0.3983 -0.3011  0.2386
   41CHL1  H21A 3013   4.626   5.641   3.003 -1.7370  1.4129 -1.3476
   41CHL1  H21B 3014   4.554   5.782   3.095  1.2750  0.9155  0.8981
   41CHL1  H21C 3015   4.669   5.683   3.172 -0.8623  0.6800  0.9488
   41CHL1   C22 3016   4.824   5.906   3.134  0.0013 -0.8891  0.4420
   41CHL1  H22A 3017   4.928   5.924   3.099 -0.4090  1.4219  0.2868
   41CHL1  H22B 3018   4.758   5.995   3.132 -3.6398 -3.3565  0.5921
   41CHL1   C23 3019   4.840   5.857   3.280  0.6826 -0.3615 -0.4513
   41CHL1  H23A 3020   4.749   5.809   3.320 -1.3263  2.9759 -0.6384
   41CHL1  H23B 3021   4.911   5.772   3.281  1.4236  0.2412 -0.0524
   41CHL1   C24 3022   4.878   5.970   3.376  0.3380  0.1093 -0.2150
   41CHL1  H24A 3023   4.982   5.989   3.342  0.2660  0.0233 -0.4817
   41CHL1  H24B 3024   4.813   6.060   3.377 -1.2022 -0.9653 -0.0208
   41CHL1   C25 3025   4.886   5.924   3.527 -0.1662  0.0212 -0.2417
   41CHL1   H25 3026   4.966   5.848   3.524  0.4862  0.7122 -0.7222
   41CHL1   C26 3027   4.929   6.049   3.605  0.0530  0.2979  0.1702
   41CHL1  H26A 3028   4.929   6.018   3.712 -0.4937  0.2534  0.1602
   41CHL1  H26B 3029   5.028   6.081   3.567  1.4603  0.0025  3.2987
   41CHL1  H26C 3030   4.848   6.125   3.600  0.4056  0.6946  0.4700
   41CHL1   C27 3031   4.751   5.869   3.580 -0.1396 -0.6899 -0.0067
   41CHL1  H27A 3032   4.722   5.786   3.512 -1.2213 -0.6051  0.3296
   41CHL1  H27B 3033   4.760   5.833   3.684  0.9170 -0.3569  0.0223
   41CHL1  H27C 3034   4.668   5.944   3.579 -0.1412 -0.6885 -0.8619
   42CHL1    C3 3035   6.081   5.009   2.076 -0.0027  0.0799 -0.5593
   42CHL1    H3 3036   6.088   5.114   2.112  0.8052 -0.1403 -0.0498
   42CHL1    O3 3037   6.106   5.005   1.938  0.0286  0.5072 -0.6149
   42CHL1   H3' 3038   6.202   5.004   1.942  0.0488  2.2116  0.9353
   42CHL1    C4 3039   6.197   4.932   2.151  0.2518  0.5355  0.3143
   42CHL1   H4A 3040   6.191   4.827   2.113  0.7858 -0.2739  2.3267
   42CHL1   H4B 3041   6.294   4.964   2.108  1.0943 -1.2075  0.8153
   42CHL1    C5 3042   6.183   4.933   2.296 -0.9868  0.3879 -0.5376
   42CHL1    C6 3043   6.276   4.989   2.381  0.1161 -0.3702  1.0023
   42CHL1    H6 3044   6.373   5.023   2.341 -0.4791 -0.0016 -0.1953
   42CHL1    C7 3045   6.263   4.989   2.530 -0.6173 -0.2804  0.5900
   42CHL1   H7A 3046   6.359   4.955   2.576  0.4614 -0.4355 -1.6336
   42CHL1   H7B 3047   6.257   5.091   2.575 -4.3232 -1.0012  2.0914
   42CHL1    C8 3048   6.142   4.906   2.590 -0.5516 -0.0614  0.3259
   42CHL1    H8 3049   6.172   4.800   2.579 -0.0369 -0.0522  1.5405
   42CHL1   C14 3050   6.119   4.946   2.727 -0.4930 -0.7835 -0.6013
   42CHL1   H14 3051   6.087   5.052   2.714 -0.8514 -0.8707 -0.4410
   42CHL1   C15 3052   6.239   4.942   2.819 -0.2245  0.7263 -0.0564
   42CHL1  H15A 3053   6.301   4.850   2.817  0.2864  1.0824 -0.8340
   42CHL1  H15B 3054   6.301   5.033   2.807  0.8492 -0.0896 -0.8186
   42CHL1   C16 3055   6.177   4.943   2.956 -0.2939  0.3389 -0.5467
   42CHL1  H16A 3056   6.200   4.849   3.010  1.8137 -0.6331 -2.9926
   42CHL1  H16B 3057   6.209   5.025   3.024 -1.4497  0.2910  0.0904
   42CHL1   C17 3058   6.019   4.930   2.941  0.7584  0.0529 -0.1328
   42CHL1   H17 3059   5.977   5.032   2.938  3.3737  1.2007 -0.6699
   42CHL1   C13 3060   6.006   4.873   2.800  1.0628  0.4239  0.2697
   42CHL1   C18 3061   6.022   4.716   2.805 -0.1174 -0.0075  0.3983
   42CHL1  H18A 3062   6.094   4.687   2.884 -1.0867 -0.8983  0.9816
   42CHL1  H18B 3063   5.930   4.674   2.851  2.1499 -1.7026  3.7543
   42CHL1  H18C 3064   6.035   4.667   2.706 -1.6625 -0.9659  0.6426
   42CHL1   C12 3065   5.880   4.906   2.710  0.3170  0.4874 -0.0851
   42CHL1  H12A 3066   5.791   4.851   2.748  1.3679 -1.2610 -0.0702
   42CHL1  H12B 3067   5.848   5.012   2.723 -1.4010 -0.3026  3.6214
   42CHL1   C11 3068   5.893   4.855   2.567 -0.2658 -0.3783 -0.2123
   42CHL1  H11A 3069   5.881   4.744   2.575 -1.5885 -0.1886  0.8766
   42CHL1  H11B 3070   5.802   4.880   2.508  0.2336 -0.2140 -0.9228
   42CHL1    C9 3071   6.024   4.915   2.500 -0.1391 -0.7796 -0.1099
   42CHL1    H9 3072   5.996   5.022   2.505  0.4318 -0.5846 -0.7943
   42CHL1   C10 3073   6.050   4.879   2.347  0.3329 -0.5107 -0.2045
   42CHL1   C19 3074   6.047   4.723   2.331  0.0267 -1.4827  0.0917
   42CHL1  H19A 3075   5.953   4.676   2.367 -0.1803 -1.3912 -0.3148
   42CHL1  H19B 3076   6.043   4.695   2.223  0.3647 -1.3805  0.0535
   42CHL1  H19C 3077   6.131   4.675   2.384  0.3528  0.7096  1.6902
   42CHL1    C1 3078   5.927   4.933   2.264  0.3217 -0.1641  0.6720
   42CHL1   H1A 3079   5.845   4.860   2.279  0.4743 -0.8802 -1.6196
   42CHL1   H1B 3080   5.898   5.029   2.312 -1.1482  0.1423 -0.7384
   42CHL1    C2 3081   5.946   4.938   2.110  0.3388  0.0543  0.1775
   42CHL1   H2A 3082   5.875   4.999   2.050  0.6573 -0.2587 -0.5329
   42CHL1   H2B 3083   5.951   4.841   2.056  0.8944  1.6144 -2.7898
   42CHL1   C20 3084   5.942   4.858   3.056 -0.0735  0.0057 -0.3410
   42CHL1   H20 3085   5.954   4.748   3.054 -1.7649 -0.2019 -1.2334
   42CHL1   C21 3086   5.794   4.900   3.049 -0.0802  0.2675 -1.1057
   42CHL1  H21A 3087   5.747   4.836   3.126 -0.2520  1.3682 -0.2687
   42CHL1  H21B 3088   5.741   4.875   2.954 -1.7450 -2.0211  0.3370
   42CHL1  H21C 3089   5.781   5.009   3.070 -0.9481 -0.0881  0.2938
   42CHL1   C22 3090   5.999   4.893   3.193 -0.5998 -0.5840  0.0839
   42CHL1  H22A 3091   6.109   4.878   3.197 -0.3144  1.0238 -0.9031
   42CHL1  H22B 3092   5.971   4.998   3.218  3.3506  0.7191 -0.2713
   42CHL1   C23 3093   5.944   4.814   3.314 -0.4398  0.1014  0.8480
   42CHL1  H23A 3094   5.833   4.821   3.308 -0.3008  1.3319 -1.4105
   42CHL1  H23B 3095   5.974   4.709   3.292  3.1646  1.1663 -0.0359
   42CHL1   C24 3096   6.006   4.853   3.445  0.0984  0.8405 -0.1276
   42CHL1  H24A 3097   6.116   4.861   3.432  0.1464  2.7806  1.1050
   42CHL1  H24B 3098   5.966   4.955   3.461 -0.2686  0.7791 -0.6487
   42CHL1   C25 3099   5.977   4.758   3.566 -0.1492 -0.2732  0.5347
   42CHL1   H25 3100   5.997   4.817   3.658 -0.9335 -0.5243  0.8788
   42CHL1   C26 3101   5.829   4.721   3.574 -0.4227 -0.0177 -0.2857
   42CHL1  H26A 3102   5.800   4.675   3.672  0.8452  1.1707  0.6772
   42CHL1  H26B 3103   5.769   4.814   3.566 -1.6438 -0.6340  1.1861
   42CHL1  H26C 3104   5.793   4.653   3.494  1.5434 -2.3020  0.6500
   42CHL1   C27 3105   6.065   4.634   3.572 -0.1882  0.8168 -0.1753
   42CHL1  H27A 3106   6.173   4.660   3.581 -0.4322  1.2544  1.9223
   42CHL1  H27B 3107   6.032   4.572   3.658 -1.3655  0.8264 -0.6057
   42CHL1  H27C 3108   6.058   4.567   3.484  0.4388 -1.3920  1.3648
   43CHL1    C3 3109   2.627   5.710   2.388  0.1722 -1.0434 -0.0053
   43CHL1    H3 3110   2.710   5.756   2.445 -0.4626 -3.0238  2.7229
   43CHL1    O3 3111   2.668   5.685   2.256 -0.2102  0.4618  0.3682
   43CHL1   H3' 3112   2.732   5.616   2.273  0.3455  1.2676  1.6476
   43CHL1    C4 3113   2.569   5.582   2.444  0.6041 -0.6827  0.4645
   43CHL1   H4A 3114   2.488   5.560   2.371  0.9655  0.8309 -0.4383
   43CHL1   H4B 3115   2.648   5.504   2.441  1.9482  0.5817  1.8030
   43CHL1    C5 3116   2.525   5.599   2.590 -0.0030 -0.9009  0.0695
   43CHL1    C6 3117   2.579   5.535   2.696 -0.5912  0.8612 -0.0367
   43CHL1    H6 3118   2.665   5.470   2.677 -1.0446 -0.2547  1.4557
   43CHL1    C7 3119   2.556   5.570   2.837 -0.6066 -0.7648 -0.4718
   43CHL1   H7A 3120   2.554   5.485   2.909 -2.6435  0.8355  1.5552
   43CHL1   H7B 3121   2.640   5.627   2.882 -0.6728 -0.9522 -0.1051
   43CHL1    C8 3122   2.421   5.637   2.864 -0.1547 -0.1376  0.0968
   43CHL1    H8 3123   2.336   5.566   2.860  1.3802 -2.1790  1.7377
   43CHL1   C14 3124   2.431   5.701   3.002  0.1341 -0.1392 -0.1425
   43CHL1   H14 3125   2.504   5.784   2.990  1.4669 -1.3148 -0.3507
   43CHL1   C15 3126   2.464   5.619   3.130  0.2087  0.5675 -0.1971
   43CHL1  H15A 3127   2.400   5.529   3.144  0.1673  0.5013 -0.8225
   43CHL1  H15B 3128   2.561   5.566   3.120 -0.5509 -0.8957 -0.0456
   43CHL1   C16 3129   2.434   5.719   3.250 -0.1990 -0.1002 -0.0656
   43CHL1  H16A 3130   2.400   5.665   3.341 -3.0761  2.4676  0.5524
   43CHL1  H16B 3131   2.530   5.768   3.277  0.0576  0.6088 -2.0807
   43CHL1   C17 3132   2.345   5.834   3.190  0.2933  0.1253  0.1624
   43CHL1   H17 3133   2.419   5.915   3.176 -0.2292  0.7265  0.7867
   43CHL1   C13 3134   2.308   5.789   3.044 -0.5261  0.0270  0.3521
   43CHL1   C18 3135   2.179   5.700   3.049 -0.5231 -0.6096 -0.3912
   43CHL1  H18A 3136   2.152   5.671   2.946  0.7685 -2.8160 -0.1631
   43CHL1  H18B 3137   2.206   5.610   3.109  0.0170 -0.0037  0.3038
   43CHL1  H18C 3138   2.085   5.753   3.074 -0.1695  0.7174 -1.7536
   43CHL1   C12 3139   2.287   5.896   2.935 -0.3865 -0.2389  0.0649
   43CHL1  H12A 3140   2.197   5.959   2.951 -0.8748  0.4011 -4.1963
   43CHL1  H12B 3141   2.375   5.964   2.941 -0.4764 -0.0870 -0.3430
   43CHL1   C11 3142   2.283   5.847   2.792  0.1933  0.4120 -0.0488
   43CHL1  H11A 3143   2.188   5.792   2.778 -0.1714  1.5107 -2.2484
   43CHL1  H11B 3144   2.285   5.937   2.727 -0.5322  0.0605 -0.5680
   43CHL1    C9 3145   2.402   5.755   2.763  0.0829 -0.2971 -0.3040
   43CHL1    H9 3146   2.492   5.814   2.787  1.3573 -1.1701 -2.5983
   43CHL1   C10 3147   2.420   5.709   2.610 -0.1364  0.0654 -0.0057
   43CHL1   C19 3148   2.286   5.663   2.554  0.3164  0.3800  0.4906
   43CHL1  H19A 3149   2.255   5.573   2.612 -0.9507 -1.2253 -2.4749
   43CHL1  H19B 3150   2.204   5.736   2.539 -0.2314 -0.4099 -0.4786
   43CHL1  H19C 3151   2.298   5.627   2.450 -2.6562  0.0834  0.1501
   43CHL1    C1 3152   2.455   5.838   2.533 -0.0983  0.7552  0.2185
   43CHL1   H1A 3153   2.369   5.908   2.526  0.0028  0.8616  0.0266
   43CHL1   H1B 3154   2.527   5.903   2.588 -1.0945  0.0955  2.4155
   43CHL1    C2 3155   2.507   5.821   2.389 -0.1620  0.1857 -0.2772
   43CHL1   H2A 3156   2.562   5.914   2.364  0.2029 -0.0922 -0.5239
   43CHL1   H2B 3157   2.428   5.806   2.313 -1.7083  3.1705  0.5754
   43CHL1   C20 3158   2.240   5.881   3.281  0.5352  1.0274 -0.3414
   43CHL1   H20 3159   2.153   5.813   3.295 -0.1012  1.3293 -2.4489
   43CHL1   C21 3160   2.189   6.015   3.225 -0.5702 -1.2277 -0.1627
   43CHL1  H21A 3161   2.109   5.993   3.151 -0.8749  3.8535 -1.7258
   43CHL1  H21B 3162   2.262   6.064   3.157 -0.7588 -0.4158  0.2036
   43CHL1  H21C 3163   2.148   6.093   3.293  0.5141 -1.2298  0.5189
   43CHL1   C22 3164   2.298   5.901   3.426 -0.9238  0.1634 -0.2849
   43CHL1  H22A 3165   2.296   5.797   3.464 -3.0135  0.0125 -0.7098
   43CHL1  H22B 3166   2.403   5.936   3.428 -0.8401 -0.0926 -0.0604
   43CHL1   C23 3167   2.218   5.993   3.524 -0.0955 -0.3973 -0.2432
   43CHL1  H23A 3168   2.240   6.101   3.519  0.8832 -0.6002 -0.4864
   43CHL1  H23B 3169   2.110   5.993   3.500  0.1059  1.8533 -1.4274
   43CHL1   C24 3170   2.246   5.972   3.672  1.1400  0.1367  0.5500
   43CHL1  H24A 3171   2.284   5.869   3.688  1.1892  0.0935  0.1644
   43CHL1  H24B 3172   2.323   6.048   3.697 -0.0186  1.0713  1.4006
   43CHL1   C25 3173   2.120   6.002   3.757 -0.1289  0.1912 -0.3763
   43CHL1   H25 3174   2.080   6.097   3.718 -1.9485 -0.8868 -1.2724
   43CHL1   C26 3175   2.014   5.887   3.734  0.2700 -0.0964  0.0115
   43CHL1  H26A 3176   1.998   5.867   3.625 -1.6546 -0.4763  0.3229
   43CHL1  H26B 3177   2.062   5.797   3.777  0.7924  0.0627 -0.2342
   43CHL1  H26C 3178   1.913   5.912   3.773 -0.9359 -0.9533 -2.3450
   43CHL1   C27 3179   2.164   6.011   3.905 -0.4277 -0.2962 -0.1401
   43CHL1  H27A 3180   2.176   5.908   3.942  3.8266  0.3695  0.8980
   43CHL1  H27B 3181   2.254   6.072   3.929 -1.6901  1.7563 -0.3664
   43CHL1  H27C 3182   2.080   6.056   3.963  0.4618 -0.4364  1.3153
   44CHL1    C3 3183   5.723   5.600   2.460 -0.0137 -0.2496 -0.0132
   44CHL1    H3 3184   5.675   5.695   2.491  1.0470  1.2716 -2.7430
   44CHL1    O3 3185   5.757   5.600   2.321 -0.2558  0.0008 -0.0033
   44CHL1   H3' 3186   5.753   5.509   2.289 -0.8606  0.3092 -0.8447
   44CHL1    C4 3187   5.850   5.572   2.532 -0.0439  0.1736 -0.8175
   44CHL1   H4A 3188   5.906   5.481   2.501  0.1451 -0.5915  1.5657
   44CHL1   H4B 3189   5.919   5.657   2.516  0.6841  0.0584  1.4146
   44CHL1    C5 3190   5.830   5.560   2.684  0.0960  0.3629 -0.4255
   44CHL1    C6 3191   5.901   5.647   2.770 -0.4118 -0.0713  0.5627
   44CHL1    H6 3192   5.967   5.721   2.723 -2.1595  0.2178 -1.5786
   44CHL1    C7 3193   5.901   5.639   2.918 -0.8178 -0.0780  0.2585
   44CHL1   H7A 3194   6.005   5.639   2.957 -0.0931 -3.2919 -1.3820
   44CHL1   H7B 3195   5.864   5.733   2.964  0.8186  1.4746 -1.4271
   44CHL1    C8 3196   5.824   5.514   2.965  0.8997  0.6101 -0.3384
   44CHL1    H8 3197   5.898   5.431   2.967  0.9343  0.6241 -0.8365
   44CHL1   C14 3198   5.777   5.544   3.103  0.1733  0.1207  0.9930
   44CHL1   H14 3199   5.709   5.632   3.097 -1.6317 -1.3110 -2.2155
   44CHL1   C15 3200   5.883   5.587   3.205 -0.4111 -1.2397 -0.0025
   44CHL1  H15A 3201   5.976   5.526   3.200  1.4695  1.3869  0.4961
   44CHL1  H15B 3202   5.909   5.694   3.194 -0.7127 -1.2645 -0.9736
   44CHL1   C16 3203   5.820   5.565   3.345 -0.8247 -0.3562  0.4140
   44CHL1  H16A 3204   5.895   5.495   3.387  0.6047 -0.8900 -2.7332
   44CHL1  H16B 3205   5.814   5.661   3.400  1.7422  1.8029 -2.7274
   44CHL1   C17 3206   5.684   5.493   3.313 -0.8516 -0.4983 -0.4880
   44CHL1   H17 3207   5.611   5.574   3.296  0.0806 -0.0131 -2.4817
   44CHL1   C13 3208   5.697   5.429   3.170 -0.5678  0.5079 -0.0123
   44CHL1   C18 3209   5.793   5.297   3.181  0.3096 -0.6651  0.6452
   44CHL1  H18A 3210   5.734   5.214   3.227  0.5769  0.7851  3.8643
   44CHL1  H18B 3211   5.826   5.260   3.082 -0.0345  1.0751 -0.1563
   44CHL1  H18C 3212   5.881   5.318   3.246 -0.2938  1.2841  0.8892
   44CHL1   C12 3213   5.567   5.391   3.097  0.0195  0.1827 -0.0302
   44CHL1  H12A 3214   5.508   5.306   3.136 -1.6106  0.6552 -1.3272
   44CHL1  H12B 3215   5.503   5.482   3.097  0.6492  0.7287  2.8412
   44CHL1   C11 3216   5.606   5.367   2.946  0.0446 -0.7822 -0.2850
   44CHL1  H11A 3217   5.653   5.266   2.941 -0.0051 -0.7602 -1.4128
   44CHL1  H11B 3218   5.507   5.353   2.898 -0.3125 -0.7958  0.4370
   44CHL1    C9 3219   5.695   5.481   2.877  0.4323 -0.1631 -0.5883
   44CHL1    H9 3220   5.634   5.574   2.875  0.8960  0.1741  0.3074
   44CHL1   C10 3221   5.728   5.455   2.730 -0.4066  0.0234 -0.0927
   44CHL1   C19 3222   5.787   5.313   2.711  0.4838 -0.8396  0.1792
   44CHL1  H19A 3223   5.699   5.246   2.698 -0.8349  1.2618 -2.4960
   44CHL1  H19B 3224   5.838   5.308   2.613  1.3412  1.2115  0.4816
   44CHL1  H19C 3225   5.856   5.282   2.792  1.2361  0.4240  0.0372
   44CHL1    C1 3226   5.609   5.463   2.638 -0.4202  0.3665 -0.6103
   44CHL1   H1A 3227   5.542   5.379   2.665  0.7391 -1.1391 -2.2189
   44CHL1   H1B 3228   5.545   5.544   2.680  1.3078  0.3246  2.4512
   44CHL1    C2 3229   5.628   5.479   2.492  0.0993 -0.2600  0.7023
   44CHL1   H2A 3230   5.533   5.487   2.436 -1.6133 -0.4167  3.3743
   44CHL1   H2B 3231   5.675   5.384   2.458 -0.3298 -0.2018 -0.0840
   44CHL1   C20 3232   5.643   5.394   3.429 -0.4617  0.3507 -0.6126
   44CHL1   H20 3233   5.695   5.298   3.409  0.4494  1.1124 -2.0267
   44CHL1   C21 3234   5.489   5.380   3.429  0.1068 -0.2858 -0.1927
   44CHL1  H21A 3235   5.433   5.459   3.483  1.0346  0.7018 -0.6560
   44CHL1  H21B 3236   5.462   5.285   3.482 -1.8314 -0.9282 -2.2174
   44CHL1  H21C 3237   5.442   5.371   3.329 -0.2400 -0.3639 -0.0225
   44CHL1   C22 3238   5.682   5.433   3.575  0.6754 -0.7089  0.6334
   44CHL1  H22A 3239   5.693   5.543   3.582  1.4902 -0.4926 -2.4907
   44CHL1  H22B 3240   5.607   5.408   3.653  0.6145  2.6396  1.7934
   44CHL1   C23 3241   5.798   5.353   3.636 -0.2914 -0.2376 -0.5060
   44CHL1  H23A 3242   5.765   5.247   3.642  0.4460 -0.4409  0.1786
   44CHL1  H23B 3243   5.893   5.359   3.580  0.1905  1.3320  0.3928
   44CHL1   C24 3244   5.833   5.397   3.775  0.5617  0.6825 -0.1430
   44CHL1  H24A 3245   5.854   5.506   3.780  2.6115  0.2790  1.1350
   44CHL1  H24B 3246   5.757   5.378   3.853  0.6271 -0.7004 -0.3970
   44CHL1   C25 3247   5.954   5.334   3.840  0.5934  0.6828 -0.3983
   44CHL1   H25 3248   6.043   5.366   3.781  1.9137 -0.3086  0.9834
   44CHL1   C26 3249   5.964   5.379   3.986 -0.0521  0.1504 -0.2513
   44CHL1  H26A 3250   5.975   5.489   3.993 -2.1294  0.2903  2.1165
   44CHL1  H26B 3251   5.879   5.345   4.048 -0.0131  0.8195  0.1831
   44CHL1  H26C 3252   6.063   5.340   4.019 -0.2407 -1.8357 -1.8216
   44CHL1   C27 3253   5.954   5.177   3.836  0.7543  0.0745 -0.7795
   44CHL1  H27A 3254   5.877   5.138   3.906 -0.0787  0.0288 -1.7027
   44CHL1  H27B 3255   5.938   5.146   3.730 -2.9513  0.2394 -0.4018
   44CHL1  H27C 3256   6.052   5.133   3.865  0.0763 -1.2599 -0.3952
   45CHL1    C3 3257   1.084   5.254   2.203 -0.1835 -0.0989 -0.4465
   45CHL1    H3 3258   1.187   5.235   2.239 -0.6193  1.6918  2.0655
   45CHL1    O3 3259   1.067   5.212   2.072  0.8166  0.4317  0.4353
   45CHL1   H3' 3260   1.066   5.116   2.073  1.5394  0.3977 -0.7144
   45CHL1    C4 3261   0.976   5.180   2.292 -0.0393  0.5420 -0.7019
   45CHL1   H4A 3262   0.878   5.203   2.246 -0.0324 -0.5660 -1.3248
   45CHL1   H4B 3263   0.980   5.069   2.279  1.4443  0.5489 -0.4840
   45CHL1    C5 3264   0.979   5.223   2.435  0.0234 -0.3522 -0.4313
   45CHL1    C6 3265   0.998   5.126   2.527  0.1455  0.6833 -0.6271
   45CHL1    H6 3266   1.018   5.021   2.502  1.1938  0.4875  0.8559
   45CHL1    C7 3267   1.000   5.165   2.674  0.2829  0.0054 -0.2626
   45CHL1   H7A 3268   0.934   5.100   2.735  1.3978 -0.8510  0.0734
   45CHL1   H7B 3269   1.102   5.152   2.716  0.4519 -1.5984 -1.1031
   45CHL1    C8 3270   0.941   5.313   2.702 -0.5031 -0.0785 -0.0905
   45CHL1    H8 3271   0.831   5.306   2.688 -0.6381  0.8118  0.4166
   45CHL1   C14 3272   0.981   5.353   2.846 -0.3827 -0.6469 -1.0524
   45CHL1   H14 3273   1.092   5.350   2.844 -0.2880  1.3150 -0.9058
   45CHL1   C15 3274   0.952   5.259   2.962 -0.4440  1.1895  0.0887
   45CHL1  H15A 3275   0.852   5.219   2.934  0.0904  1.1118 -1.7961
   45CHL1  H15B 3276   1.018   5.171   2.972  0.6276  1.9588 -0.0631
   45CHL1   C16 3277   0.959   5.346   3.092  0.4054  0.4661  0.4790
   45CHL1  H16A 3278   0.855   5.354   3.132  0.5030 -1.8932  1.3570
   45CHL1  H16B 3279   1.026   5.302   3.169 -2.1002 -3.5679  0.6856
   45CHL1   C17 3280   1.005   5.488   3.037  0.0792  0.3419 -0.6278
   45CHL1   H17 3281   1.114   5.484   3.016  0.0859 -0.7540 -0.4238
   45CHL1   C13 3282   0.945   5.494   2.893  0.0795  0.4417  0.1610
   45CHL1   C18 3283   0.789   5.504   2.894  0.2493  0.1845  0.5953
   45CHL1  H18A 3284   0.755   5.610   2.886  0.7141  0.2130 -2.6132
   45CHL1  H18B 3285   0.749   5.453   2.803  0.6361 -1.7081  1.4329
   45CHL1  H18C 3286   0.732   5.462   2.980  2.1153 -0.6820  1.4702
   45CHL1   C12 3287   1.000   5.593   2.796  0.3253 -0.1550 -0.3426
   45CHL1  H12A 3288   0.970   5.697   2.823 -0.8576 -0.5703  0.0113
   45CHL1  H12B 3289   1.111   5.594   2.799  0.3141 -0.4628  0.4251
   45CHL1   C11 3290   0.955   5.551   2.649  0.4193 -0.4277  0.2897
   45CHL1  H11A 3291   0.844   5.556   2.643  0.3172 -2.8650 -1.3623
   45CHL1  H11B 3292   1.000   5.625   2.580  1.6101 -1.6678 -0.3102
   45CHL1    C9 3293   1.000   5.406   2.604 -0.1710 -0.4001 -0.2035
   45CHL1    H9 3294   1.111   5.395   2.613 -0.0579  0.2845 -0.6423
   45CHL1   C10 3295   0.961   5.375   2.458  0.6140  0.3801  0.0291
   45CHL1   C19 3296   0.816   5.415   2.421  0.3192  0.2115 -0.1618
   45CHL1  H19A 3297   0.797   5.523   2.439 -1.0300 -0.2687  1.5757
   45CHL1  H19B 3298   0.785   5.394   2.317  1.0623 -1.8039 -0.0215
   45CHL1  H19C 3299   0.753   5.356   2.491 -0.6121  1.7855  0.3762
   45CHL1    C1 3300   1.051   5.447   2.361 -0.5965 -0.3410  0.1315
   45CHL1   H1A 3301   1.019   5.552   2.378 -1.0484 -0.8389  2.8355
   45CHL1   H1B 3302   1.158   5.448   2.389 -0.4907  3.3030  0.0808
   45CHL1    C2 3303   1.051   5.407   2.210 -0.4065  0.9246  0.0736
   45CHL1   H2A 3304   1.120   5.472   2.153 -0.6992  0.4351 -0.8525
   45CHL1   H2B 3305   0.951   5.417   2.163 -0.2993  1.0313 -0.1290
   45CHL1   C20 3306   0.980   5.609   3.126 -0.7174 -0.0537  0.1794
   45CHL1   H20 3307   0.878   5.643   3.097 -1.0036 -1.2086 -0.2422
   45CHL1   C21 3308   1.099   5.715   3.100  0.4679 -0.8351 -0.8889
   45CHL1  H21A 3309   1.189   5.682   3.157  0.1575 -1.4848 -0.7648
   45CHL1  H21B 3310   1.059   5.813   3.134 -0.3966 -0.4477 -2.8902
   45CHL1  H21C 3311   1.115   5.729   2.991 -0.6777 -1.6970 -1.1812
   45CHL1   C22 3312   0.967   5.566   3.271  0.4608 -0.4893  0.3896
   45CHL1  H22A 3313   0.880   5.498   3.275 -0.4470  0.6655  1.3572
   45CHL1  H22B 3314   1.058   5.513   3.308  1.3640 -0.7178 -2.0080
   45CHL1   C23 3315   0.958   5.684   3.370  0.1185  0.5808 -0.2802
   45CHL1  H23A 3316   1.050   5.747   3.366 -0.9904  2.3576  0.5750
   45CHL1  H23B 3317   0.871   5.745   3.337 -0.3908  0.2000  0.3435
   45CHL1   C24 3318   0.943   5.626   3.508 -0.0142 -0.0512 -0.1369
   45CHL1  H24A 3319   0.848   5.568   3.515  1.2517 -2.0366  1.7209
   45CHL1  H24B 3320   1.026   5.556   3.528 -0.9880 -0.2918  4.1845
   45CHL1   C25 3321   0.936   5.714   3.633 -0.6066 -0.4125 -0.4459
   45CHL1   H25 3322   0.842   5.774   3.636 -2.0154 -2.5699  1.0156
   45CHL1   C26 3323   0.939   5.624   3.755  0.2117  0.4790 -0.1566
   45CHL1  H26A 3324   0.903   5.519   3.747  3.0555 -0.5928 -0.1290
   45CHL1  H26B 3325   1.047   5.600   3.772 -0.1163 -0.9122  0.1269
   45CHL1  H26C 3326   0.895   5.683   3.838  0.7765  1.2573 -0.3953
   45CHL1   C27 3327   1.062   5.806   3.638 -0.6522  0.2356  0.2037
   45CHL1  H27A 3328   1.055   5.866   3.731 -0.7301 -0.5183  0.6938
   45CHL1  H27B 3329   1.153   5.742   3.641 -1.9588 -1.6589  2.2066
   45CHL1  H27C 3330   1.068   5.870   3.547 -0.4834  1.1148  0.8209
   46CHL1    C3 3331   4.515   6.228   2.108  0.0533  0.1823 -1.1411
   46CHL1    H3 3332   4.405   6.233   2.114  0.0528 -1.0828  2.3634
   46CHL1    O3 3333   4.545   6.179   1.979 -0.1589 -0.4069  0.2110
   46CHL1   H3' 3334   4.510   6.243   1.916 -1.6322 -0.5203  0.8724
   46CHL1    C4 3335   4.590   6.360   2.150 -0.2662  0.5266  0.6459
   46CHL1   H4A 3336   4.695   6.328   2.132  0.0824  1.1677  1.4727
   46CHL1   H4B 3337   4.573   6.445   2.079 -0.4039 -0.6242 -0.7482
   46CHL1    C5 3338   4.579   6.403   2.294 -0.0883  0.3680  0.1288
   46CHL1    C6 3339   4.549   6.530   2.319  0.5599  0.1591 -0.6486
   46CHL1    H6 3340   4.531   6.591   2.230 -1.0352 -1.4212 -1.4733
   46CHL1    C7 3341   4.529   6.587   2.458 -0.1574 -0.6212  1.1785
   46CHL1   H7A 3342   4.580   6.685   2.470  1.5256 -1.0825 -1.4480
   46CHL1   H7B 3343   4.424   6.613   2.485  0.6362  3.5163  0.9914
   46CHL1    C8 3344   4.587   6.486   2.567 -0.2375  0.8005  0.3127
   46CHL1    H8 3345   4.698   6.487   2.562 -0.1566  0.5218  1.6736
   46CHL1   C14 3346   4.550   6.526   2.709 -0.6871 -0.2879 -0.4654
   46CHL1   H14 3347   4.440   6.516   2.716 -0.6086 -0.4302  0.8876
   46CHL1   C15 3348   4.564   6.670   2.760  0.4373 -0.9957 -0.3239
   46CHL1  H15A 3349   4.666   6.707   2.736  0.2118 -0.6848 -0.8294
   46CHL1  H15B 3350   4.487   6.739   2.718 -0.1476  0.0315  2.2783
   46CHL1   C16 3351   4.552   6.652   2.916 -0.0351  0.3004  0.3605
   46CHL1  H16A 3352   4.645   6.698   2.956  0.0948 -0.5781  1.0862
   46CHL1  H16B 3353   4.461   6.706   2.951  1.1856  1.9159  1.1886
   46CHL1   C17 3354   4.537   6.495   2.944 -0.4186 -0.3660  0.9576
   46CHL1   H17 3355   4.429   6.472   2.930 -0.2749 -1.4698  1.5414
   46CHL1   C13 3356   4.600   6.430   2.813 -0.8057  0.3565 -0.3753
   46CHL1   C18 3357   4.754   6.433   2.835 -0.4623  0.3419 -0.5236
   46CHL1  H18A 3358   4.809   6.386   2.750 -1.0465  0.2859 -0.8812
   46CHL1  H18B 3359   4.789   6.537   2.852 -2.1584  0.8561  0.0028
   46CHL1  H18C 3360   4.778   6.370   2.923 -2.2009 -1.9511 -1.5728
   46CHL1   C12 3361   4.552   6.289   2.788  0.6838  0.6599  0.5633
   46CHL1  H12A 3362   4.582   6.207   2.857  0.2754 -0.0423 -0.0817
   46CHL1  H12B 3363   4.442   6.303   2.795  0.4739 -0.8065  0.5128
   46CHL1   C11 3364   4.584   6.239   2.639  0.1782 -0.5020  0.2935
   46CHL1  H11A 3365   4.695   6.242   2.640  0.1792 -0.4631  0.8018
   46CHL1  H11B 3366   4.549   6.135   2.626  2.0323 -1.1607  0.2285
   46CHL1    C9 3367   4.543   6.344   2.534  0.6124  0.7012 -0.5297
   46CHL1    H9 3368   4.432   6.352   2.533  0.4421 -1.1795 -0.2525
   46CHL1   C10 3369   4.598   6.294   2.399  0.2086  0.4075  0.5686
   46CHL1   C19 3370   4.754   6.263   2.403 -0.5533 -0.0995 -0.0700
   46CHL1  H19A 3371   4.785   6.193   2.483  0.4369  0.5857  0.1696
   46CHL1  H19B 3372   4.786   6.221   2.306 -2.1663  1.0767 -1.1793
   46CHL1  H19C 3373   4.802   6.363   2.409 -0.6089  0.2157 -3.3570
   46CHL1    C1 3374   4.529   6.159   2.356 -0.0239  0.3554  0.1732
   46CHL1   H1A 3375   4.572   6.084   2.426 -0.7462 -0.7509 -0.5343
   46CHL1   H1B 3376   4.420   6.170   2.374 -0.3689 -0.2588 -1.3365
   46CHL1    C2 3377   4.543   6.111   2.205  0.0489  0.0891 -0.5017
   46CHL1   H2A 3378   4.485   6.024   2.167  1.2066 -1.9976  2.1945
   46CHL1   H2B 3379   4.650   6.088   2.189  0.0647 -0.5367  0.4262
   46CHL1   C20 3380   4.566   6.455   3.090 -0.0287  0.4340 -0.2030
   46CHL1   H20 3381   4.667   6.497   3.109  0.1946 -0.0726 -0.2594
   46CHL1   C21 3382   4.570   6.305   3.110 -0.3193  1.0456 -0.1040
   46CHL1  H21A 3383   4.468   6.265   3.090  0.3020 -0.1692 -0.9482
   46CHL1  H21B 3384   4.605   6.269   3.209 -1.5538  1.0707  0.3614
   46CHL1  H21C 3385   4.645   6.260   3.041 -1.8801  1.0373 -1.8776
   46CHL1   C22 3386   4.465   6.524   3.189 -0.1153 -0.1456 -0.0495
   46CHL1  H22A 3387   4.457   6.630   3.157  0.8277  0.0577  0.3558
   46CHL1  H22B 3388   4.365   6.490   3.154 -0.1187  0.8279 -1.0428
   46CHL1   C23 3389   4.492   6.500   3.336  0.0023  0.2992 -0.0599
   46CHL1  H23A 3390   4.499   6.393   3.365 -0.1190 -0.3552 -2.2478
   46CHL1  H23B 3391   4.592   6.546   3.355 -0.1479  0.6316 -0.0642
   46CHL1   C24 3392   4.388   6.558   3.440  0.2730  0.6549  0.3025
   46CHL1  H24A 3393   4.414   6.535   3.545  0.3022 -1.2380 -0.0855
   46CHL1  H24B 3394   4.383   6.669   3.436  0.5359  0.6838  0.7325
   46CHL1   C25 3395   4.241   6.507   3.419  0.1276  0.3817  0.2893
   46CHL1   H25 3396   4.220   6.523   3.312 -1.1090 -2.5890 -0.0291
   46CHL1   C26 3397   4.243   6.356   3.453 -0.2933 -0.4548  0.4865
   46CHL1  H26A 3398   4.143   6.314   3.478  0.0707 -2.1644 -0.7752
   46CHL1  H26B 3399   4.265   6.285   3.370 -2.3570 -2.2113  1.3365
   46CHL1  H26C 3400   4.306   6.321   3.537 -0.0674  0.1084  0.5533
   46CHL1   C27 3401   4.141   6.591   3.502 -0.5699 -0.4634  0.4678
   46CHL1  H27A 3402   4.046   6.538   3.479  0.4350 -2.2660  0.3116
   46CHL1  H27B 3403   4.162   6.568   3.609  1.3727 -0.4554  0.1254
   46CHL1  H27C 3404   4.143   6.699   3.476  0.9670 -0.8913 -1.3488
   47CHL1    C3 3405   1.609   1.264   2.616 -0.0260 -0.4209  0.8222
   47CHL1    H3 3406   1.565   1.172   2.661  1.5113 -1.7501 -0.2806
   47CHL1    O3 3407   1.641   1.243   2.482 -0.2743  0.3237  0.1196
   47CHL1   H3' 3408   1.647   1.330   2.442 -2.2325  0.5669  0.2832
   47CHL1    C4 3409   1.499   1.375   2.624 -0.1438  0.5611 -0.0243
   47CHL1   H4A 3410   1.547   1.466   2.581  1.5181 -0.2061  0.1152
   47CHL1   H4B 3411   1.411   1.367   2.556 -0.1352 -3.1319  0.2079
   47CHL1    C5 3412   1.465   1.383   2.769  0.9716 -0.1092 -0.7125
   47CHL1    C6 3413   1.335   1.371   2.813 -0.2836  0.3994 -0.3314
   47CHL1    H6 3414   1.256   1.357   2.738  1.4596  2.1050 -2.6411
   47CHL1    C7 3415   1.290   1.394   2.956  0.2470 -0.0752 -0.2475
   47CHL1   H7A 3416   1.187   1.436   2.954 -0.1374 -0.9979 -0.0263
   47CHL1   H7B 3417   1.284   1.290   2.995 -0.4217 -0.1541 -0.5459
   47CHL1    C8 3418   1.393   1.462   3.043 -0.0191 -0.7112 -0.1946
   47CHL1    H8 3419   1.393   1.573   3.039 -1.2472 -0.6676  0.5537
   47CHL1   C14 3420   1.351   1.430   3.190  0.5269 -0.0988  0.4141
   47CHL1   H14 3421   1.350   1.320   3.203  1.1851 -0.3542 -1.4461
   47CHL1   C15 3422   1.215   1.476   3.239 -0.0060  0.5370  0.5506
   47CHL1  H15A 3423   1.196   1.584   3.224  0.9590  0.5867 -0.4499
   47CHL1  H15B 3424   1.137   1.415   3.188  1.6402  0.4708 -2.1254
   47CHL1   C16 3425   1.231   1.452   3.388  0.0050  0.3727  0.3877
   47CHL1  H16A 3426   1.179   1.528   3.450  0.8114  2.1361 -0.9876
   47CHL1  H16B 3427   1.185   1.356   3.418  1.3342 -1.1458 -2.0478
   47CHL1   C17 3428   1.384   1.439   3.422 -0.5294 -0.5621 -0.2575
   47CHL1   H17 3429   1.408   1.331   3.432 -2.0369 -0.8522  0.5913
   47CHL1   C13 3430   1.456   1.484   3.296  0.3189  0.2360  0.1201
   47CHL1   C18 3431   1.473   1.641   3.297  0.1810 -0.1503  0.0430
   47CHL1  H18A 3432   1.395   1.699   3.350  1.1010 -1.1116  2.6065
   47CHL1  H18B 3433   1.569   1.666   3.347 -0.0202  1.2531 -0.2529
   47CHL1  H18C 3434   1.483   1.679   3.193  0.4726 -2.2259 -0.7564
   47CHL1   C12 3435   1.581   1.406   3.261  0.3631 -0.1338  0.4565
   47CHL1  H12A 3436   1.664   1.407   3.335 -0.4751  0.2181  1.4014
   47CHL1  H12B 3437   1.555   1.299   3.247 -1.5018  0.5656 -2.1816
   47CHL1   C11 3438   1.639   1.451   3.117  0.3580 -0.0145  0.2280
   47CHL1  H11A 3439   1.656   1.560   3.107 -1.3565  0.2544  0.0524
   47CHL1  H11B 3440   1.734   1.393   3.108 -0.2001 -0.7044 -1.7382
   47CHL1    C9 3441   1.530   1.404   3.019 -0.6649  0.0874  0.6001
   47CHL1    H9 3442   1.531   1.295   3.041  3.3669  0.1889  1.5816
   47CHL1   C10 3443   1.580   1.416   2.871  0.9774 -0.1432 -0.4283
   47CHL1   C19 3444   1.616   1.557   2.841 -0.2307 -0.2480 -0.4583
   47CHL1  H19A 3445   1.543   1.633   2.876  2.0044  1.6629  0.3773
   47CHL1  H19B 3446   1.703   1.593   2.900 -0.6831 -0.6067  0.4480
   47CHL1  H19C 3447   1.630   1.580   2.733  0.6628  3.2158  0.2590
   47CHL1    C1 3448   1.689   1.313   2.849  0.4039 -0.1803  0.1920
   47CHL1   H1A 3449   1.783   1.329   2.906  1.9562 -2.5605 -1.5196
   47CHL1   H1B 3450   1.657   1.214   2.886  0.9094 -0.2752  0.3872
   47CHL1    C2 3451   1.734   1.304   2.699  0.0415 -0.2899 -0.2971
   47CHL1   H2A 3452   1.805   1.220   2.682  0.2735 -0.5048  1.5475
   47CHL1   H2B 3453   1.779   1.394   2.652 -0.6355 -1.2106 -2.8605
   47CHL1   C20 3454   1.423   1.514   3.550  0.0579 -0.0327 -0.3107
   47CHL1   H20 3455   1.414   1.621   3.523  2.7069  0.7185  1.3571
   47CHL1   C21 3456   1.573   1.485   3.586  0.0214  0.1165  1.0773
   47CHL1  H21A 3457   1.619   1.533   3.497 -3.1112 -0.2940 -0.9100
   47CHL1  H21B 3458   1.583   1.374   3.587  1.6118  0.2363  1.4347
   47CHL1  H21C 3459   1.605   1.523   3.685 -0.5913  0.2257  1.2368
   47CHL1   C22 3460   1.344   1.483   3.681  0.1835  0.1874  0.7127
   47CHL1  H22A 3461   1.408   1.516   3.765  2.4435 -2.5689  0.1950
   47CHL1  H22B 3462   1.253   1.546   3.671  0.4289  0.1535 -3.2390
   47CHL1   C23 3463   1.304   1.338   3.708 -0.5291  0.5522 -0.3878
   47CHL1  H23A 3464   1.240   1.299   3.626 -1.8757  0.3219  0.7361
   47CHL1  H23B 3465   1.396   1.281   3.730 -0.7175  0.7887  1.1415
   47CHL1   C24 3466   1.201   1.323   3.823  0.4220 -0.1720 -0.6124
   47CHL1  H24A 3467   1.246   1.352   3.920  0.2993 -2.3615  0.1458
   47CHL1  H24B 3468   1.107   1.377   3.801 -0.7710 -1.7383  0.4773
   47CHL1   C25 3469   1.157   1.181   3.839 -0.3101 -0.8611 -0.5026
   47CHL1   H25 3470   1.157   1.132   3.739 -0.8077  0.7250 -1.3101
   47CHL1   C26 3471   1.245   1.105   3.938 -0.0438  0.1428 -0.4893
   47CHL1  H26A 3472   1.219   0.998   3.946 -1.3912  0.5645  1.5392
   47CHL1  H26B 3473   1.353   1.096   3.914 -0.0648 -1.4327 -0.0460
   47CHL1  H26C 3474   1.244   1.155   4.037  0.6484  1.8269 -1.2786
   47CHL1   C27 3475   1.010   1.179   3.890 -0.0033  0.0591  0.0250
   47CHL1  H27A 3476   0.963   1.081   3.909 -1.7786  0.6311 -1.1704
   47CHL1  H27B 3477   0.987   1.241   3.979 -3.2165 -0.8486 -0.0619
   47CHL1  H27C 3478   0.944   1.219   3.810  1.0125 -0.2468 -0.9842
   48CHL1    C3 3479   6.357   2.239   2.574 -0.1449  0.2721 -0.6638
   48CHL1    H3 3480   6.269   2.302   2.550  1.1540  2.1222 -0.8709
   48CHL1    O3 3481   6.426   2.205   2.452  0.1749  0.4286 -0.1183
   48CHL1   H3' 3482   6.404   2.116   2.423 -0.8708  1.4052 -2.5725
   48CHL1    C4 3483   6.454   2.329   2.653  0.4520 -0.3990 -0.0537
   48CHL1   H4A 3484   6.551   2.274   2.658  0.9858  0.6554  2.8183
   48CHL1   H4B 3485   6.469   2.425   2.599 -0.5522 -0.0018  0.3585
   48CHL1    C5 3486   6.408   2.361   2.792 -0.9808  0.4928 -0.0280
   48CHL1    C6 3487   6.393   2.493   2.827  0.3087  0.0373 -0.6616
   48CHL1    H6 3488   6.419   2.575   2.758 -0.0689  0.6514 -0.0795
   48CHL1    C7 3489   6.366   2.537   2.968  0.6587 -0.0037 -0.3196
   48CHL1   H7A 3490   6.443   2.608   3.005  1.1750 -0.1108 -1.1714
   48CHL1   H7B 3491   6.272   2.593   2.988 -0.2349 -1.2008 -1.0195
   48CHL1    C8 3492   6.360   2.417   3.068  0.1349  0.0257 -0.1489
   48CHL1    H8 3493   6.464   2.391   3.097 -0.5179 -1.1309  1.2790
   48CHL1   C14 3494   6.286   2.461   3.195 -0.1376 -0.0783 -0.3243
   48CHL1   H14 3495   6.179   2.466   3.167 -1.5170 -0.1329  4.0870
   48CHL1   C15 3496   6.320   2.592   3.264 -0.4493 -0.3406  0.4337
   48CHL1  H15A 3497   6.427   2.591   3.291 -1.2241  0.4872  4.1053
   48CHL1  H15B 3498   6.283   2.682   3.210 -1.3077 -1.3774 -0.7562
   48CHL1   C16 3499   6.251   2.579   3.399 -0.0836  0.0827 -0.3885
   48CHL1  H16A 3500   6.336   2.602   3.467  0.0550  0.6003 -0.7289
   48CHL1  H16B 3501   6.172   2.656   3.413 -0.7959 -0.4694 -1.2473
   48CHL1   C17 3502   6.202   2.435   3.416  0.3616  0.3883 -0.3616
   48CHL1   H17 3503   6.095   2.427   3.386  0.6532 -1.2133 -1.0759
   48CHL1   C13 3504   6.279   2.355   3.304 -0.4185 -0.5896 -0.4668
   48CHL1   C18 3505   6.418   2.315   3.361 -0.3722 -0.0567 -0.1964
   48CHL1  H18A 3506   6.480   2.282   3.275 -1.1662 -0.3999 -0.6527
   48CHL1  H18B 3507   6.470   2.405   3.401 -1.7245  0.4866  0.3941
   48CHL1  H18C 3508   6.416   2.231   3.434 -0.0555  0.0487 -0.0635
   48CHL1   C12 3509   6.203   2.237   3.246  0.6227  0.2744 -0.0770
   48CHL1  H12A 3510   6.191   2.154   3.318 -0.5890 -0.8117 -1.4641
   48CHL1  H12B 3511   6.102   2.257   3.202  1.6281  0.7600 -2.3421
   48CHL1   C11 3512   6.281   2.186   3.118  0.0721 -0.1806 -0.3280
   48CHL1  H11A 3513   6.381   2.150   3.151  0.5422  0.6050 -0.8547
   48CHL1  H11B 3514   6.229   2.094   3.084 -1.0470  0.5116 -0.5557
   48CHL1    C9 3515   6.296   2.289   3.007 -0.0150  0.5057  0.2998
   48CHL1    H9 3516   6.194   2.321   2.975 -0.5192 -1.3874 -0.0565
   48CHL1   C10 3517   6.370   2.240   2.879 -0.1273  0.0621  0.0120
   48CHL1   C19 3518   6.488   2.158   2.923  0.1630  0.2898 -0.1055
   48CHL1  H19A 3519   6.538   2.212   3.006 -0.2661  0.6741 -0.0907
   48CHL1  H19B 3520   6.458   2.056   2.955  3.0056  0.0244  2.0833
   48CHL1  H19C 3521   6.572   2.156   2.850 -0.2119  1.4214 -0.5970
   48CHL1    C1 3522   6.275   2.152   2.796  0.0294  0.1920 -0.0274
   48CHL1   H1A 3523   6.247   2.063   2.857  0.2361  1.0188  1.3272
   48CHL1   H1B 3524   6.179   2.204   2.775 -1.1594 -1.9690 -0.2365
   48CHL1    C2 3525   6.327   2.112   2.661  0.2655  1.4185 -0.1611
   48CHL1   H2A 3526   6.253   2.051   2.605  0.1099  1.2689  0.2009
   48CHL1   H2B 3527   6.419   2.052   2.667 -1.1258 -0.8914 -0.7115
   48CHL1   C20 3528   6.215   2.392   3.567  0.1943  0.6662  0.2501
   48CHL1   H20 3529   6.321   2.397   3.598 -0.1165 -2.3919  2.1818
   48CHL1   C21 3530   6.158   2.253   3.590 -0.3350  0.6926  0.5184
   48CHL1  H21A 3531   6.181   2.226   3.695  0.7687  0.9689  0.3602
   48CHL1  H21B 3532   6.205   2.185   3.517 -0.5131  0.8484  0.2587
   48CHL1  H21C 3533   6.049   2.234   3.577  0.2868 -2.5133 -0.8330
   48CHL1   C22 3534   6.146   2.487   3.661  0.2687  0.5270 -0.3050
   48CHL1  H22A 3535   6.152   2.445   3.764 -0.5427  1.2784  0.0642
   48CHL1  H22B 3536   6.196   2.586   3.666 -0.2002  0.7719 -0.3649
   48CHL1   C23 3537   5.996   2.496   3.642  0.3774 -0.5520 -0.4616
   48CHL1  H23A 3538   5.986   2.544   3.542  0.2876 -0.9432 -0.6459
   48CHL1  H23B 3539   5.948   2.396   3.649 -0.1683 -0.3469 -1.1634
   48CHL1   C24 3540   5.932   2.593   3.741 -0.2737 -0.5741 -0.1968
   48CHL1  H24A 3541   5.965   2.567   3.844  0.7938  1.6111  0.0766
   48CHL1  H24B 3542   5.969   2.696   3.721 -0.9862 -0.2163  0.2810
   48CHL1   C25 3543   5.776   2.601   3.743  0.4302 -1.3651 -0.3798
   48CHL1   H25 3544   5.747   2.627   3.639 -0.1648  0.6356  0.2436
   48CHL1   C26 3545   5.709   2.468   3.773  0.3153 -0.1720  0.5903
   48CHL1  H26A 3546   5.739   2.390   3.700 -0.3064 -0.1879  0.3496
   48CHL1  H26B 3547   5.748   2.433   3.872 -0.9814 -1.5040  0.6569
   48CHL1  H26C 3548   5.599   2.481   3.779  0.3734  1.5734 -1.3359
   48CHL1   C27 3549   5.721   2.716   3.829 -0.9777  0.0681  0.2622
   48CHL1  H27A 3550   5.750   2.802   3.765 -1.2620 -1.0000 -1.3432
   48CHL1  H27B 3551   5.611   2.717   3.847 -1.1396  0.4414 -0.7174
   48CHL1  H27C 3552   5.774   2.733   3.925 -1.7048 -0.0397  0.6849
   49CHL1    C3 3553   0.945   6.432   2.399  0.6004 -0.4993  0.3651
   49CHL1    H3 3554   1.046   6.429   2.445  1.9593  0.4084 -2.3392
   49CHL1    O3 3555   0.955   6.482   2.269  0.9759 -0.3889  0.3923
   49CHL1   H3' 3556   0.876   6.453   2.222  0.0285  2.6018 -0.1092
   49CHL1    C4 3557   0.874   6.295   2.387 -0.2553  0.3930 -0.1538
   49CHL1   H4A 3558   0.772   6.307   2.344 -0.5500  1.7854  0.8574
   49CHL1   H4B 3559   0.934   6.227   2.324 -1.3829 -0.5569 -0.2326
   49CHL1    C5 3560   0.858   6.227   2.520 -0.1109  0.4085 -0.3223
   49CHL1    C6 3561   0.902   6.100   2.546 -0.0606 -1.2096 -0.0054
   49CHL1    H6 3562   0.950   6.044   2.464  1.5589  1.6981 -1.1964
   49CHL1    C7 3563   0.868   6.039   2.675  0.7175  0.3091  0.2990
   49CHL1   H7A 3564   0.840   5.932   2.673  1.7762  0.0255 -0.5029
   49CHL1   H7B 3565   0.956   6.047   2.742  0.9278  2.6094 -0.1492
   49CHL1    C8 3566   0.762   6.119   2.758 -0.1127 -0.6341  0.2372
   49CHL1    H8 3567   0.663   6.106   2.709  0.5876  0.1631 -1.4267
   49CHL1   C14 3568   0.749   6.068   2.902  0.2485  0.0586  0.4725
   49CHL1   H14 3569   0.843   6.101   2.950 -0.4717 -0.3319  2.2325
   49CHL1   C15 3570   0.750   5.918   2.925 -0.3793  0.2593 -0.2014
   49CHL1  H15A 3571   0.688   5.867   2.848 -2.4338  0.5934  1.1501
   49CHL1  H15B 3572   0.859   5.897   2.933 -0.3789  0.5728  0.8653
   49CHL1   C16 3573   0.693   5.908   3.065  0.3090 -0.0931 -0.2557
   49CHL1  H16A 3574   0.601   5.846   3.067 -0.2259  0.6881  0.2983
   49CHL1  H16B 3575   0.765   5.860   3.134 -2.6531 -0.5205  2.7852
   49CHL1   C17 3576   0.666   6.051   3.116  0.6130  0.3751 -0.1925
   49CHL1   H17 3577   0.760   6.091   3.160  1.0998 -0.1572 -0.7273
   49CHL1   C13 3578   0.648   6.137   2.991  0.0233  0.8267  0.3489
   49CHL1   C18 3579   0.506   6.117   2.938 -0.1006  0.6592  0.1393
   49CHL1  H18A 3580   0.474   6.163   2.842 -1.0531  1.5378  0.8516
   49CHL1  H18B 3581   0.487   6.009   2.921 -0.9365  0.9435 -0.8477
   49CHL1  H18C 3582   0.433   6.173   3.001  0.0675 -0.6942  1.6153
   49CHL1   C12 3583   0.698   6.286   2.998  0.3373  0.2540 -0.1485
   49CHL1  H12A 3584   0.628   6.350   3.056  1.0859  0.9998 -0.0593
   49CHL1  H12B 3585   0.800   6.302   3.040 -0.2021  2.5965  0.4027
   49CHL1   C11 3586   0.703   6.349   2.858  0.4223  0.6979  0.2137
   49CHL1  H11A 3587   0.598   6.357   2.820  0.7735 -1.8310 -1.5093
   49CHL1  H11B 3588   0.740   6.453   2.873 -1.4844  1.2494  1.5201
   49CHL1    C9 3589   0.787   6.267   2.760  0.2473 -0.1748  0.6488
   49CHL1    H9 3590   0.888   6.288   2.802 -0.8013  3.8240  1.5669
   49CHL1   C10 3591   0.772   6.322   2.613 -0.4938 -0.9264 -0.7781
   49CHL1   C19 3592   0.624   6.330   2.559  0.2689 -0.1513 -0.2014
   49CHL1  H19A 3593   0.620   6.379   2.459 -0.3473  2.2542  0.9206
   49CHL1  H19B 3594   0.582   6.227   2.550  1.0528 -1.3141  5.4926
   49CHL1  H19C 3595   0.548   6.384   2.620 -0.7330  1.1302 -2.4789
   49CHL1    C1 3596   0.832   6.465   2.618  0.0043  0.1162  0.5967
   49CHL1   H1A 3597   0.760   6.528   2.673 -0.1571  1.5577 -1.1823
   49CHL1   H1B 3598   0.931   6.453   2.669 -0.6504 -0.1436  1.8515
   49CHL1    C2 3599   0.863   6.525   2.481 -0.5716 -0.3916  0.6215
   49CHL1   H2A 3600   0.907   6.627   2.490  1.1639 -0.8313 -1.6850
   49CHL1   H2B 3601   0.770   6.545   2.423 -0.4161  0.8932  0.7804
   49CHL1   C20 3602   0.556   6.059   3.228 -0.6579 -0.3572  0.7578
   49CHL1   H20 3603   0.462   6.016   3.187  0.3081 -1.0532 -0.8298
   49CHL1   C21 3604   0.527   6.202   3.276 -0.4727  0.3740 -0.5664
   49CHL1  H21A 3605   0.617   6.246   3.323 -2.5826  3.9116  0.4945
   49CHL1  H21B 3606   0.437   6.209   3.341 -0.6715 -1.1210 -0.6335
   49CHL1  H21C 3607   0.510   6.265   3.186  4.4755  2.6834 -0.1830
   49CHL1   C22 3608   0.607   5.986   3.351  0.4568  0.6043  0.0170
   49CHL1  H22A 3609   0.683   5.908   3.333  0.9029  1.4639 -2.1775
   49CHL1  H22B 3610   0.667   6.046   3.423  0.8919  2.4774 -1.7967
   49CHL1   C23 3611   0.489   5.922   3.427  0.1868  0.5975  0.6128
   49CHL1  H23A 3612   0.428   6.010   3.455 -0.9654  0.1729 -0.4545
   49CHL1  H23B 3613   0.435   5.856   3.356  1.9994  0.1884 -0.4616
   49CHL1   C24 3614   0.520   5.824   3.544 -0.1887 -0.1247  1.2393
   49CHL1  H24A 3615   0.599   5.749   3.526 -0.7391 -1.1965  3.0866
   49CHL1  H24B 3616   0.565   5.883   3.627  0.4409  0.8961  0.1989
   49CHL1   C25 3617   0.396   5.752   3.598 -0.1966 -0.1464  0.5145
   49CHL1   H25 3618   0.327   5.825   3.645 -0.0001  1.1053 -1.0783
   49CHL1   C26 3619   0.327   5.662   3.494  0.9138  0.6213 -0.1645
   49CHL1  H26A 3620   0.313   5.706   3.393  0.1522  0.2867 -0.2110
   49CHL1  H26B 3621   0.382   5.567   3.479  1.8402  0.9853  0.7705
   49CHL1  H26C 3622   0.225   5.653   3.536  0.9713  2.9530  0.6155
   49CHL1   C27 3623   0.451   5.669   3.717 -0.3358 -0.3136 -1.1121
   49CHL1  H27A 3624   0.496   5.731   3.798  1.7019 -2.4145 -0.5118
   49CHL1  H27B 3625   0.379   5.599   3.765 -0.2505  0.6033  0.4537
   49CHL1  H27C 3626   0.537   5.603   3.691  0.0553 -0.0686 -0.4854
   50CHL1    C3 3627   4.969   6.722   1.946  0.5732  0.4428  0.3417
   50CHL1    H3 3628   4.986   6.832   1.938  2.2444  0.3146  1.4218
   50CHL1    O3 3629   4.955   6.663   1.819  0.3441  0.0659  0.4731
   50CHL1   H3' 3630   4.911   6.580   1.837  0.2454 -0.2796 -1.1992
   50CHL1    C4 3631   5.093   6.655   2.019 -0.2729 -0.3116 -0.1437
   50CHL1   H4A 3632   5.075   6.546   2.024  0.2441 -0.4836 -1.6219
   50CHL1   H4B 3633   5.181   6.675   1.954  0.4929  0.6936  1.1477
   50CHL1    C5 3634   5.115   6.717   2.148  0.8620 -0.1057 -1.8309
   50CHL1    C6 3635   5.228   6.783   2.179 -0.0934 -0.1984  0.3674
   50CHL1    H6 3636   5.308   6.795   2.104  0.9730 -2.4739  1.0406
   50CHL1    C7 3637   5.255   6.843   2.312  0.5715  0.2451  0.3745
   50CHL1   H7A 3638   5.363   6.831   2.337  1.3729  1.1087 -2.3754
   50CHL1   H7B 3639   5.222   6.948   2.307 -0.7153 -0.2121 -1.6697
   50CHL1    C8 3640   5.164   6.773   2.420  0.0528  0.1143 -0.2099
   50CHL1    H8 3641   5.211   6.672   2.425  1.9439  0.9158 -0.8711
   50CHL1   C14 3642   5.178   6.843   2.561  0.4506  0.7194 -0.1421
   50CHL1   H14 3643   5.127   6.941   2.552 -1.0534  0.0808  1.0008
   50CHL1   C15 3644   5.311   6.871   2.628 -0.3078  0.1803 -0.1956
   50CHL1  H15A 3645   5.368   6.776   2.621  0.4799  0.5000  1.4207
   50CHL1  H15B 3646   5.363   6.957   2.580  2.4863 -0.8049  0.8609
   50CHL1   C16 3647   5.288   6.906   2.775  0.0290 -0.3026  0.4666
   50CHL1  H16A 3648   5.347   6.847   2.848 -1.4406  0.5776  2.4688
   50CHL1  H16B 3649   5.301   7.014   2.798 -0.5360 -0.5710  2.2311
   50CHL1   C17 3650   5.142   6.862   2.796 -0.1897 -0.2647 -0.6676
   50CHL1   H17 3651   5.081   6.955   2.790  0.6458  0.5023  1.7252
   50CHL1   C13 3652   5.098   6.782   2.674 -0.6494  0.4896  0.2707
   50CHL1   C18 3653   5.135   6.627   2.691 -0.3130  0.0853  0.8222
   50CHL1  H18A 3654   5.129   6.576   2.593  0.1253  0.7203  0.4526
   50CHL1  H18B 3655   5.238   6.621   2.733  0.3283  3.8862  0.2325
   50CHL1  H18C 3656   5.050   6.580   2.744 -1.4873  0.5430 -0.6095
   50CHL1   C12 3657   4.952   6.793   2.638  1.1812 -0.1144  0.5179
   50CHL1  H12A 3658   4.880   6.735   2.701  2.1990 -0.3063  1.5424
   50CHL1  H12B 3659   4.922   6.899   2.638 -0.4012 -0.5168  1.6717
   50CHL1   C11 3660   4.917   6.733   2.497 -0.0902  0.3369 -0.0140
   50CHL1  H11A 3661   4.923   6.623   2.513 -2.6050  0.3139  1.2716
   50CHL1  H11B 3662   4.815   6.761   2.462 -0.0579  0.5851  0.0922
   50CHL1    C9 3663   5.017   6.767   2.373 -0.5288 -0.2278 -0.5228
   50CHL1    H9 3664   5.004   6.875   2.350 -0.8924  0.2354  1.7042
   50CHL1   C10 3665   4.994   6.690   2.245  0.6652  0.0524  0.3681
   50CHL1   C19 3666   4.980   6.539   2.277 -0.0179  0.0886 -0.4066
   50CHL1  H19A 3667   4.963   6.478   2.186  3.6633  0.9682 -1.8956
   50CHL1  H19B 3668   5.075   6.505   2.324  0.0705 -1.0734 -1.3844
   50CHL1  H19C 3669   4.898   6.522   2.350  1.1994  0.4507  1.1022
   50CHL1    C1 3670   4.856   6.734   2.181  0.8157 -0.2538  0.8783
   50CHL1   H1A 3671   4.783   6.671   2.237  0.5296  0.1300  0.9394
   50CHL1   H1B 3672   4.839   6.843   2.193  0.1172 -0.3755  1.0674
   50CHL1    C2 3673   4.841   6.697   2.031  0.9680 -0.0775  0.3494
   50CHL1   H2A 3674   4.761   6.747   1.973 -0.3721 -0.8588  1.4538
   50CHL1   H2B 3675   4.813   6.590   2.023  0.9578 -0.1348  1.0348
   50CHL1   C20 3676   5.123   6.804   2.936 -0.2559 -0.0212  0.4636
   50CHL1   H20 3677   5.128   6.693   2.936 -0.2270 -0.0194  0.2424
   50CHL1   C21 3678   4.970   6.835   2.968 -0.5519  0.5109  0.7200
   50CHL1  H21A 3679   4.909   6.767   2.906  0.3508 -0.7198  1.1359
   50CHL1  H21B 3680   4.943   6.943   2.961  0.7878  0.7800 -0.8439
   50CHL1  H21C 3681   4.951   6.802   3.072  1.5170 -0.5169  0.8307
   50CHL1   C22 3682   5.213   6.858   3.058  0.0771 -0.1358  0.4579
   50CHL1  H22A 3683   5.315   6.822   3.031  0.0426  0.7921 -0.9827
   50CHL1  H22B 3684   5.223   6.969   3.054  1.3795 -0.1852  1.4676
   50CHL1   C23 3685   5.177   6.807   3.201  0.0552 -0.2269 -0.1707
   50CHL1  H23A 3686   5.083   6.859   3.229 -0.1741  0.3406 -1.8915
   50CHL1  H23B 3687   5.148   6.699   3.205 -3.1978  0.5344 -0.2414
   50CHL1   C24 3688   5.285   6.838   3.306  0.3280  0.6343 -0.0650
   50CHL1  H24A 3689   5.370   6.774   3.275 -0.1662 -1.3424  2.3602
   50CHL1  H24B 3690   5.323   6.942   3.318  0.7279  0.5066 -0.2139
   50CHL1   C25 3691   5.242   6.785   3.446 -0.0519  0.6518 -0.2854
   50CHL1   H25 3692   5.190   6.689   3.421  0.6049  0.2025  0.0506
   50CHL1   C26 3693   5.374   6.748   3.529 -0.3515 -0.7600  0.2675
   50CHL1  H26A 3694   5.358   6.700   3.628 -1.4171  0.6062  0.7838
   50CHL1  H26B 3695   5.452   6.688   3.477  0.1466 -0.8635  1.1294
   50CHL1  H26C 3696   5.419   6.847   3.549 -2.2395  0.2626 -0.3172
   50CHL1   C27 3697   5.146   6.879   3.510  0.0715  0.0789  0.1855
   50CHL1  H27A 3698   5.191   6.976   3.538 -1.7436  0.5727  1.5602
   50CHL1  H27B 3699   5.062   6.902   3.440 -0.2524 -1.9682 -0.1766
   50CHL1  H27C 3700   5.109   6.829   3.602  0.6883  1.5426  1.2658
   51CHL1    C3 3701   1.159   7.019   2.400  0.1827  0.3115 -0.0675
   51CHL1    H3 3702   1.124   7.121   2.425  1.2836  0.6450  0.1564
   51CHL1    O3 3703   1.200   7.005   2.261 -0.5822 -0.0031 -0.5662
   51CHL1   H3' 3704   1.289   7.040   2.263  0.1431 -1.7671  0.7392
   51CHL1    C4 3705   1.286   6.984   2.493  0.2608 -0.7382 -0.0648
   51CHL1   H4A 3706   1.341   6.894   2.456  1.6627  0.7695 -1.8224
   51CHL1   H4B 3707   1.356   7.069   2.477 -0.7510  0.1548  0.1525
   51CHL1    C5 3708   1.243   6.954   2.634  0.2787  0.7086 -0.1912
   51CHL1    C6 3709   1.315   7.016   2.732  0.2375 -0.1018  0.0752
   51CHL1    H6 3710   1.384   7.096   2.700 -1.3064  1.9127  1.5535
   51CHL1    C7 3711   1.282   7.001   2.880  0.6788  0.4059  0.2557
   51CHL1   H7A 3712   1.377   7.002   2.937  0.6145  2.7480  0.4341
   51CHL1   H7B 3713   1.202   7.068   2.918 -1.3699 -0.9827 -1.4068
   51CHL1    C8 3714   1.209   6.864   2.900  0.1084  0.2033  0.4010
   51CHL1    H8 3715   1.278   6.779   2.882  0.8730  1.2550 -2.2502
   51CHL1   C14 3716   1.158   6.854   3.040  0.4706  0.7697 -0.3199
   51CHL1   H14 3717   1.085   6.938   3.039 -0.3113  0.1279  0.5288
   51CHL1   C15 3718   1.256   6.890   3.154  0.8533  0.5981 -0.3777
   51CHL1  H15A 3719   1.351   6.832   3.150  0.4461 -0.2011  1.1552
   51CHL1  H15B 3720   1.272   7.000   3.159  1.7818  0.4128  1.1517
   51CHL1   C16 3721   1.179   6.847   3.282  0.4117 -0.4000  0.3035
   51CHL1  H16A 3722   1.243   6.778   3.340  1.7274 -0.2138 -0.8892
   51CHL1  H16B 3723   1.153   6.940   3.337  1.8300  0.3773 -0.2975
   51CHL1   C17 3724   1.050   6.773   3.231 -0.8612 -0.0006  0.3414
   51CHL1   H17 3725   0.971   6.850   3.221  0.8801  1.7223 -1.0431
   51CHL1   C13 3726   1.078   6.737   3.082  1.2262  0.1912  0.5565
   51CHL1   C18 3727   1.157   6.598   3.080  0.7105 -0.3134 -0.0113
   51CHL1  H18A 3728   1.101   6.511   3.121  1.9574 -0.5879  1.2385
   51CHL1  H18B 3729   1.197   6.570   2.981 -0.0252  0.1281 -0.4414
   51CHL1  H18C 3730   1.250   6.605   3.141  1.5477  2.0431 -1.4434
   51CHL1   C12 3731   0.951   6.728   2.993 -0.4139  0.5737 -0.1197
   51CHL1  H12A 3732   0.895   6.633   3.008 -0.2569  0.7507  1.8470
   51CHL1  H12B 3733   0.881   6.814   3.002 -1.1673 -0.0486  0.1057
   51CHL1   C11 3734   1.002   6.724   2.846 -0.2056 -0.2727  0.2490
   51CHL1  H11A 3735   1.058   6.632   2.819  1.2781  0.9226 -0.8872
   51CHL1  H11B 3736   0.911   6.724   2.782  0.1552 -0.5732 -0.2721
   51CHL1    C9 3737   1.093   6.844   2.807 -0.3997 -0.3094  0.0246
   51CHL1    H9 3738   1.026   6.932   2.816 -0.3850  0.0158 -2.3892
   51CHL1   C10 3739   1.128   6.851   2.653 -0.0108  0.1112  0.7154
   51CHL1   C19 3740   1.178   6.707   2.605  0.3132 -0.6004  0.3378
   51CHL1  H19A 3741   1.084   6.655   2.579 -0.0675  0.4429 -0.4729
   51CHL1  H19B 3742   1.249   6.707   2.519  0.3005 -1.4430  0.3275
   51CHL1  H19C 3743   1.234   6.659   2.688 -0.5691 -2.0343  0.1238
   51CHL1    C1 3744   1.011   6.904   2.574  0.2436  0.1266 -0.6985
   51CHL1   H1A 3745   0.926   6.834   2.592  1.2310 -1.1794 -0.9899
   51CHL1   H1B 3746   0.979   7.004   2.610  0.9650 -0.2381  1.0513
   51CHL1    C2 3747   1.042   6.917   2.421  0.2025  0.1357  0.0497
   51CHL1   H2A 3748   0.958   6.954   2.358  0.3981 -1.6360 -1.3493
   51CHL1   H2B 3749   1.071   6.821   2.372 -2.4779  0.2935 -2.0821
   51CHL1   C20 3750   0.994   6.671   3.335  0.2919 -0.2433 -0.5171
   51CHL1   H20 3751   1.053   6.577   3.340 -1.0792 -1.2116 -1.6681
   51CHL1   C21 3752   0.859   6.619   3.282  0.7725 -0.1396 -0.7653
   51CHL1  H21A 3753   0.809   6.559   3.361  1.8927  0.3148  0.3073
   51CHL1  H21B 3754   0.858   6.560   3.188 -2.3977 -1.1604 -0.2340
   51CHL1  H21C 3755   0.809   6.717   3.265  3.2852  1.7315  1.7082
   51CHL1   C22 3756   0.980   6.739   3.480 -0.1918 -0.2611  0.5485
   51CHL1  H22A 3757   1.078   6.782   3.510 -1.7459  3.6370  0.6856
   51CHL1  H22B 3758   0.905   6.820   3.469  1.4369  1.2352 -0.1093
   51CHL1   C23 3759   0.946   6.650   3.596  0.2065 -0.6343 -0.3344
   51CHL1  H23A 3760   0.886   6.566   3.554  1.9412 -2.3233  0.4354
   51CHL1  H23B 3761   1.034   6.611   3.651 -0.4550 -0.2569  1.0174
   51CHL1   C24 3762   0.852   6.728   3.695  0.1355 -0.4898 -0.0283
   51CHL1  H24A 3763   0.911   6.814   3.734 -0.2913  0.2845 -1.0402
   51CHL1  H24B 3764   0.777   6.777   3.629  1.7852  1.8430 -0.2649
   51CHL1   C25 3765   0.778   6.637   3.796  0.1165 -0.7865  1.4956
   51CHL1   H25 3766   0.756   6.546   3.737  3.2381 -0.9387  0.3405
   51CHL1   C26 3767   0.859   6.588   3.916  0.2992 -0.1802  0.5020
   51CHL1  H26A 3768   0.915   6.668   3.969 -2.7586  3.0799 -0.7952
   51CHL1  H26B 3769   0.791   6.523   3.975 -0.3340 -0.2870 -0.3224
   51CHL1  H26C 3770   0.941   6.522   3.879 -2.0705 -1.5769 -2.6750
   51CHL1   C27 3771   0.660   6.722   3.838  1.1453 -0.0087  0.0449
   51CHL1  H27A 3772   0.588   6.671   3.906 -1.1127  3.9913  0.9355
   51CHL1  H27B 3773   0.683   6.810   3.901 -3.4518 -0.3185  2.6089
   51CHL1  H27C 3774   0.582   6.752   3.765 -1.9048 -1.1630  2.5947
   52CHL1    C3 3775   6.573   0.492   2.391 -0.1182  0.0498  0.0760
   52CHL1    H3 3776   6.649   0.430   2.442 -1.1527  1.7628  4.1179
   52CHL1    O3 3777   6.585   0.482   2.248  0.0810 -0.0459 -0.0772
   52CHL1   H3' 3778   6.533   0.554   2.211 -0.4824 -1.3237 -1.9280
   52CHL1    C4 3779   6.440   0.432   2.445 -0.4226 -0.2768 -0.1859
   52CHL1   H4A 3780   6.361   0.480   2.383 -3.1240 -0.9345  2.4944
   52CHL1   H4B 3781   6.436   0.327   2.409  0.6148 -0.2128 -0.5142
   52CHL1    C5 3782   6.416   0.463   2.592  0.2875  0.0455 -1.2206
   52CHL1    C6 3783   6.389   0.364   2.678  0.1988 -0.5549  0.4168
   52CHL1    H6 3784   6.375   0.266   2.631 -0.9343 -1.1106  1.8280
   52CHL1    C7 3785   6.363   0.384   2.828 -0.1143  0.0704 -0.1026
   52CHL1   H7A 3786   6.271   0.330   2.858  0.8197 -1.2794  0.4737
   52CHL1   H7B 3787   6.436   0.328   2.891 -1.6887 -1.2691  0.6108
   52CHL1    C8 3788   6.353   0.533   2.871 -0.2023  0.7031 -0.2799
   52CHL1    H8 3789   6.254   0.576   2.846 -0.3796 -0.3798 -1.5474
   52CHL1   C14 3790   6.376   0.541   3.022 -0.0594 -0.3997 -0.3741
   52CHL1   H14 3791   6.480   0.504   3.036  0.2256  0.3644 -0.4001
   52CHL1   C15 3792   6.297   0.444   3.110  0.1304 -0.4503 -1.0959
   52CHL1  H15A 3793   6.189   0.440   3.082  0.0238 -2.6930 -0.5417
   52CHL1  H15B 3794   6.348   0.346   3.120  2.6714  0.9540  0.8449
   52CHL1   C16 3795   6.306   0.511   3.252  0.2783  0.2599  0.3941
   52CHL1  H16A 3796   6.202   0.539   3.280 -0.2623  0.0131 -1.2531
   52CHL1  H16B 3797   6.350   0.441   3.326  1.0329 -1.0331 -1.2002
   52CHL1   C17 3798   6.388   0.641   3.228 -0.2783  0.4506  0.0606
   52CHL1   H17 3799   6.497   0.619   3.233 -0.6101 -1.1305  0.8412
   52CHL1   C13 3800   6.352   0.677   3.084 -0.2445 -0.4171  0.0419
   52CHL1   C18 3801   6.201   0.723   3.070  0.0468  0.2015  0.4425
   52CHL1  H18A 3802   6.169   0.730   2.963  2.5871  0.6487 -0.3444
   52CHL1  H18B 3803   6.135   0.657   3.131 -0.4288  0.6011  0.3675
   52CHL1  H18C 3804   6.184   0.826   3.108  0.7159  0.3899  0.2327
   52CHL1   C12 3805   6.438   0.774   3.012  0.1974  0.2301 -0.5447
   52CHL1  H12A 3806   6.418   0.871   3.062  2.6288  0.9085 -0.7485
   52CHL1  H12B 3807   6.545   0.755   3.034  0.6630  2.3159 -0.8130
   52CHL1   C11 3808   6.423   0.763   2.855  0.9127 -0.1402  0.4165
   52CHL1  H11A 3809   6.319   0.798   2.838  0.3281 -0.0296  3.6174
   52CHL1  H11B 3810   6.486   0.835   2.798 -0.0679  1.4353  1.2339
   52CHL1    C9 3811   6.447   0.622   2.797 -0.4625  0.3885 -0.3986
   52CHL1    H9 3812   6.553   0.609   2.827 -0.4492  0.9798 -0.1781
   52CHL1   C10 3813   6.442   0.606   2.639 -0.0022 -0.2052  0.0740
   52CHL1   C19 3814   6.326   0.691   2.598 -0.0265 -0.4618  0.7857
   52CHL1  H19A 3815   6.311   0.680   2.488 -2.6970  1.2344  0.8862
   52CHL1  H19B 3816   6.227   0.664   2.640 -0.6542 -3.8809 -2.3545
   52CHL1  H19C 3817   6.345   0.799   2.620  0.0760 -0.1638 -0.6732
   52CHL1    C1 3818   6.575   0.658   2.591 -0.3159 -0.2293  0.3097
   52CHL1   H1A 3819   6.585   0.764   2.621  0.7694  0.4588 -2.1610
   52CHL1   H1B 3820   6.665   0.614   2.639  2.4856  2.4486 -2.0341
   52CHL1    C2 3821   6.582   0.639   2.432 -0.2145  0.5926  0.7378
   52CHL1   H2A 3822   6.681   0.665   2.388 -1.6436  1.0239 -2.4753
   52CHL1   H2B 3823   6.503   0.698   2.382  0.8694 -1.1482 -3.4535
   52CHL1   C20 3824   6.367   0.750   3.329  0.8877 -0.4190 -0.7582
   52CHL1   H20 3825   6.290   0.819   3.288  1.3283  0.3966 -0.2409
   52CHL1   C21 3826   6.497   0.830   3.340 -0.0878 -0.4820 -0.6859
   52CHL1  H21A 3827   6.586   0.766   3.354  0.2880  0.3120  0.7540
   52CHL1  H21B 3828   6.482   0.901   3.425  1.4644 -0.1300 -0.6767
   52CHL1  H21C 3829   6.497   0.887   3.245  0.3956 -1.0486 -1.0255
   52CHL1   C22 3830   6.314   0.694   3.468  0.5287  0.1062  0.5793
   52CHL1  H22A 3831   6.214   0.646   3.455  1.3711 -1.7643  0.7384
   52CHL1  H22B 3832   6.383   0.615   3.504 -0.1132 -0.5711  0.3458
   52CHL1   C23 3833   6.313   0.803   3.580  0.4834  0.5744 -0.4969
   52CHL1  H23A 3834   6.283   0.758   3.677 -0.1158 -1.1424 -1.4313
   52CHL1  H23B 3835   6.418   0.837   3.593 -0.2103  2.2654  1.1248
   52CHL1   C24 3836   6.223   0.927   3.550 -0.2196  0.0655  0.7144
   52CHL1  H24A 3837   6.239   0.967   3.448 -0.8450  1.4511  1.1409
   52CHL1  H24B 3838   6.116   0.897   3.551 -0.2593  0.2249  1.4559
   52CHL1   C25 3839   6.234   1.046   3.642 -0.0093 -0.0090 -0.6879
   52CHL1   H25 3840   6.342   1.066   3.656 -0.0524  0.9796 -1.5766
   52CHL1   C26 3841   6.190   1.169   3.576 -0.0832 -0.2283  0.2460
   52CHL1  H26A 3842   6.081   1.162   3.554  0.1469 -0.2553 -0.9491
   52CHL1  H26B 3843   6.209   1.264   3.630 -0.7193 -1.6646  3.2241
   52CHL1  H26C 3844   6.245   1.168   3.480 -2.9199 -1.9642 -1.5094
   52CHL1   C27 3845   6.145   1.020   3.763  0.8154  0.3931 -0.8996
   52CHL1  H27A 3846   6.166   1.096   3.841  1.1747  0.1624 -0.7652
   52CHL1  H27B 3847   6.039   1.013   3.733  0.6928 -2.0350 -0.0768
   52CHL1  H27C 3848   6.166   0.920   3.806  1.2853 -0.5018 -3.0332
   53CHL1    C3 3849   1.760   7.116   2.485  0.4234  1.2151 -0.5375
   53CHL1    H3 3850   1.800   7.198   2.422  1.1744  1.9742  0.8722
   53CHL1    O3 3851   1.728   7.006   2.398 -0.0888 -0.0940  0.1684
   53CHL1   H3' 3852   1.790   7.021   2.325 -0.3351  0.6577  0.1028
   53CHL1    C4 3853   1.874   7.070   2.582 -0.1452  0.1307  0.3036
   53CHL1   H4A 3854   1.837   6.977   2.629 -0.2970  0.7697  1.4936
   53CHL1   H4B 3855   1.960   7.032   2.522  0.0701 -0.3507  0.9097
   53CHL1    C5 3856   1.901   7.176   2.683  0.4772 -0.0240 -0.2297
   53CHL1    C6 3857   2.029   7.220   2.694  0.4664  0.1049 -0.1757
   53CHL1    H6 3858   2.102   7.172   2.628 -0.2361 -0.7917 -0.3129
   53CHL1    C7 3859   2.068   7.319   2.799  0.0719  0.0490  0.5076
   53CHL1   H7A 3860   2.159   7.275   2.846  1.9262  0.1246 -2.7313
   53CHL1   H7B 3861   2.098   7.414   2.750 -1.7816 -1.0430 -3.0597
   53CHL1    C8 3862   1.961   7.345   2.908 -1.4661 -0.0907  0.0485
   53CHL1    H8 3863   1.969   7.267   2.986  1.7251  1.5568  1.5797
   53CHL1   C14 3864   1.995   7.472   2.986 -0.0696 -0.7985 -0.7982
   53CHL1   H14 3865   2.006   7.549   2.906  1.5192 -0.5298 -0.3493
   53CHL1   C15 3866   2.132   7.477   3.050  0.5087 -0.0388 -0.6111
   53CHL1  H15A 3867   2.150   7.376   3.091 -0.9889 -1.0368 -2.3065
   53CHL1  H15B 3868   2.205   7.499   2.969  0.5191 -0.2745 -0.6656
   53CHL1   C16 3869   2.116   7.571   3.166 -0.8377  0.2145 -0.4056
   53CHL1  H16A 3870   2.134   7.516   3.261  1.0611  0.5480 -0.5368
   53CHL1  H16B 3871   2.192   7.651   3.170 -0.2340 -0.3911  1.3007
   53CHL1   C17 3872   1.970   7.624   3.167 -0.4090  0.2709  0.4657
   53CHL1   H17 3873   1.971   7.714   3.101 -1.2068 -0.4188 -0.5287
   53CHL1   C13 3874   1.889   7.518   3.089 -0.2854 -0.3095  0.2684
   53CHL1   C18 3875   1.861   7.409   3.192 -1.2498 -0.1100 -0.2398
   53CHL1  H18A 3876   1.831   7.316   3.141 -0.1237 -0.3720 -0.4439
   53CHL1  H18B 3877   1.934   7.385   3.272 -1.4270  1.9532  0.6252
   53CHL1  H18C 3878   1.764   7.435   3.241 -1.3218  0.1958 -0.5411
   53CHL1   C12 3879   1.772   7.559   3.001  0.0319  0.0810 -0.6067
   53CHL1  H12A 3880   1.687   7.597   3.062  0.0844 -1.3951  0.4421
   53CHL1  H12B 3881   1.813   7.634   2.930  0.6413 -1.1747 -1.6005
   53CHL1   C11 3882   1.724   7.439   2.919  0.6004  0.2856  0.6119
   53CHL1  H11A 3883   1.670   7.372   2.989  1.0471 -0.6070  0.1228
   53CHL1  H11B 3884   1.643   7.482   2.855 -1.2464  1.1156  3.3116
   53CHL1    C9 3885   1.828   7.360   2.833  0.0354 -0.0147  0.3345
   53CHL1    H9 3886   1.848   7.433   2.752 -0.4774  1.4052  1.4545
   53CHL1   C10 3887   1.781   7.236   2.762 -0.7336  0.6222  0.3872
   53CHL1   C19 3888   1.738   7.128   2.868  0.2700 -0.9499  0.1498
   53CHL1  H19A 3889   1.701   7.035   2.820 -1.0290 -0.7238  0.6473
   53CHL1  H19B 3890   1.821   7.096   2.934  1.5285  0.7044 -0.5625
   53CHL1  H19C 3891   1.657   7.173   2.930 -0.6848 -1.9871 -0.3098
   53CHL1    C1 3892   1.660   7.260   2.669  0.6510 -0.3788  0.5194
   53CHL1   H1A 3893   1.572   7.260   2.737  0.5612  0.9520  0.4252
   53CHL1   H1B 3894   1.689   7.355   2.619  1.1871 -0.3517  0.8732
   53CHL1    C2 3895   1.634   7.148   2.567 -0.0519 -0.4115 -0.7027
   53CHL1   H2A 3896   1.549   7.173   2.500 -0.9862  0.8970  0.9265
   53CHL1   H2B 3897   1.611   7.051   2.616 -0.1342  0.4425  1.0281
   53CHL1   C20 3898   1.920   7.682   3.297  0.1505  0.2364 -1.0254
   53CHL1   H20 3899   1.926   7.604   3.375 -1.2111 -0.1938 -1.3141
   53CHL1   C21 3900   1.775   7.731   3.288 -0.1837 -0.0523 -0.0719
   53CHL1  H21A 3901   1.705   7.645   3.278 -1.1751  0.7382 -0.0747
   53CHL1  H21B 3902   1.757   7.803   3.205 -1.7407 -0.0505  0.2303
   53CHL1  H21C 3903   1.743   7.775   3.384 -0.1709 -1.4348  0.5877
   53CHL1   C22 3904   2.015   7.802   3.331  0.2219  0.2131 -0.2400
   53CHL1  H22A 3905   2.121   7.772   3.344  0.3620 -0.2523 -2.0971
   53CHL1  H22B 3906   2.011   7.891   3.264 -0.8414  0.1484 -0.2763
   53CHL1   C23 3907   1.981   7.862   3.459  0.2835  0.4234  0.1527
   53CHL1  H23A 3908   1.893   7.930   3.451 -0.8724 -1.0640 -0.0982
   53CHL1  H23B 3909   1.945   7.789   3.534  1.0076 -0.8524 -0.7071
   53CHL1   C24 3910   2.095   7.943   3.513  0.0752  0.8345  0.1409
   53CHL1  H24A 3911   2.180   7.875   3.535 -1.3608 -1.4199 -0.8378
   53CHL1  H24B 3912   2.115   8.016   3.431 -0.5051  2.2662  1.2401
   53CHL1   C25 3913   2.068   8.024   3.636 -0.4352  0.1747  0.1858
   53CHL1   H25 3914   2.012   8.115   3.605  0.8735  0.8245 -0.3254
   53CHL1   C26 3915   2.008   7.935   3.743 -0.0192  0.1735  0.3195
   53CHL1  H26A 3916   1.901   7.925   3.716 -0.0301  0.2497  0.3329
   53CHL1  H26B 3917   2.055   7.835   3.755 -1.4309 -0.6378 -0.6966
   53CHL1  H26C 3918   2.018   7.975   3.847  2.8095 -0.1264  0.2579
   53CHL1   C27 3919   2.212   8.062   3.681 -0.1009  0.4898  0.1681
   53CHL1  H27A 3920   2.277   8.100   3.598  2.2560 -1.0171  1.2211
   53CHL1  H27B 3921   2.210   8.142   3.757  3.5423  0.6719  0.2655
   53CHL1  H27C 3922   2.253   7.969   3.726 -0.3487  1.1349  1.7896
   54CHL1    C3 3923   0.526   6.736   2.425  0.5288  0.6775 -0.5423
   54CHL1    H3 3924   0.583   6.641   2.429  2.0111  1.5677  1.6642
   54CHL1    O3 3925   0.514   6.774   2.290  0.0841 -0.5344  0.1507
   54CHL1   H3' 3926   0.465   6.857   2.290 -0.6801 -0.9546  1.2593
   54CHL1    C4 3927   0.381   6.714   2.486 -0.4822 -0.5926 -0.8317
   54CHL1   H4A 3928   0.326   6.810   2.487  2.1950  1.0341 -0.9917
   54CHL1   H4B 3929   0.315   6.647   2.427 -0.6668  0.0256 -1.3341
   54CHL1    C5 3930   0.379   6.685   2.637  0.5717 -0.0714 -0.3206
   54CHL1    C6 3931   0.309   6.580   2.682 -0.4220  0.1283  0.4138
   54CHL1    H6 3932   0.258   6.513   2.610 -0.1966  0.3408  0.0541
   54CHL1    C7 3933   0.299   6.545   2.831  0.1587 -0.4761  0.1330
   54CHL1   H7A 3934   0.199   6.523   2.875  0.6222 -0.3256  1.3000
   54CHL1   H7B 3935   0.359   6.452   2.837  0.3600 -0.3607 -0.0999
   54CHL1    C8 3936   0.355   6.662   2.920  0.5148  0.3181  0.4250
   54CHL1    H8 3937   0.274   6.738   2.913 -0.6933 -0.7991  1.7221
   54CHL1   C14 3938   0.371   6.616   3.061 -0.3616  0.5265  0.3808
   54CHL1   H14 3939   0.446   6.534   3.049 -0.8447  0.0346  0.6922
   54CHL1   C15 3940   0.247   6.555   3.124  0.1522  0.1090 -0.2778
   54CHL1  H15A 3941   0.150   6.607   3.106  1.2096  1.6918 -1.7040
   54CHL1  H15B 3942   0.229   6.447   3.106 -1.3492  0.1048  1.0610
   54CHL1   C16 3943   0.285   6.555   3.271 -0.1618  0.1102 -0.0650
   54CHL1  H16A 3944   0.203   6.587   3.339 -0.2051 -0.1980  0.0301
   54CHL1  H16B 3945   0.322   6.460   3.314  1.2211  1.2741  1.4141
   54CHL1   C17 3946   0.420   6.634   3.288  0.3288 -0.1829  0.3451
   54CHL1   H17 3947   0.504   6.561   3.290  0.9965  0.5612  0.1028
   54CHL1   C13 3948   0.432   6.718   3.158  0.1635  0.4029 -0.1952
   54CHL1   C18 3949   0.339   6.838   3.176 -0.1584  0.0369  1.3662
   54CHL1  H18A 3950   0.384   6.919   3.238 -0.6754  0.7043  0.8755
   54CHL1  H18B 3951   0.320   6.889   3.080  0.2972 -0.6412  0.9064
   54CHL1  H18C 3952   0.240   6.799   3.209  0.2354 -0.1672  2.3516
   54CHL1   C12 3953   0.576   6.744   3.111  0.4526  0.7197  0.4319
   54CHL1  H12A 3954   0.626   6.826   3.167  1.2895  2.0740 -2.1404
   54CHL1  H12B 3955   0.632   6.648   3.106  0.7147  0.8947 -0.1566
   54CHL1   C11 3956   0.564   6.804   2.964  0.2352  1.0248 -0.2525
   54CHL1  H11A 3957   0.514   6.903   2.977 -2.1452 -0.1199 -0.0868
   54CHL1  H11B 3958   0.668   6.822   2.930  1.2457  0.9578  2.5642
   54CHL1    C9 3959   0.485   6.716   2.863 -0.0318  0.1272 -0.7609
   54CHL1    H9 3960   0.551   6.627   2.853 -0.7985 -0.5041 -0.3258
   54CHL1   C10 3961   0.461   6.777   2.722 -0.3443 -0.8824  0.2400
   54CHL1   C19 3962   0.389   6.911   2.729  0.0898  0.1414 -0.1733
   54CHL1  H19A 3963   0.378   6.961   2.630  1.4340  2.6322  0.8487
   54CHL1  H19B 3964   0.291   6.894   2.777  0.5955 -0.9977  0.5031
   54CHL1  H19C 3965   0.432   6.986   2.799  3.0086 -1.7173  0.1797
   54CHL1    C1 3966   0.602   6.800   2.659  0.7384 -0.0684  0.5942
   54CHL1   H1A 3967   0.652   6.883   2.713 -1.8428  2.7117 -0.9780
   54CHL1   H1B 3968   0.666   6.709   2.655 -0.2485 -0.7824  0.5179
   54CHL1    C2 3969   0.603   6.837   2.508 -0.1598 -0.5538  0.3451
   54CHL1   H2A 3970   0.707   6.839   2.469 -0.2698  0.9957  0.0606
   54CHL1   H2B 3971   0.564   6.941   2.504  2.6413  0.5916 -3.7670
   54CHL1   C20 3972   0.429   6.704   3.427 -0.3666 -0.1224  0.0797
   54CHL1   H20 3973   0.345   6.778   3.427 -0.8412 -0.5474 -2.9018
   54CHL1   C21 3974   0.556   6.792   3.453  0.1646 -0.9125 -0.1382
   54CHL1  H21A 3975   0.558   6.877   3.381 -1.5055 -1.0083 -0.3532
   54CHL1  H21B 3976   0.646   6.728   3.449 -0.0513 -1.1856 -0.9370
   54CHL1  H21C 3977   0.549   6.848   3.548  4.7209 -2.4653  1.3513
   54CHL1   C22 3978   0.400   6.611   3.543 -0.4552  0.1756  0.0556
   54CHL1  H22A 3979   0.434   6.653   3.640 -0.9949 -0.8880  0.7237
   54CHL1  H22B 3980   0.297   6.570   3.545  0.5419 -2.5851  1.6225
   54CHL1   C23 3981   0.484   6.483   3.535  0.2968  0.0643  0.2736
   54CHL1  H23A 3982   0.435   6.414   3.463 -0.4508  0.8859 -0.0246
   54CHL1  H23B 3983   0.587   6.514   3.510  0.8032 -0.7351  1.3318
   54CHL1   C24 3984   0.486   6.403   3.668 -0.6526  0.7562  0.1317
   54CHL1  H24A 3985   0.519   6.470   3.751 -1.1309  0.0353  0.9152
   54CHL1  H24B 3986   0.380   6.374   3.686 -0.7360  0.0805 -1.3124
   54CHL1   C25 3987   0.562   6.265   3.653  0.1089  0.6062  0.5117
   54CHL1   H25 3988   0.538   6.220   3.554  0.4060  2.0733 -0.2594
   54CHL1   C26 3989   0.714   6.278   3.652 -0.4015 -0.2421 -0.0277
   54CHL1  H26A 3990   0.756   6.290   3.755 -0.2623 -2.2723  0.1985
   54CHL1  H26B 3991   0.762   6.182   3.624 -0.3646  0.0745 -1.0718
   54CHL1  H26C 3992   0.745   6.362   3.587 -0.7712 -1.0535 -1.2698
   54CHL1   C27 3993   0.528   6.156   3.763 -0.5933 -0.7057  0.6902
   54CHL1  H27A 3994   0.579   6.060   3.742 -1.3163 -0.7647 -1.0116
   54CHL1  H27B 3995   0.562   6.193   3.862  1.2815 -2.4757  0.7730
   54CHL1  H27C 3996   0.419   6.134   3.756 -1.0927  1.8407 -1.2713
   55CHL1    C3 3997   6.405   6.271   2.348 -0.1592  0.6008 -0.6994
   55CHL1    H3 3998   6.300   6.237   2.340  0.2059 -1.0354  0.9925
   55CHL1    O3 3999   6.462   6.245   2.220  0.7964  0.2696 -0.4844
   55CHL1   H3' 4000   6.391   6.292   2.175 -0.8837 -0.5153  1.1986
   55CHL1    C4 4001   6.406   6.423   2.370  0.2039  0.2339  0.5115
   55CHL1   H4A 4002   6.513   6.451   2.363  0.4247  0.1282  2.6677
   55CHL1   H4B 4003   6.343   6.473   2.293  0.8622  0.0125 -0.1739
   55CHL1    C5 4004   6.363   6.472   2.508 -0.1384  0.1013  0.4652
   55CHL1    C6 4005   6.274   6.570   2.518 -0.8671  0.1342  0.6594
   55CHL1    H6 4006   6.235   6.619   2.427  1.5229 -0.7728 -0.9417
   55CHL1    C7 4007   6.228   6.624   2.646 -0.6492 -0.0932 -0.0775
   55CHL1   H7A 4008   6.215   6.734   2.656 -0.4359 -0.1328  0.7488
   55CHL1   H7B 4009   6.129   6.581   2.674 -1.8412  1.1964 -2.0701
   55CHL1    C8 4010   6.324   6.589   2.769 -0.1272  0.9183  0.0381
   55CHL1    H8 4011   6.418   6.645   2.755  0.6136 -0.6052 -1.4410
   55CHL1   C14 4012   6.250   6.608   2.904 -0.5672 -0.1105  0.9724
   55CHL1   H14 4013   6.164   6.538   2.900  1.0211 -2.0954 -1.3174
   55CHL1   C15 4014   6.190   6.746   2.932 -0.0464 -1.0604  0.5819
   55CHL1  H15A 4015   6.266   6.823   2.907  1.3705 -2.7702 -0.7195
   55CHL1  H15B 4016   6.104   6.765   2.866  1.3230 -2.0180 -1.5968
   55CHL1   C16 4017   6.164   6.750   3.081  0.0663  0.0331  0.1396
   55CHL1  H16A 4018   6.193   6.851   3.115  1.5749 -0.6917  1.1118
   55CHL1  H16B 4019   6.060   6.725   3.110 -0.0811  0.3669 -0.0938
   55CHL1   C17 4020   6.256   6.640   3.141 -0.5393 -0.0241  0.5688
   55CHL1   H17 4021   6.189   6.554   3.162 -0.2481 -0.5913 -0.6966
   55CHL1   C13 4022   6.342   6.577   3.018  0.2100  0.6172  0.7584
   55CHL1   C18 4023   6.466   6.664   3.022 -0.1501 -0.7693  0.1309
   55CHL1  H18A 4024   6.535   6.636   2.940  0.0459  1.2788 -0.4631
   55CHL1  H18B 4025   6.449   6.774   3.017  1.4552 -0.5234 -0.3312
   55CHL1  H18C 4026   6.532   6.651   3.111  3.2141 -0.0821 -2.0781
   55CHL1   C12 4027   6.366   6.425   3.011 -0.2150 -0.4880 -0.2787
   55CHL1  H12A 4028   6.422   6.383   3.097  0.6724 -3.1177 -2.0296
   55CHL1  H12B 4029   6.264   6.382   3.006 -1.2858  1.8383  0.0649
   55CHL1   C11 4030   6.439   6.384   2.890  0.1690 -0.7015  0.1995
   55CHL1  H11A 4031   6.540   6.430   2.902 -1.1154  2.5656 -0.5884
   55CHL1  H11B 4032   6.446   6.274   2.875 -0.3941 -0.8239  0.8117
   55CHL1    C9 4033   6.361   6.437   2.759  0.1297 -0.4178  0.3793
   55CHL1    H9 4034   6.263   6.385   2.760  1.0248 -2.2217  2.3119
   55CHL1   C10 4035   6.436   6.398   2.625  0.9263 -0.4307 -0.4569
   55CHL1   C19 4036   6.579   6.433   2.650 -0.1679  0.3423 -0.0331
   55CHL1  H19A 4037   6.634   6.362   2.716  0.5111  2.0879  1.3854
   55CHL1  H19B 4038   6.636   6.441   2.555  1.3414  3.8612  0.9896
   55CHL1  H19C 4039   6.594   6.533   2.696  0.9770  1.1939 -2.1199
   55CHL1    C1 4040   6.424   6.248   2.600  0.1821 -0.4648  0.3270
   55CHL1   H1A 4041   6.485   6.207   2.683  2.3767  2.7630  0.4799
   55CHL1   H1B 4042   6.321   6.205   2.599  0.8790 -2.2738 -1.7221
   55CHL1    C2 4043   6.476   6.203   2.461 -0.8438  0.8311 -0.6593
   55CHL1   H2A 4044   6.471   6.093   2.443  0.7979  0.5829  0.1457
   55CHL1   H2B 4045   6.582   6.233   2.449 -0.4275 -0.1447  0.4234
   55CHL1   C20 4046   6.316   6.672   3.270  0.4520  0.2336 -0.6623
   55CHL1   H20 4047   6.387   6.756   3.253  2.3911 -0.8277  1.4580
   55CHL1   C21 4048   6.390   6.555   3.330  0.4283  0.0198  0.1105
   55CHL1  H21A 4049   6.499   6.551   3.309  0.5652  0.6501  0.6729
   55CHL1  H21B 4050   6.345   6.459   3.298 -0.3550  0.4848 -0.1906
   55CHL1  H21C 4051   6.380   6.562   3.440 -1.9367 -1.4104  0.0379
   55CHL1   C22 4052   6.205   6.723   3.379  0.0359 -0.1487 -0.8462
   55CHL1  H22A 4053   6.249   6.758   3.475 -2.3601  2.7989 -0.6763
   55CHL1  H22B 4054   6.165   6.817   3.336 -0.5746 -0.3060 -0.6392
   55CHL1   C23 4055   6.082   6.628   3.397  0.0510  0.2823 -0.2326
   55CHL1  H23A 4056   6.033   6.620   3.298 -1.4548  0.3890  0.4818
   55CHL1  H23B 4057   6.119   6.524   3.414  2.4634  1.0951 -0.1439
   55CHL1   C24 4058   5.986   6.676   3.507  0.1677 -0.2307 -0.9937
   55CHL1  H24A 4059   6.053   6.681   3.595 -0.9346 -1.0664 -0.0728
   55CHL1  H24B 4060   5.948   6.779   3.493 -0.2424  0.0260  1.5557
   55CHL1   C25 4061   5.875   6.587   3.539  0.0967  0.5334 -0.0676
   55CHL1   H25 4062   5.916   6.484   3.548 -0.7183  0.2465  0.4574
   55CHL1   C26 4063   5.808   6.640   3.661 -0.0846  0.0534 -0.3077
   55CHL1  H26A 4064   5.713   6.583   3.674  0.6173 -0.8885  0.9863
   55CHL1  H26B 4065   5.867   6.636   3.755  0.6261  1.0017 -0.7006
   55CHL1  H26C 4066   5.772   6.744   3.647  1.7307  0.8056  0.3458
   55CHL1   C27 4067   5.766   6.585   3.424  0.5500 -0.5537 -0.8213
   55CHL1  H27A 4068   5.810   6.559   3.325  3.0847  1.6192 -0.3551
   55CHL1  H27B 4069   5.684   6.518   3.460  0.8244  0.9326  2.9643
   55CHL1  H27C 4070   5.711   6.681   3.418 -2.9835 -2.1064  2.2707
   56CHL1    C3 4071   0.081   0.466   2.369  0.0663  0.3140  0.3478
   56CHL1    H3 4072   0.103   0.358   2.379  0.2026  0.3844  0.7939
   56CHL1    O3 4073   0.135   0.503   2.244 -0.0662 -0.6313 -0.0205
   56CHL1   H3' 4074   0.151   0.598   2.243  0.4217 -0.7076 -1.5775
   56CHL1    C4 4075  -0.068   0.492   2.375 -0.6255  0.4843  0.4028
   56CHL1   H4A 4076  -0.085   0.601   2.366  1.5623  0.7625 -1.5873
   56CHL1   H4B 4077  -0.122   0.452   2.286 -1.0005  1.7910  0.0206
   56CHL1    C5 4078  -0.128   0.459   2.504 -0.2333 -0.0831  0.3849
   56CHL1    C6 4079  -0.223   0.361   2.515 -0.1386 -0.0941  0.1621
   56CHL1    H6 4080  -0.262   0.314   2.423 -0.0632  2.3467 -1.1870
   56CHL1    C7 4081  -0.284   0.316   2.649  0.6144 -0.8161  0.4774
   56CHL1   H7A 4082  -0.394   0.328   2.642  0.8865  1.9882 -0.5207
   56CHL1   H7B 4083  -0.260   0.211   2.674 -0.4184 -1.0852  0.3702
   56CHL1    C8 4084  -0.239   0.404   2.765 -0.2646 -0.3228 -0.0602
   56CHL1    H8 4085  -0.303   0.495   2.758 -1.3198 -0.9085  1.3440
   56CHL1   C14 4086  -0.273   0.342   2.904  0.0238  0.5620 -0.4274
   56CHL1   H14 4087  -0.215   0.247   2.909  1.4663  1.4079 -0.5768
   56CHL1   C15 4088  -0.425   0.313   2.927 -0.7163 -0.1583  0.2373
   56CHL1  H15A 4089  -0.480   0.401   2.887  0.2441  0.3874  0.0908
   56CHL1  H15B 4090  -0.443   0.227   2.859  1.2504  0.1348 -0.7290
   56CHL1   C16 4091  -0.434   0.292   3.077  0.3600 -0.4625 -0.0501
   56CHL1  H16A 4092  -0.511   0.353   3.127  1.4773 -0.9442  2.3902
   56CHL1  H16B 4093  -0.450   0.188   3.112 -1.0496 -0.2129  0.0905
   56CHL1   C17 4094  -0.296   0.326   3.133  0.6316  0.4625 -0.3291
   56CHL1   H17 4095  -0.228   0.239   3.134  0.8810  0.6269  1.6729
   56CHL1   C13 4096  -0.226   0.418   3.028 -0.1045  0.5943 -0.4007
   56CHL1   C18 4097  -0.291   0.560   3.027  0.2257  0.6030  0.4492
   56CHL1  H18A 4098  -0.263   0.617   2.936 -1.6350  0.2514 -0.3865
   56CHL1  H18B 4099  -0.402   0.552   3.024  0.3501 -2.5036  1.0276
   56CHL1  H18C 4100  -0.246   0.618   3.110  2.6191 -0.3501 -0.1029
   56CHL1   C12 4101  -0.074   0.427   3.018  0.0784 -0.5791  0.5885
   56CHL1  H12A 4102  -0.022   0.480   3.100  1.6050 -0.3587 -0.4906
   56CHL1  H12B 4103  -0.037   0.322   3.024  1.0611 -0.4370 -1.8521
   56CHL1   C11 4104  -0.028   0.496   2.883 -0.2021 -0.5193  0.5359
   56CHL1  H11A 4105  -0.043   0.605   2.895  1.3991 -0.3094  0.8720
   56CHL1  H11B 4106   0.081   0.475   2.877 -0.0548  0.0149  1.1824
   56CHL1    C9 4107  -0.090   0.442   2.756  0.2695  1.1148  0.5844
   56CHL1    H9 4108  -0.049   0.339   2.744  0.3346  1.2922 -0.8575
   56CHL1   C10 4109  -0.061   0.520   2.626  0.4398  0.6177  0.0244
   56CHL1   C19 4110  -0.117   0.663   2.636 -0.8153  0.2676  0.1383
   56CHL1  H19A 4111  -0.067   0.724   2.714 -0.5702  0.8154 -0.4288
   56CHL1  H19B 4112  -0.097   0.722   2.544  1.5099  3.1371  2.2853
   56CHL1  H19C 4113  -0.225   0.666   2.662 -1.1360 -1.3062 -0.8718
   56CHL1    C1 4114   0.090   0.521   2.611 -0.3391 -0.1140 -0.4043
   56CHL1   H1A 4115   0.126   0.592   2.688  1.9995 -0.4605 -1.0772
   56CHL1   H1B 4116   0.130   0.420   2.637  2.8119  0.6508 -1.7789
   56CHL1    C2 4117   0.154   0.553   2.478  0.7241  0.3556 -0.1924
   56CHL1   H2A 4118   0.261   0.522   2.469  0.6389 -0.1649  0.5431
   56CHL1   H2B 4119   0.129   0.659   2.458 -0.6535 -0.2920 -2.1669
   56CHL1   C20 4120  -0.301   0.392   3.274 -0.8078  0.5241 -0.8567
   56CHL1   H20 4121  -0.327   0.500   3.268  0.9219  0.8960 -3.0811
   56CHL1   C21 4122  -0.159   0.384   3.337 -0.9382  0.3840  0.3632
   56CHL1  H21A 4123  -0.087   0.452   3.287  0.6688 -0.6570  1.1442
   56CHL1  H21B 4124  -0.123   0.279   3.332  0.7676  0.9275  0.4962
   56CHL1  H21C 4125  -0.154   0.422   3.441 -0.1781  3.3608 -0.6708
   56CHL1   C22 4126  -0.401   0.320   3.370 -0.1155  0.3580  0.1644
   56CHL1  H22A 4127  -0.502   0.338   3.327 -0.3912  0.6169  0.9058
   56CHL1  H22B 4128  -0.391   0.210   3.378  1.8916  0.5400  0.7165
   56CHL1   C23 4129  -0.406   0.372   3.518  0.2157 -0.5169 -0.2522
   56CHL1  H23A 4130  -0.314   0.340   3.572  0.9672  0.0731 -1.1542
   56CHL1  H23B 4131  -0.402   0.482   3.511 -1.1144 -0.2788  1.8860
   56CHL1   C24 4132  -0.540   0.346   3.586  0.0833  0.3034 -0.6156
   56CHL1  H24A 4133  -0.630   0.389   3.537 -0.6634 -1.3192 -0.7676
   56CHL1  H24B 4134  -0.548   0.235   3.589 -2.0949  0.4267  0.0524
   56CHL1   C25 4135  -0.544   0.384   3.737  0.2018 -0.4666  0.0933
   56CHL1   H25 4136  -0.528   0.493   3.751  0.5157 -0.3433 -1.1401
   56CHL1   C26 4137  -0.683   0.348   3.791  0.5108 -0.6972 -0.0404
   56CHL1  H26A 4138  -0.714   0.412   3.877 -3.5859 -1.1891 -0.9482
   56CHL1  H26B 4139  -0.763   0.346   3.714  0.0019 -1.6066  0.4919
   56CHL1  H26C 4140  -0.679   0.248   3.839 -1.4974  0.3800  2.6538
   56CHL1   C27 4141  -0.429   0.317   3.815  0.2363 -0.0489  0.3877
   56CHL1  H27A 4142  -0.425   0.207   3.809  3.0919 -0.1063  1.7972
   56CHL1  H27B 4143  -0.336   0.360   3.771 -1.8559  3.1929 -1.3264
   56CHL1  H27C 4144  -0.441   0.335   3.924  0.0390 -1.7691  0.6784
   57SAPC     N 4145   3.979   2.816   6.302  0.4199  0.1981 -0.2022
   57SAPC   C12 4146   4.112   2.763   6.243 -0.4690  0.3736 -0.0437
   57SAPC  H12A 4147   4.097   2.661   6.209  0.3964 -0.4124  1.7541
   57SAPC  H12B 4148   4.190   2.746   6.315 -0.1170 -2.1418 -0.9191
   57SAPC   C13 4149   3.871   2.816   6.191  0.4139 -0.2841 -0.8686
   57SAPC  H13A 4150   3.777   2.835   6.240  0.9109 -1.3606  0.5913
   57SAPC  H13B 4151   3.900   2.895   6.123 -0.5409  0.3018 -0.6079
   57SAPC  H13C 4152   3.862   2.722   6.138  0.1437 -0.5121 -0.4274
   57SAPC   C14 4153   3.932   2.717   6.412  0.1254 -0.5692  0.4056
   57SAPC  H14A 4154   3.935   2.615   6.378  0.6026 -0.6704  0.7407
   57SAPC  H14B 4155   3.995   2.712   6.499 -1.0797  1.4915  1.4884
   57SAPC  H14C 4156   3.830   2.742   6.439 -0.9412 -1.2789 -2.5782
   57SAPC   C15 4157   3.995   2.951   6.372 -0.0130 -0.0197  0.2248
   57SAPC  H15A 4158   4.045   2.937   6.466  0.5607  0.4538 -0.0031
   57SAPC  H15B 4159   4.056   3.018   6.314 -1.5766  0.0050 -1.5297
   57SAPC  H15C 4160   3.898   2.996   6.388  0.5085  0.8951  0.8587
   57SAPC   C11 4161   4.170   2.840   6.114  0.3504 -0.1148  0.0473
   57SAPC  H11A 4162   4.102   2.819   6.029 -0.5904 -0.2381  0.8123
   57SAPC  H11B 4163   4.264   2.791   6.083 -0.7325 -2.8371  0.7457
   57SAPC     P 4164   4.133   3.080   6.032 -0.1517  0.0900  0.1839
   57SAPC   O13 4165   3.987   3.072   6.021  0.4378  0.1790 -0.6416
   57SAPC   O14 4166   4.183   3.215   6.054 -0.7105  0.1162  0.0382
   57SAPC   O12 4167   4.182   2.980   6.142 -0.2322 -0.2428 -0.4091
   57SAPC   O11 4168   4.201   3.039   5.899 -0.3307 -0.2932 -0.8984
   57SAPC    C1 4169   4.339   3.020   5.864 -0.1549  0.1817  0.7088
   57SAPC    HA 4170   4.388   2.950   5.936  0.2796 -0.3445 -0.0798
   57SAPC    HB 4171   4.331   2.966   5.767  1.2075  0.3169  0.4963
   57SAPC    C2 4172   4.419   3.148   5.835 -0.6104  0.6584 -1.0843
   57SAPC    HS 4173   4.399   3.229   5.908  2.5527  0.6868 -0.1006
   57SAPC   O21 4174   4.386   3.195   5.710 -0.2543  0.2647 -0.6320
   57SAPC   C21 4175   4.410   3.318   5.680 -0.0377 -0.4482  0.3907
   57SAPC   O22 4176   4.455   3.403   5.753 -0.6925 -0.5604 -0.5988
   57SAPC   C22 4177   4.374   3.345   5.533 -0.3705  0.0678  0.1420
   57SAPC   H2R 4178   4.374   3.248   5.479 -0.9994 -0.2503  0.6956
   57SAPC   H2S 4179   4.277   3.398   5.523  0.0703  1.0755  0.9786
   57SAPC    C3 4180   4.575   3.110   5.847  0.0120  0.3120  0.1027
   57SAPC    HX 4181   4.592   3.073   5.950 -1.6673  0.5819  0.5153
   57SAPC    HY 4182   4.641   3.197   5.826 -2.0424  1.9764  0.1506
   57SAPC   O31 4183   4.601   2.997   5.756  0.1599 -0.8553  0.3855
   57SAPC   C31 4184   4.637   3.028   5.636  0.0054  0.9046 -0.6965
   57SAPC   O32 4185   4.656   3.140   5.594 -0.5946  0.2908  0.1559
   57SAPC   C32 4186   4.653   2.907   5.552  0.5750 -0.6281  0.0352
   57SAPC   H2X 4187   4.717   2.832   5.603  1.4258 -0.7702 -1.1997
   57SAPC   H2Y 4188   4.716   2.940   5.467  1.5966 -0.6396  0.7755
   57SAPC   C23 4189   4.483   3.440   5.485 -0.0437  0.1680 -0.2764
   57SAPC   H3R 4190   4.583   3.416   5.526  0.9902 -1.2790 -3.2599
   57SAPC   H3S 4191   4.453   3.542   5.516 -2.3154 -0.3382 -0.6309
   57SAPC   C24 4192   4.510   3.433   5.330 -0.0993 -0.4016  0.1019
   57SAPC   H4R 4193   4.411   3.436   5.281 -1.1157 -0.5281  2.0608
   57SAPC   H4S 4194   4.547   3.331   5.302  0.2275 -0.3781  0.4399
   57SAPC   C25 4195   4.607   3.539   5.282 -0.5241  0.3141 -0.1940
   57SAPC   H5R 4196   4.670   3.581   5.362 -0.9830 -0.2103  0.4598
   57SAPC   C26 4197   4.596   3.605   5.167  0.0228  0.1791 -0.6864
   57SAPC   H6R 4198   4.667   3.686   5.148  0.3283  0.5715  1.7953
   57SAPC   C27 4199   4.496   3.584   5.065 -0.1921 -0.1678  0.2398
   57SAPC   H7R 4200   4.490   3.670   4.995 -1.3418 -1.4016 -1.2446
   57SAPC   H7S 4201   4.394   3.593   5.108 -0.1664 -0.4366  0.3606
   57SAPC   C28 4202   4.518   3.458   4.984  0.2478 -0.0868  0.2412
   57SAPC   H8R 4203   4.515   3.370   5.050  0.1680 -1.9581 -2.1222
   57SAPC   C29 4204   4.549   3.450   4.848  0.0507  0.0138 -0.1746
   57SAPC   H9R 4205   4.549   3.348   4.806 -0.4442 -1.1216  2.3932
   57SAPC  C210 4206   4.547   3.574   4.763  0.1196  0.0771 -0.2769
   57SAPC  H10R 4207   4.622   3.641   4.809  0.0105 -0.9123  1.4664
   57SAPC  H10S 4208   4.451   3.627   4.778 -0.0819 -0.2385 -0.4307
   57SAPC  C211 4209   4.577   3.550   4.616 -0.6584 -0.3142 -0.2506
   57SAPC  H11R 4210   4.671   3.507   4.579  0.1164  3.6848 -3.7300
   57SAPC  C212 4211   4.500   3.596   4.522 -0.0312 -0.5605  0.4368
   57SAPC  H12R 4212   4.521   3.564   4.419 -0.0222  1.3583 -0.2061
   57SAPC  C213 4213   4.367   3.680   4.522 -0.3543 -0.3965 -0.1571
   57SAPC  H13R 4214   4.338   3.700   4.627 -1.3713  1.3838 -0.7428
   57SAPC  H13S 4215   4.283   3.620   4.481  0.2870 -2.2816  1.1522
   57SAPC  C214 4216   4.380   3.807   4.449  0.7045  0.4369  0.4242
   57SAPC  H14R 4217   4.467   3.866   4.483 -0.4513  4.3654 -2.6158
   57SAPC  C215 4218   4.309   3.857   4.344 -0.2718  0.0865 -0.0876
   57SAPC  H15R 4219   4.338   3.953   4.299  0.3103 -0.9074 -1.9401
   57SAPC  C216 4220   4.191   3.782   4.290  0.1351 -0.5896  0.5271
   57SAPC  H16R 4221   4.098   3.843   4.295  0.7480  0.3597  0.6640
   57SAPC  H16S 4222   4.164   3.686   4.339 -2.0803  0.3930  1.3590
   57SAPC  C217 4223   4.215   3.757   4.139  0.1019 -0.4017  0.3416
   57SAPC  H17R 4224   4.136   3.694   4.093  1.1757  0.0039 -2.2509
   57SAPC  H17S 4225   4.314   3.709   4.123  0.1593 -0.5852  1.2103
   57SAPC  C218 4226   4.215   3.884   4.064  0.4347  0.1760 -0.1045
   57SAPC  H18R 4227   4.308   3.937   4.092  1.4204 -0.8812 -1.2389
   57SAPC  H18S 4228   4.125   3.944   4.091  2.1238  2.0839  1.5394
   57SAPC  C219 4229   4.232   3.859   3.914  0.5130  0.2493 -0.6428
   57SAPC  H19R 4230   4.153   3.929   3.882 -1.0115  0.4032  2.9169
   57SAPC  H19S 4231   4.196   3.760   3.878 -0.4330 -0.4175  1.8701
   57SAPC  C220 4232   4.371   3.896   3.862  0.1974  0.3481 -0.5814
   57SAPC  H20R 4233   4.439   3.814   3.892 -0.4981  0.1570  0.5674
   57SAPC  H20S 4234   4.405   3.996   3.899  0.6992 -0.3347  0.9034
   57SAPC  H20T 4235   4.362   3.890   3.752  0.1011 -2.0642 -0.4944
   57SAPC   C33 4236   4.518   2.843   5.510 -0.1085 -0.4665 -0.7471
   57SAPC   H3X 4237   4.445   2.843   5.594 -0.3278  0.5063 -0.9259
   57SAPC   H3Y 4238   4.521   2.738   5.473 -3.4327 -0.9519  0.0001
   57SAPC   C34 4239   4.440   2.935   5.413  0.0901 -0.6235  0.6037
   57SAPC   H4X 4240   4.427   3.036   5.456  1.0480  0.2152 -1.0065
   57SAPC   H4Y 4241   4.336   2.904   5.390 -0.6683  2.8226 -1.1828
   57SAPC   C35 4242   4.503   2.941   5.277 -0.6145 -0.4310 -0.6739
   57SAPC   H5X 4243   4.537   2.838   5.252 -0.9992 -0.9455  0.8130
   57SAPC   H5Y 4244   4.591   3.009   5.283 -0.5525 -0.6004  1.2814
   57SAPC   C36 4245   4.403   2.990   5.168 -0.2059 -0.0597 -0.3600
   57SAPC   H6X 4246   4.359   3.090   5.190  0.6963 -0.1595  2.2269
   57SAPC   H6Y 4247   4.320   2.917   5.170  0.5412 -1.0051 -2.1348
   57SAPC   C37 4248   4.476   2.989   5.031  0.4020 -0.2326 -0.6544
   57SAPC   H7X 4249   4.456   2.891   4.983 -0.1329 -0.6645  0.4363
   57SAPC   H7Y 4250   4.586   3.007   5.038  0.4152  0.6896 -2.4664
   57SAPC   C38 4251   4.425   3.085   4.923 -0.2281 -0.1022 -0.0270
   57SAPC   H8X 4252   4.495   3.093   4.837 -1.0313 -0.5429 -0.7352
   57SAPC   H8Y 4253   4.422   3.188   4.963 -0.7163 -0.0066 -0.2935
   57SAPC   C39 4254   4.282   3.052   4.863  0.2401 -0.2557 -0.2586
   57SAPC   H9X 4255   4.213   3.061   4.950  0.2144 -0.3807 -0.2669
   57SAPC   H9Y 4256   4.271   2.951   4.819 -0.0818 -0.3524  0.0340
   57SAPC  C310 4257   4.229   3.151   4.760  0.0093 -0.3533  0.1535
   57SAPC  H10X 4258   4.239   3.258   4.789  0.4500 -0.2072 -0.5018
   57SAPC  H10Y 4259   4.120   3.132   4.745  0.2306 -1.1003 -0.5865
   57SAPC  C311 4260   4.290   3.138   4.620 -0.7072  0.4549  0.5025
   57SAPC  H11X 4261   4.268   3.034   4.587  0.7196 -0.1174  1.3010
   57SAPC  H11Y 4262   4.400   3.142   4.630 -0.6457 -0.3667  0.2008
   57SAPC  C312 4263   4.236   3.240   4.518 -0.0264  0.8430  0.1727
   57SAPC  H12X 4264   4.264   3.345   4.544 -0.4673  1.4925 -1.7747
   57SAPC  H12Y 4265   4.125   3.235   4.516  0.0048 -0.1439  0.5267
   57SAPC  C313 4266   4.279   3.209   4.369  0.4490  0.5053  0.3433
   57SAPC  H13X 4267   4.205   3.134   4.335 -0.0775  1.8725 -1.6622
   57SAPC  H13Y 4268   4.384   3.175   4.356  0.4436 -0.6509  2.6529
   57SAPC  C314 4269   4.276   3.324   4.256 -0.2173  0.7174 -0.8468
   57SAPC  H14X 4270   4.342   3.407   4.289 -0.2083 -0.1931  1.7364
   57SAPC  H14Y 4271   4.174   3.364   4.242 -0.0735  0.8656 -1.4745
   57SAPC  C315 4272   4.319   3.267   4.121  0.5211 -0.0485  0.1433
   57SAPC  H15X 4273   4.274   3.167   4.103 -0.4488 -0.1605  2.7951
   57SAPC  H15Y 4274   4.428   3.245   4.127  0.6981  0.6951 -0.2312
   57SAPC  C316 4275   4.308   3.358   3.991  0.5635  0.4795 -0.0999
   57SAPC  H16X 4276   4.333   3.296   3.902 -0.4467 -0.6192  0.3535
   57SAPC  H16Y 4277   4.366   3.452   4.004 -1.4684  1.7591  0.3278
   57SAPC  C317 4278   4.163   3.406   3.952  0.4135 -0.9107 -0.0261
   57SAPC  H17X 4279   4.164   3.487   3.876  0.7572  0.4540  1.3745
   57SAPC  H17Y 4280   4.123   3.465   4.037  0.2095  0.1619 -0.8596
   57SAPC  C318 4281   4.059   3.298   3.915 -0.3206 -0.4017 -0.8290
   57SAPC  H18X 4282   4.005   3.271   4.008  0.8576 -1.1152 -0.3277
   57SAPC  H18Y 4283   4.116   3.215   3.868 -0.4121 -0.6020 -0.5869
   57SAPC  H18Z 4284   3.986   3.329   3.837  0.4683 -0.4121 -1.5910
   58SAPC     N 4285   3.185   2.135   6.074  0.7969  1.0294 -0.5033
   58SAPC   C12 4286   3.246   2.003   6.123  0.1165  0.2937  0.3810
   58SAPC  H12A 4287   3.346   1.996   6.083  0.4658 -0.1050  1.2883
   58SAPC  H12B 4288   3.194   1.923   6.073  0.2832  0.6915 -0.4400
   58SAPC   C13 4289   3.270   2.258   6.117 -1.1812 -0.4205  0.0021
   58SAPC  H13A 4290   3.227   2.354   6.090 -0.0163  0.5406  1.3797
   58SAPC  H13B 4291   3.283   2.267   6.224  1.1734  0.6469 -0.3021
   58SAPC  H13C 4292   3.369   2.252   6.074 -0.5592  0.5469  1.2099
   58SAPC   C14 4293   3.179   2.144   5.922  0.1267  0.4641 -0.4734
   58SAPC  H14A 4294   3.120   2.059   5.890  0.2676  0.4350 -0.6578
   58SAPC  H14B 4295   3.133   2.236   5.891  0.2593  0.7331  0.1177
   58SAPC  H14C 4296   3.280   2.142   5.883  0.8520 -1.5410  1.3262
   58SAPC   C15 4297   3.053   2.168   6.122  0.5709  0.3585 -0.2404
   58SAPC  H15A 4298   3.036   2.273   6.104  1.6476  0.7114  0.6357
   58SAPC  H15B 4299   2.975   2.106   6.080 -0.0096  1.7106 -1.2131
   58SAPC  H15C 4300   3.061   2.173   6.230  1.8799 -0.6461 -0.2577
   58SAPC   C11 4301   3.233   1.993   6.282 -0.3549  0.5265  0.4941
   58SAPC  H11A 4302   3.280   2.085   6.321 -0.3777  0.2747  1.1301
   58SAPC  H11B 4303   3.294   1.906   6.316 -1.7956  0.3960  2.9646
   58SAPC     P 4304   2.995   1.884   6.307  0.5941 -0.1627  0.0347
   58SAPC   O13 4305   2.995   1.770   6.401  0.0841  0.1291  0.2583
   58SAPC   O14 4306   2.862   1.951   6.290 -0.2792 -0.3560  0.3431
   58SAPC   O12 4307   3.105   1.992   6.339 -0.0493  0.4048  0.4181
   58SAPC   O11 4308   3.040   1.840   6.163 -0.0192  0.2337 -0.2124
   58SAPC    C1 4309   3.013   1.708   6.120  0.0705 -0.2630  0.1290
   58SAPC    HA 4310   3.081   1.638   6.173  0.8207  0.1153 -0.3204
   58SAPC    HB 4311   2.910   1.673   6.141 -0.7766  1.5940 -0.7206
   58SAPC    C2 4312   3.033   1.706   5.966 -0.1204  0.0248  0.5123
   58SAPC    HS 4313   2.979   1.618   5.924 -0.4820  0.4705  0.0200
   58SAPC   O21 4314   3.172   1.716   5.929 -0.2634 -0.0066 -0.2103
   58SAPC   C21 4315   3.228   1.638   5.838 -0.0076 -0.2820  0.3350
   58SAPC   O22 4316   3.167   1.558   5.769 -0.2108  0.1902  0.2532
   58SAPC   C22 4317   3.372   1.679   5.809  0.3649 -0.2890 -0.1214
   58SAPC   H2R 4318   3.366   1.736   5.714 -0.4881  1.3463  0.8687
   58SAPC   H2S 4319   3.413   1.753   5.881  1.0565  0.4573 -1.2688
   58SAPC    C3 4320   2.952   1.815   5.900  0.3258 -0.0674  0.3654
   58SAPC    HX 4321   2.994   1.917   5.911  0.4607  0.1655 -1.7954
   58SAPC    HY 4322   2.853   1.812   5.951 -1.0017  0.7070 -2.0362
   58SAPC   O31 4323   2.929   1.786   5.763 -0.0032 -0.5029 -0.2458
   58SAPC   C31 4324   3.014   1.838   5.676 -0.1179  0.3969 -0.6940
   58SAPC   O32 4325   3.097   1.926   5.688  0.2828  0.6869 -0.2813
   58SAPC   C32 4326   2.982   1.767   5.550 -0.2415 -0.0393  0.7679
   58SAPC   H2X 4327   2.887   1.806   5.505 -1.6779  2.3694  5.2386
   58SAPC   H2Y 4328   2.960   1.660   5.567  1.0637 -0.8197 -1.9131
   58SAPC   C23 4329   3.467   1.559   5.784 -0.4575 -0.2066  0.4455
   58SAPC   H3R 4330   3.421   1.480   5.720 -0.5629 -1.3670  1.9007
   58SAPC   H3S 4331   3.470   1.500   5.878  0.5474 -0.4764  0.2663
   58SAPC   C24 4332   3.605   1.587   5.729 -0.0053  0.6421  0.5815
   58SAPC   H4R 4333   3.658   1.491   5.709 -2.7663 -0.5015 -1.8906
   58SAPC   H4S 4334   3.668   1.641   5.804  2.6304 -2.0255  0.4854
   58SAPC   C25 4335   3.612   1.664   5.605  0.8484 -0.3112 -0.2448
   58SAPC   H5R 4336   3.684   1.747   5.600 -0.0413  0.4106 -1.6701
   58SAPC   C26 4337   3.574   1.618   5.482  0.0550  0.4567 -0.0539
   58SAPC   H6R 4338   3.604   1.680   5.396  0.7668  0.0731 -0.0876
   58SAPC   C27 4339   3.523   1.483   5.447 -0.9692 -0.1396  0.3662
   58SAPC   H7R 4340   3.519   1.416   5.535 -2.5979  0.9026  1.1116
   58SAPC   H7S 4341   3.588   1.429   5.374 -1.4310 -0.9374  0.5331
   58SAPC   C28 4342   3.380   1.497   5.401 -0.9755  0.5762 -0.4732
   58SAPC   H8R 4343   3.309   1.498   5.485 -0.1468  0.0931  0.2443
   58SAPC   C29 4344   3.329   1.483   5.276 -0.3115  0.0703  0.4569
   58SAPC   H9R 4345   3.220   1.493   5.263 -0.2644  0.2930  0.2332
   58SAPC  C210 4346   3.408   1.460   5.144 -0.1604 -0.0572  0.3202
   58SAPC  H10R 4347   3.332   1.416   5.076  0.2667 -1.3790  0.6695
   58SAPC  H10S 4348   3.479   1.376   5.161 -2.1944 -1.7772  0.7795
   58SAPC  C211 4349   3.482   1.579   5.090  0.5301 -0.4191 -0.6532
   58SAPC  H11R 4350   3.538   1.628   5.172 -1.9296  0.3081  0.7036
   58SAPC  C212 4351   3.479   1.638   4.973  0.0185 -0.5318  0.6585
   58SAPC  H12R 4352   3.526   1.735   4.956  0.5408 -0.8325  0.3502
   58SAPC  C213 4353   3.408   1.580   4.852  0.1074  0.1980  0.7274
   58SAPC  H13R 4354   3.362   1.660   4.791  0.0443  0.5691  1.2491
   58SAPC  H13S 4355   3.316   1.529   4.889  1.1848 -2.2226  0.2805
   58SAPC  C214 4356   3.473   1.470   4.767  0.3399 -0.1795 -0.0828
   58SAPC  H14R 4357   3.535   1.400   4.824  0.5700  0.7448  0.8376
   58SAPC  C215 4358   3.468   1.458   4.629  0.1682 -0.0313  0.0522
   58SAPC  H15R 4359   3.532   1.381   4.585 -1.0807 -0.5164 -0.9682
   58SAPC  C216 4360   3.396   1.546   4.531 -0.1224 -0.5987  0.5211
   58SAPC  H16R 4361   3.453   1.642   4.529 -1.3535  0.1531  0.8701
   58SAPC  H16S 4362   3.295   1.583   4.557  0.1320  0.2194  0.3653
   58SAPC  C217 4363   3.393   1.504   4.384 -0.0029 -0.2701 -0.5175
   58SAPC  H17R 4364   3.499   1.503   4.349  0.0121 -1.3735 -0.4577
   58SAPC  H17S 4365   3.325   1.568   4.324 -0.3058  1.0462  1.1547
   58SAPC  C218 4366   3.365   1.353   4.362  0.0560  0.5705  0.5363
   58SAPC  H18R 4367   3.287   1.331   4.438 -1.9358 -1.8565 -1.9688
   58SAPC  H18S 4368   3.446   1.286   4.398 -0.2293 -0.5849 -0.8575
   58SAPC  C219 4369   3.321   1.323   4.213  0.4958  0.1780 -0.2706
   58SAPC  H19R 4370   3.371   1.238   4.160 -0.6647 -1.4478  1.1153
   58SAPC  H19S 4371   3.352   1.410   4.151 -0.7427  1.2185  0.5307
   58SAPC  C220 4372   3.173   1.308   4.200 -0.4092 -0.3359 -0.5666
   58SAPC  H20R 4373   3.118   1.385   4.260 -0.3592 -2.3531  2.2798
   58SAPC  H20S 4374   3.141   1.215   4.251 -3.3719  2.0439  2.4693
   58SAPC  H20T 4375   3.134   1.319   4.097 -2.2247  1.6828  0.2341
   58SAPC   C33 4376   3.106   1.766   5.446 -0.4888  0.5309 -0.9219
   58SAPC   H3X 4377   3.110   1.662   5.406  1.1843 -0.3260  1.2717
   58SAPC   H3Y 4378   3.204   1.799   5.487 -1.6500  0.6181  1.9770
   58SAPC   C34 4379   3.074   1.862   5.334 -0.6606 -0.2766  0.0189
   58SAPC   H4X 4380   3.072   1.963   5.379 -0.5203  0.8588 -2.3795
   58SAPC   H4Y 4381   2.979   1.834   5.285 -0.4828 -0.1716 -0.3886
   58SAPC   C35 4382   3.185   1.858   5.234 -0.6548 -0.1544  0.2558
   58SAPC   H5X 4383   3.180   1.767   5.171  1.1827  0.9922 -1.6657
   58SAPC   H5Y 4384   3.282   1.878   5.284 -0.6658  0.3361  0.0868
   58SAPC   C36 4385   3.170   1.969   5.126 -0.7108 -0.0129 -0.5382
   58SAPC   H6X 4386   3.156   2.066   5.179 -0.0361 -1.0797  1.7210
   58SAPC   H6Y 4387   3.070   1.953   5.079  0.3371  0.9262 -3.3292
   58SAPC   C37 4388   3.261   1.960   5.007  0.0912  0.0604 -0.2099
   58SAPC   H7X 4389   3.236   1.867   4.953 -0.9064  0.6677 -0.8301
   58SAPC   H7Y 4390   3.368   1.951   5.034 -0.0449 -1.4924 -0.1154
   58SAPC   C38 4391   3.230   2.069   4.902 -0.0286  0.0090  0.1010
   58SAPC   H8X 4392   3.250   2.172   4.939  4.1068 -0.8703  0.8806
   58SAPC   H8Y 4393   3.122   2.061   4.879  0.1029  0.2480 -0.6265
   58SAPC   C39 4394   3.295   2.049   4.766 -0.4297  0.3934 -0.0310
   58SAPC   H9X 4395   3.271   1.948   4.726 -2.0678  1.0018 -0.7014
   58SAPC   H9Y 4396   3.404   2.050   4.782 -0.4428  0.5002  0.0537
   58SAPC  C310 4397   3.271   2.149   4.661  0.2440  0.4926 -0.1127
   58SAPC  H10X 4398   3.352   2.130   4.588  0.5020  2.5286 -0.4238
   58SAPC  H10Y 4399   3.292   2.253   4.695 -0.9432  0.9737 -0.7709
   58SAPC  C311 4400   3.131   2.141   4.588 -0.3052 -0.1662  0.6043
   58SAPC  H11X 4401   3.130   2.224   4.514 -2.9481  0.1555  0.9036
   58SAPC  H11Y 4402   3.052   2.169   4.661  2.7909  2.8176  3.0951
   58SAPC  C312 4403   3.104   2.004   4.518 -0.2594 -0.1409  0.1092
   58SAPC  H12X 4404   3.009   2.000   4.462  0.0702 -0.7897 -0.4133
   58SAPC  H12Y 4405   3.093   1.944   4.611 -0.5764 -0.0807  0.1099
   58SAPC  C313 4406   3.219   1.957   4.426  0.7436  1.0279  0.2877
   58SAPC  H13X 4407   3.312   1.942   4.485 -0.1885 -1.0777  1.3629
   58SAPC  H13Y 4408   3.239   2.026   4.341  0.8196 -0.6841 -1.1547
   58SAPC  C314 4409   3.183   1.810   4.372  0.1139  0.7589  0.1501
   58SAPC  H14X 4410   3.157   1.740   4.454  2.2150  1.3150  1.3525
   58SAPC  H14Y 4411   3.273   1.757   4.333 -0.2482  0.1665  0.0958
   58SAPC  C315 4412   3.082   1.818   4.251  0.0329  0.1722 -1.0130
   58SAPC  H15X 4413   3.117   1.876   4.163  1.7145  1.3715  0.3883
   58SAPC  H15Y 4414   2.983   1.857   4.281 -0.5714 -1.3045 -0.9781
   58SAPC  C316 4415   3.062   1.679   4.184  0.0540 -0.0326  0.3416
   58SAPC  H16X 4416   2.976   1.631   4.236  0.7797 -0.0310  1.5897
   58SAPC  H16Y 4417   3.154   1.617   4.195  1.8830  2.4608 -0.0261
   58SAPC  C317 4418   3.042   1.694   4.032 -0.5287  0.3755  0.0915
   58SAPC  H17X 4419   3.046   1.593   3.985 -0.9917  0.0300  0.7787
   58SAPC  H17Y 4420   3.126   1.763   4.011  0.0482  0.2700  1.8541
   58SAPC  C318 4421   2.908   1.760   3.995 -0.1340 -0.1135  0.2210
   58SAPC  H18X 4422   2.898   1.786   3.888  0.3474  1.2393  0.4921
   58SAPC  H18Y 4423   2.910   1.857   4.048  3.6205  1.3303 -2.1405
   58SAPC  H18Z 4424   2.825   1.699   4.036 -1.9472  0.3244 -2.5445
   59SAPC     N 4425   1.776   4.414   5.984 -0.0212 -0.1382 -0.6294
   59SAPC   C12 4426   1.689   4.297   5.941  0.0742  0.2396 -0.6758
   59SAPC  H12A 4427   1.636   4.261   6.028 -3.0130 -2.2617 -3.3365
   59SAPC  H12B 4428   1.756   4.223   5.901  1.6357  0.9012  0.6486
   59SAPC   C13 4429   1.843   4.477   5.873 -0.1889 -0.4496 -0.1051
   59SAPC  H13A 4430   1.775   4.540   5.819  0.3636  3.0470  2.8953
   59SAPC  H13B 4431   1.915   4.545   5.916 -0.3861  0.0250 -0.5151
   59SAPC  H13C 4432   1.897   4.405   5.813  3.5781  0.6660  1.6409
   59SAPC   C14 4433   1.697   4.518   6.054 -0.2664 -0.1390  0.2207
   59SAPC  H14A 4434   1.654   4.492   6.149 -2.2836  2.1943  0.0748
   59SAPC  H14B 4435   1.751   4.612   6.061 -0.3394 -0.1044  0.3264
   59SAPC  H14C 4436   1.611   4.547   5.996  0.5496  0.9179 -0.5121
   59SAPC   C15 4437   1.878   4.367   6.092  0.6164  0.1321 -1.1487
   59SAPC  H15A 4438   1.931   4.453   6.130 -0.7192  1.1897 -1.6237
   59SAPC  H15B 4439   1.825   4.334   6.181  2.4707 -0.5100 -0.2255
   59SAPC  H15C 4440   1.949   4.296   6.052 -0.3633 -0.4885 -1.8525
   59SAPC   C11 4441   1.579   4.327   5.837  0.0150 -0.4406 -1.3689
   59SAPC  H11A 4442   1.542   4.235   5.786 -3.4381 -0.1338  0.3150
   59SAPC  H11B 4443   1.622   4.395   5.760  1.9156  0.4957  0.4105
   59SAPC     P 4444   1.374   4.336   6.000 -0.1359  0.3777  0.0792
   59SAPC   O13 4445   1.457   4.264   6.102  0.4949  0.9530 -0.6163
   59SAPC   O14 4446   1.271   4.435   6.044  0.4181 -0.3079 -0.5801
   59SAPC   O12 4447   1.477   4.400   5.908 -0.2343  0.2670  0.2727
   59SAPC   O11 4448   1.301   4.242   5.907 -0.1391 -0.1168  0.1735
   59SAPC    C1 4449   1.248   4.283   5.779  0.2473 -0.0637  0.1774
   59SAPC    HA 4450   1.197   4.381   5.792  1.9470  0.9032 -0.1262
   59SAPC    HB 4451   1.330   4.295   5.706 -1.3629  0.5941 -1.6179
   59SAPC    C2 4452   1.148   4.189   5.715 -0.4000 -0.0781 -0.8282
   59SAPC    HS 4453   1.071   4.158   5.789  0.5734 -1.3003 -0.2790
   59SAPC   O21 4454   1.216   4.068   5.673  0.6654  0.0262 -0.5756
   59SAPC   C21 4455   1.144   3.965   5.631  0.1545  0.4495  0.0637
   59SAPC   O22 4456   1.022   3.954   5.634 -0.4118  0.1532  0.7094
   59SAPC   C22 4457   1.239   3.858   5.580  0.7712 -0.1154 -0.0537
   59SAPC   H2R 4458   1.320   3.891   5.511  1.5238 -0.6309  0.5637
   59SAPC   H2S 4459   1.305   3.820   5.661 -0.5480  1.8047  2.0310
   59SAPC    C3 4460   1.073   4.259   5.599 -0.2357 -0.0829  0.5919
   59SAPC    HX 4461   1.013   4.342   5.644  0.1171  0.7052 -0.3332
   59SAPC    HY 4462   0.997   4.191   5.556  0.1481  0.3673 -0.8654
   59SAPC   O31 4463   1.165   4.305   5.499 -0.2489  0.2512 -0.4907
   59SAPC   C31 4464   1.169   4.437   5.473  0.0519 -0.5024  0.1416
   59SAPC   O32 4465   1.100   4.519   5.533 -0.5827 -0.2319  0.2391
   59SAPC   C32 4466   1.286   4.471   5.381 -0.5684  0.4182  0.1061
   59SAPC   H2X 4467   1.314   4.576   5.403  1.5998 -0.0751 -0.1230
   59SAPC   H2Y 4468   1.249   4.448   5.279  0.1703 -0.4601  0.0229
   59SAPC   C23 4469   1.165   3.735   5.526 -0.7944  0.0126  0.0108
   59SAPC   H3R 4470   1.065   3.712   5.568 -0.7185  0.4578  0.4396
   59SAPC   H3S 4471   1.231   3.646   5.531 -0.6770  0.0757 -0.3468
   59SAPC   C24 4472   1.141   3.743   5.367  0.1837 -0.0088 -0.7327
   59SAPC   H4R 4473   1.081   3.651   5.349 -0.8231  0.6637 -0.9005
   59SAPC   H4S 4474   1.244   3.740   5.326 -0.1655 -0.5007 -1.6144
   59SAPC   C25 4475   1.071   3.865   5.314 -0.0420  0.6996  0.1611
   59SAPC   H5R 4476   0.984   3.893   5.375  0.2749  1.9991  0.0344
   59SAPC   C26 4477   1.108   3.951   5.215 -0.5271  0.8631 -0.0310
   59SAPC   H6R 4478   1.040   4.030   5.181 -1.7049 -0.0480  0.1285
   59SAPC   C27 4479   1.232   3.930   5.126 -0.1268  0.2138  0.2156
   59SAPC   H7R 4480   1.208   3.965   5.023  1.1540  1.0432  0.1762
   59SAPC   H7S 4481   1.249   3.824   5.098 -1.0661  0.3729 -1.0558
   59SAPC   C28 4482   1.366   3.962   5.180 -0.1355 -0.0612 -0.8813
   59SAPC   H8R 4483   1.401   3.890   5.256  1.0648  0.2094 -1.1475
   59SAPC   C29 4484   1.456   4.038   5.117  0.4345  0.2855 -0.1870
   59SAPC   H9R 4485   1.537   4.067   5.185  0.8189 -0.8902 -0.1282
   59SAPC  C210 4486   1.448   4.107   4.984 -0.9425  0.0515 -0.8319
   59SAPC  H10R 4487   1.398   4.035   4.916  2.2385 -1.7165 -1.5109
   59SAPC  H10S 4488   1.549   4.114   4.937 -1.1557 -0.6685 -1.4122
   59SAPC  C211 4489   1.369   4.233   4.976  0.1432 -0.5570  0.0606
   59SAPC  H11R 4490   1.302   4.253   5.061 -0.6202  0.3292 -0.7143
   59SAPC  C212 4491   1.381   4.335   4.882  0.2380  0.4023 -0.2737
   59SAPC  H12R 4492   1.317   4.420   4.913  0.4348 -0.4811  2.9460
   59SAPC  C213 4493   1.462   4.341   4.751 -0.9423 -0.4807 -0.1317
   59SAPC  H13R 4494   1.408   4.405   4.678 -1.3019  2.4543  2.5139
   59SAPC  H13S 4495   1.485   4.239   4.712 -0.4719 -1.5551  2.7392
   59SAPC  C214 4496   1.599   4.401   4.782 -0.1147 -0.3483  0.3462
   59SAPC  H14R 4497   1.633   4.392   4.887 -1.2692  0.3633  0.7912
   59SAPC  C215 4498   1.687   4.439   4.688  0.3601  0.6001  0.1284
   59SAPC  H15R 4499   1.785   4.478   4.719 -0.1452  1.8951  0.1531
   59SAPC  C216 4500   1.653   4.440   4.539 -0.4606  0.6497 -0.0975
   59SAPC  H16R 4501   1.555   4.389   4.527  0.4209 -0.8680 -1.1822
   59SAPC  H16S 4502   1.730   4.386   4.480 -1.1583 -1.2548  0.6446
   59SAPC  C217 4503   1.644   4.580   4.470 -0.1344  0.7912  0.4710
   59SAPC  H17R 4504   1.742   4.627   4.489  0.8063 -1.4284  1.3380
   59SAPC  H17S 4505   1.554   4.635   4.507 -0.4371  0.4509  0.2537
   59SAPC  C218 4506   1.639   4.552   4.318 -0.0482 -0.2063 -1.2256
   59SAPC  H18R 4507   1.543   4.498   4.300  0.3369 -1.5046  0.3017
   59SAPC  H18S 4508   1.725   4.485   4.297  1.1865  0.9481 -0.0115
   59SAPC  C219 4509   1.665   4.680   4.245  0.2605 -0.2738 -0.0312
   59SAPC  H19R 4510   1.774   4.703   4.248  0.3790 -0.8618  0.1137
   59SAPC  H19S 4511   1.612   4.758   4.303  0.7074 -1.3780  1.9223
   59SAPC  C220 4512   1.621   4.673   4.105 -0.3928  0.2227  0.1634
   59SAPC  H20R 4513   1.693   4.607   4.053 -0.7058 -0.8644  1.0784
   59SAPC  H20S 4514   1.648   4.775   4.068  3.0474  0.4893  2.9228
   59SAPC  H20T 4515   1.515   4.642   4.091  0.4401 -2.9242 -0.0048
   59SAPC   C33 4516   1.409   4.381   5.403 -1.0147 -0.4658  0.2625
   59SAPC   H3X 4517   1.376   4.276   5.391  0.3858 -0.8357 -0.6632
   59SAPC   H3Y 4518   1.449   4.387   5.506  0.7021 -2.0587 -0.2518
   59SAPC   C34 4519   1.517   4.406   5.293 -1.1575 -0.6939  0.0752
   59SAPC   H4X 4520   1.546   4.513   5.295  0.1537 -1.0299 -0.1302
   59SAPC   H4Y 4521   1.472   4.390   5.193  0.0666 -2.4015 -0.2512
   59SAPC   C35 4522   1.630   4.303   5.315  0.6758 -0.9922 -0.0869
   59SAPC   H5X 4523   1.602   4.196   5.308  0.4029 -0.8696 -1.0612
   59SAPC   H5Y 4524   1.678   4.323   5.413 -0.5760 -1.5746  0.6645
   59SAPC   C36 4525   1.731   4.324   5.205  0.5440 -0.3885  0.2988
   59SAPC   H6X 4526   1.756   4.432   5.201  0.3345 -0.3819 -2.2431
   59SAPC   H6Y 4527   1.682   4.298   5.109  1.0802 -3.0086  0.6700
   59SAPC   C37 4528   1.851   4.235   5.231 -0.6184 -0.1720  0.0813
   59SAPC   H7X 4529   1.815   4.130   5.234 -0.8012 -0.0921  0.7014
   59SAPC   H7Y 4530   1.896   4.263   5.328  0.8093 -1.1654 -0.2534
   59SAPC   C38 4531   1.965   4.244   5.120 -0.5345 -0.0288  0.0591
   59SAPC   H8X 4532   2.043   4.168   5.139 -0.1542  0.5140  0.7192
   59SAPC   H8Y 4533   2.011   4.344   5.129 -0.7153  0.2209 -1.4403
   59SAPC   C39 4534   1.913   4.223   4.979  0.2130 -0.1982 -0.6473
   59SAPC   H9X 4535   1.889   4.315   4.921  2.5362  0.3486 -0.8747
   59SAPC   H9Y 4536   1.829   4.151   4.977  0.7612 -0.9198  0.9886
   59SAPC  C310 4537   2.023   4.159   4.888 -0.0242 -0.1268 -0.9266
   59SAPC  H10X 4538   2.071   4.067   4.926  0.5616  1.2752  2.0189
   59SAPC  H10Y 4539   2.104   4.236   4.891  2.0870 -2.2672  0.0534
   59SAPC  C311 4540   1.970   4.137   4.741 -0.1561  0.6514 -0.4436
   59SAPC  H11X 4541   2.056   4.110   4.676 -0.1954  0.5664 -0.4590
   59SAPC  H11Y 4542   1.921   4.231   4.706  0.9446 -0.0566 -4.3313
   59SAPC  C312 4543   1.860   4.034   4.732 -0.6209 -0.5653 -0.2589
   59SAPC  H12X 4544   1.765   4.072   4.776  0.0820  0.9887  0.0026
   59SAPC  H12Y 4545   1.904   3.947   4.784  0.2390 -0.1711 -0.3004
   59SAPC  C313 4546   1.843   3.978   4.588 -0.4934  0.4265 -0.4740
   59SAPC  H13X 4547   1.784   3.885   4.598 -1.4826  1.1531  0.7646
   59SAPC  H13Y 4548   1.946   3.953   4.553  1.0123  2.2004  2.2137
   59SAPC  C314 4549   1.769   4.078   4.501  0.6862  0.0151  0.0175
   59SAPC  H14X 4550   1.841   4.162   4.487 -0.3263  0.9394  0.2030
   59SAPC  H14Y 4551   1.688   4.132   4.553 -0.3575 -0.4619 -1.0790
   59SAPC  C315 4552   1.730   4.032   4.360  0.2913  0.2485 -0.2822
   59SAPC  H15X 4553   1.636   3.974   4.370 -0.2601  1.4144  1.6211
   59SAPC  H15Y 4554   1.802   3.964   4.308  0.4428  0.3433 -0.1972
   59SAPC  C316 4555   1.706   4.159   4.271 -0.3509  0.2942 -0.4136
   59SAPC  H16X 4556   1.806   4.203   4.251  1.1730 -3.1417 -1.2368
   59SAPC  H16Y 4557   1.651   4.229   4.336 -2.7897 -1.1183 -0.8479
   59SAPC  C317 4558   1.620   4.141   4.143  0.6706  0.3142  0.4023
   59SAPC  H17X 4559   1.530   4.081   4.169  1.2943 -0.6114  0.4346
   59SAPC  H17Y 4560   1.660   4.086   4.055 -2.0313  0.9052 -1.3260
   59SAPC  C318 4561   1.568   4.268   4.081 -0.0914  0.4547  0.3483
   59SAPC  H18X 4562   1.507   4.333   4.147  0.6195  0.3543  1.1209
   59SAPC  H18Y 4563   1.500   4.253   3.994  0.4964  1.0322 -0.2213
   59SAPC  H18Z 4564   1.664   4.315   4.051  0.6288 -1.2721 -0.1941
   60SAPC     N 4565   0.885   4.660   5.772  0.4900  0.3799 -0.3479
   60SAPC   C12 4566   0.974   4.560   5.831 -0.1104 -0.1587  0.1413
   60SAPC  H12A 4567   1.045   4.599   5.903 -0.4681  0.7477  0.0088
   60SAPC  H12B 4568   1.042   4.530   5.753  2.0624  0.2149  1.7893
   60SAPC   C13 4569   0.836   4.606   5.643  0.2134 -0.7820 -0.4126
   60SAPC  H13A 4570   0.915   4.592   5.571 -1.5386 -1.3404 -2.3176
   60SAPC  H13B 4571   0.797   4.508   5.666 -1.0877  0.1020  1.4020
   60SAPC  H13C 4572   0.751   4.661   5.607  0.9071 -0.0578 -0.9631
   60SAPC   C14 4573   0.773   4.691   5.864  0.1128  0.0661  0.0451
   60SAPC  H14A 4574   0.711   4.603   5.874  1.5381 -0.9938 -0.1667
   60SAPC  H14B 4575   0.815   4.721   5.958  1.3984 -1.7327  0.0823
   60SAPC  H14C 4576   0.714   4.773   5.823  0.7735 -0.2719 -1.6438
   60SAPC   C15 4577   0.957   4.796   5.746 -0.2646  0.0164  0.3512
   60SAPC  H15A 4578   1.016   4.784   5.656  0.2742 -2.2718  0.9680
   60SAPC  H15B 4579   0.885   4.876   5.732  0.0797  0.5258  1.3935
   60SAPC  H15C 4580   1.026   4.824   5.825 -1.9081  2.0231  1.1787
   60SAPC   C11 4581   0.913   4.434   5.888  0.0926  0.1011  0.4439
   60SAPC  H11A 4582   0.850   4.452   5.978 -2.7703 -3.0481 -0.7260
   60SAPC  H11B 4583   0.999   4.377   5.928  1.6763  1.4336 -0.9476
   60SAPC     P 4584   0.703   4.297   5.852 -0.0783  0.1498  0.1129
   60SAPC   O13 4585   0.734   4.224   5.977 -0.1843 -0.4563  0.8797
   60SAPC   O14 4586   0.604   4.407   5.865  0.0599 -0.3049 -0.6148
   60SAPC   O12 4587   0.841   4.355   5.798  0.0709 -0.4833  0.3324
   60SAPC   O11 4588   0.658   4.189   5.750  0.1008  0.3208  0.4290
   60SAPC    C1 4589   0.717   4.172   5.619  0.5320  0.5365  0.3196
   60SAPC    HA 4590   0.753   4.266   5.573  0.0297  1.1967  1.2258
   60SAPC    HB 4591   0.802   4.102   5.634 -0.2033 -0.4069  0.2137
   60SAPC    C2 4592   0.617   4.115   5.519  0.7283 -0.5040 -1.2213
   60SAPC    HS 4593   0.573   4.023   5.565  0.7376 -0.3713 -0.9471
   60SAPC   O21 4594   0.678   4.101   5.392  0.1460 -0.3790  0.0757
   60SAPC   C21 4595   0.618   4.011   5.316 -0.3676  0.2716 -0.1403
   60SAPC   O22 4596   0.533   3.935   5.361 -0.1613  0.5410 -0.3365
   60SAPC   C22 4597   0.692   4.004   5.178 -0.0239  0.4250 -1.0507
   60SAPC   H2R 4598   0.650   4.079   5.107  4.6886  2.5723 -1.9296
   60SAPC   H2S 4599   0.798   4.034   5.192  0.3018 -0.2998 -1.9078
   60SAPC    C3 4600   0.483   4.204   5.510 -0.4326 -0.4023 -0.6071
   60SAPC    HX 4601   0.449   4.220   5.614  0.3147  1.8575 -0.6578
   60SAPC    HY 4602   0.398   4.152   5.460  0.3552 -1.1256 -1.2292
   60SAPC   O31 4603   0.517   4.339   5.471 -0.6067  0.1213  0.1029
   60SAPC   C31 4604   0.507   4.368   5.341  0.2057 -0.8606  0.1304
   60SAPC   O32 4605   0.451   4.303   5.253  0.3651 -0.1162  0.0228
   60SAPC   C32 4606   0.569   4.509   5.331 -0.1431 -0.7738  0.5520
   60SAPC   H2X 4607   0.540   4.566   5.423  0.2582  1.2832 -0.5314
   60SAPC   H2Y 4608   0.525   4.567   5.247  0.7018  0.0678  0.6768
   60SAPC   C23 4609   0.688   3.859   5.129  0.3754  0.7492 -0.2146
   60SAPC   H3R 4610   0.589   3.811   5.114  0.1156  1.3300 -0.3766
   60SAPC   H3S 4611   0.726   3.795   5.212  1.8835 -0.5631 -1.8412
   60SAPC   C24 4612   0.787   3.832   5.019 -0.0067 -0.5505  0.1030
   60SAPC   H4R 4613   0.800   3.722   5.012  0.2559 -0.6484  1.7902
   60SAPC   H4S 4614   0.886   3.876   5.044  0.6926 -1.4312 -1.0299
   60SAPC   C25 4615   0.742   3.882   4.887 -0.2082  0.8650 -0.1968
   60SAPC   H5R 4616   0.636   3.870   4.860 -0.8659  2.8150  1.2570
   60SAPC   C26 4617   0.823   3.955   4.808  0.3622  0.2558  0.2431
   60SAPC   H6R 4618   0.792   3.995   4.711  0.3898 -0.6657 -0.1541
   60SAPC   C27 4619   0.960   4.014   4.845 -0.1842  0.2335  0.2489
   60SAPC   H7R 4620   0.977   4.036   4.953  1.1692 -1.3943  0.4230
   60SAPC   H7S 4621   0.983   4.108   4.791  0.6390  0.0191  0.2088
   60SAPC   C28 4622   1.059   3.909   4.797  0.1898  0.0808 -0.7542
   60SAPC   H8R 4623   1.041   3.811   4.842  3.3467 -0.8612 -1.3374
   60SAPC   C29 4624   1.159   3.926   4.707  0.7395  0.2613 -0.3570
   60SAPC   H9R 4625   1.207   3.839   4.661 -0.9992  0.0666 -1.9259
   60SAPC  C210 4626   1.180   4.061   4.644 -0.6670 -0.6627  0.6220
   60SAPC  H10R 4627   1.181   4.140   4.721  0.8345  1.1136 -1.0965
   60SAPC  H10S 4628   1.097   4.089   4.576  0.2187  2.5864  0.7119
   60SAPC  C211 4629   1.308   4.078   4.569 -0.0556  0.1338 -0.4396
   60SAPC  H11R 4630   1.396   4.023   4.605  0.1007 -0.2785 -1.4297
   60SAPC  C212 4631   1.331   4.157   4.457  0.7048 -0.3929 -0.7255
   60SAPC  H12R 4632   1.431   4.178   4.418  0.4690  0.4008 -0.9400
   60SAPC  C213 4633   1.225   4.236   4.384  0.0670  0.5366 -0.0385
   60SAPC  H13R 4634   1.282   4.293   4.308 -1.6222 -0.5416 -2.2040
   60SAPC  H13S 4635   1.190   4.322   4.445 -1.1292  0.5130 -0.6680
   60SAPC  C214 4636   1.113   4.171   4.302  0.1147 -0.3299 -0.3194
   60SAPC  H14R 4637   1.026   4.129   4.354 -1.2431  1.0087 -1.4094
   60SAPC  C215 4638   1.115   4.137   4.173  0.3594  0.0643 -0.6217
   60SAPC  H15R 4639   1.022   4.086   4.144 -0.5829  2.3268 -1.8304
   60SAPC  C216 4640   1.232   4.162   4.070  1.3210 -0.4736 -0.5264
   60SAPC  H16R 4641   1.310   4.083   4.070  0.5597 -1.2247 -0.4736
   60SAPC  H16S 4642   1.292   4.251   4.102 -0.2068 -0.2171  1.8398
   60SAPC  C217 4643   1.190   4.191   3.925 -0.1167  0.2018 -0.2339
   60SAPC  H17R 4644   1.147   4.098   3.882  0.5142 -0.3035  0.2134
   60SAPC  H17S 4645   1.274   4.210   3.855 -2.8271  1.0557 -3.4853
   60SAPC  C218 4646   1.099   4.310   3.908 -0.0727  0.3798  0.2464
   60SAPC  H18R 4647   1.147   4.393   3.965 -3.7614  1.7061  1.7465
   60SAPC  H18S 4648   1.005   4.303   3.968  0.0961  0.5886  0.5373
   60SAPC  C219 4649   1.066   4.359   3.772  0.1387  0.0743 -0.2422
   60SAPC  H19R 4650   1.157   4.377   3.710 -0.0540 -0.3995 -0.6683
   60SAPC  H19S 4651   1.016   4.457   3.783 -3.0422 -1.4501  0.0263
   60SAPC  C220 4652   0.966   4.267   3.708  0.1767 -0.4105 -0.5158
   60SAPC  H20R 4653   1.014   4.167   3.697  2.4363  0.4893  0.4923
   60SAPC  H20S 4654   0.950   4.305   3.605 -1.1523 -0.3618 -0.3150
   60SAPC  H20T 4655   0.866   4.265   3.756 -0.0872 -1.2302 -1.0801
   60SAPC   C33 4656   0.724   4.511   5.327  0.1628  0.2003 -0.3760
   60SAPC   H3X 4657   0.766   4.443   5.405  1.6059 -0.8379 -1.9787
   60SAPC   H3Y 4658   0.764   4.614   5.336  0.9685  0.0897 -2.1733
   60SAPC   C34 4659   0.779   4.455   5.189 -0.5038  0.4606  0.1585
   60SAPC   H4X 4660   0.762   4.535   5.113 -2.2866 -0.1947 -0.1757
   60SAPC   H4Y 4661   0.731   4.360   5.158 -1.1281  1.2428 -1.3595
   60SAPC   C35 4662   0.932   4.433   5.182  0.1627 -0.2135 -0.4348
   60SAPC   H5X 4663   0.963   4.352   5.251 -1.1470 -0.9860 -0.7230
   60SAPC   H5Y 4664   0.976   4.533   5.206 -0.8841 -0.5013  3.4659
   60SAPC   C36 4665   0.977   4.379   5.043 -0.2943 -1.1923  0.3836
   60SAPC   H6X 4666   0.894   4.307   5.023 -2.9635  1.2368  1.8348
   60SAPC   H6Y 4667   1.073   4.325   5.050 -0.1318 -1.2250 -1.6971
   60SAPC   C37 4668   0.985   4.490   4.935  0.3126 -0.9590  0.2328
   60SAPC   H7X 4669   0.888   4.544   4.931  0.9312  0.1997  0.4125
   60SAPC   H7Y 4670   1.010   4.448   4.835  0.6650  0.6551 -0.3758
   60SAPC   C38 4671   1.075   4.614   4.977 -0.1981  0.0791  0.2442
   60SAPC   H8X 4672   1.171   4.575   5.016 -0.5297 -1.2764 -0.2264
   60SAPC   H8Y 4673   1.024   4.682   5.048 -0.1070  1.6917 -1.1705
   60SAPC   C39 4674   1.104   4.705   4.862 -0.3533 -0.6843 -0.2639
   60SAPC   H9X 4675   1.155   4.797   4.896  0.2242 -0.5389 -1.4521
   60SAPC   H9Y 4676   1.009   4.724   4.806 -1.3609 -1.0630  1.2509
   60SAPC  C310 4677   1.196   4.649   4.758 -0.4241  0.2682 -0.5094
   60SAPC  H10X 4678   1.150   4.554   4.723 -1.2409  0.7156 -0.6662
   60SAPC  H10Y 4679   1.298   4.625   4.795 -0.6794 -1.1414 -0.6344
   60SAPC  C311 4680   1.210   4.729   4.626 -0.1283  0.3928 -0.3220
   60SAPC  H11X 4681   1.282   4.812   4.641 -1.2598  1.6618 -1.5799
   60SAPC  H11Y 4682   1.112   4.778   4.606 -0.6033  0.0198  0.9811
   60SAPC  C312 4683   1.222   4.632   4.508  0.4404  0.3065  0.6485
   60SAPC  H12X 4684   1.140   4.558   4.497  1.2714 -0.9290  2.2837
   60SAPC  H12Y 4685   1.320   4.580   4.511 -0.6018 -1.7552  0.8530
   60SAPC  C313 4686   1.225   4.709   4.371 -0.5032  0.0654  0.1105
   60SAPC  H13X 4687   1.227   4.624   4.299 -0.4782 -2.3618  2.8136
   60SAPC  H13Y 4688   1.318   4.768   4.380  0.6747 -2.0287  3.1950
   60SAPC  C314 4689   1.114   4.806   4.323 -0.1223 -0.1558  0.0432
   60SAPC  H14X 4690   1.105   4.903   4.376 -2.3436 -0.3800  0.1696
   60SAPC  H14Y 4691   1.017   4.753   4.336 -0.4556 -0.5881 -3.2486
   60SAPC  C315 4692   1.118   4.835   4.174 -0.5141 -0.5321  0.0326
   60SAPC  H15X 4693   1.136   4.745   4.113 -0.1935  0.0337 -0.7166
   60SAPC  H15Y 4694   1.208   4.899   4.164 -0.7027 -0.5652 -2.3687
   60SAPC  C316 4695   0.993   4.914   4.128  0.3249  0.2084  0.0538
   60SAPC  H16X 4696   0.909   4.842   4.138 -0.3600  0.9932 -0.0090
   60SAPC  H16Y 4697   1.000   4.953   4.025  0.7791  2.4109  0.8670
   60SAPC  C317 4698   0.954   5.037   4.208 -0.4528 -0.7613 -0.5985
   60SAPC  H17X 4699   1.043   5.102   4.220 -0.3300 -0.8277 -1.1170
   60SAPC  H17Y 4700   0.918   5.015   4.311 -0.3931  0.9611 -0.1878
   60SAPC  C318 4701   0.839   5.124   4.148 -0.0354  0.3484  0.6773
   60SAPC  H18X 4702   0.852   5.155   4.042 -0.3345  0.4295  0.6610
   60SAPC  H18Y 4703   0.847   5.224   4.196  2.7186  1.4378 -1.7416
   60SAPC  H18Z 4704   0.740   5.073   4.153  0.2279 -0.8273 -2.9175
   61SAPC     N 4705   5.591   4.895   6.102  0.2035  0.2267 -0.0166
   61SAPC   C12 4706   5.644   4.908   6.247  0.1631 -0.4378 -0.0917
   61SAPC  H12A 4707   5.558   4.934   6.307 -1.0105  0.0458 -1.9046
   61SAPC  H12B 4708   5.696   5.001   6.262 -2.3033  0.8060  1.3364
   61SAPC   C13 4709   5.488   5.002   6.072  0.2884 -0.5849 -0.0216
   61SAPC  H13A 4710   5.438   5.002   5.976 -1.5774 -1.5500  0.9013
   61SAPC  H13B 4711   5.407   5.013   6.142 -0.6939  1.3329 -1.3514
   61SAPC  H13C 4712   5.533   5.099   6.089 -1.0402  0.2461 -0.9762
   61SAPC   C14 4713   5.699   4.904   5.999  0.0975 -1.0194 -0.3044
   61SAPC  H14A 4714   5.759   4.993   6.011 -3.4571  1.5030  0.1431
   61SAPC  H14B 4715   5.754   4.812   6.008 -1.7583 -1.9787  2.5903
   61SAPC  H14C 4716   5.655   4.915   5.901 -1.1572  1.9201  0.4816
   61SAPC   C15 4717   5.518   4.767   6.088 -0.5154 -0.2569 -0.2166
   61SAPC  H15A 4718   5.455   4.743   6.173  0.3577 -1.0220  0.2299
   61SAPC  H15B 4719   5.454   4.757   6.001  0.7370 -1.4815 -1.0573
   61SAPC  H15C 4720   5.585   4.682   6.091 -1.2929 -0.8640  0.5401
   61SAPC   C11 4721   5.733   4.800   6.315  0.0537  0.1461 -0.4785
   61SAPC  H11A 4722   5.666   4.714   6.338 -0.3690  0.8317  0.9845
   61SAPC  H11B 4723   5.766   4.825   6.418  0.6316 -1.1388 -0.3361
   61SAPC     P 4724   5.972   4.854   6.262  0.3235  0.4854 -0.0559
   61SAPC   O13 4725   5.931   4.986   6.313 -0.3961 -0.6705 -0.0643
   61SAPC   O14 4726   6.072   4.776   6.338  0.3434  0.7762  0.9968
   61SAPC   O12 4727   5.844   4.756   6.237  0.6298 -1.0204  0.1521
   61SAPC   O11 4728   6.023   4.870   6.117  0.0594  0.3982 -0.3631
   61SAPC    C1 4729   6.063   4.751   6.038  0.3840 -0.5390  0.0274
   61SAPC    HA 4730   5.998   4.664   6.064  1.9115 -1.4890  0.7773
   61SAPC    HB 4731   6.032   4.787   5.937 -1.4136  0.5299  0.8974
   61SAPC    C2 4732   6.210   4.724   6.036  0.1605  0.0025 -0.6991
   61SAPC    HS 4733   6.248   4.717   6.140 -3.0240  0.2189  0.5685
   61SAPC   O21 4734   6.272   4.826   5.956  0.0613  0.1319 -0.5422
   61SAPC   C21 4735   6.403   4.837   5.971  0.4757  0.5225  0.3121
   61SAPC   O22 4736   6.475   4.777   6.049 -0.8608 -0.6432  0.1166
   61SAPC   C22 4737   6.446   4.937   5.869  0.3126 -0.5308 -0.4711
   61SAPC   H2R 4738   6.435   4.881   5.773  0.0376 -2.0304  0.4038
   61SAPC   H2S 4739   6.377   5.024   5.871 -0.2792 -0.9172 -2.1011
   61SAPC    C3 4740   6.245   4.587   5.974  0.3477  0.6222  0.1267
   61SAPC    HX 4741   6.202   4.499   6.026  2.1519 -1.8280 -2.2773
   61SAPC    HY 4742   6.350   4.565   6.002 -0.7508 -3.9041  1.3823
   61SAPC   O31 4743   6.208   4.574   5.837 -0.0320  0.3145 -0.1276
   61SAPC   C31 4744   6.306   4.551   5.764  0.0607 -0.3410  0.1988
   61SAPC   O32 4745   6.427   4.543   5.790 -0.1235 -0.2787  0.5546
   61SAPC   C32 4746   6.247   4.550   5.624 -0.0601 -0.3828  0.2434
   61SAPC   H2X 4747   6.163   4.481   5.603 -1.0582  0.2192  2.0089
   61SAPC   H2Y 4748   6.324   4.527   5.548  1.2002  0.4113  1.2405
   61SAPC   C23 4749   6.589   4.994   5.900  0.8581 -0.4372 -0.4828
   61SAPC   H3R 4750   6.653   4.903   5.903  1.4424 -0.0417 -0.7604
   61SAPC   H3S 4751   6.600   5.040   6.000  1.3176 -1.7051  0.0730
   61SAPC   C24 4752   6.665   5.086   5.797 -0.0504  0.2526  0.2758
   61SAPC   H4R 4753   6.671   5.042   5.695 -0.5388  0.2345  0.2531
   61SAPC   H4S 4754   6.770   5.094   5.831  0.3941 -1.1079 -0.7179
   61SAPC   C25 4755   6.607   5.227   5.788  0.0159  0.4683 -0.2627
   61SAPC   H5R 4756   6.597   5.273   5.888 -1.5510 -1.1572  0.3934
   61SAPC   C26 4757   6.560   5.283   5.683 -0.2023 -0.6518 -0.0325
   61SAPC   H6R 4758   6.505   5.378   5.687  1.5770  0.5196 -1.3025
   61SAPC   C27 4759   6.556   5.227   5.538  0.6670 -0.1430 -0.3358
   61SAPC   H7R 4760   6.646   5.163   5.531 -0.1886 -1.5319  0.8234
   61SAPC   H7S 4761   6.559   5.306   5.461 -0.2832 -0.7990 -1.0670
   61SAPC   C28 4762   6.427   5.153   5.503 -1.2254  1.0172 -0.5242
   61SAPC   H8R 4763   6.365   5.128   5.590  0.4575  1.2907  0.7964
   61SAPC   C29 4764   6.380   5.119   5.383  0.3626 -0.3983  0.5391
   61SAPC   H9R 4765   6.296   5.049   5.382 -0.7538  0.8892 -0.8609
   61SAPC  C210 4766   6.438   5.146   5.250  0.0730  0.3100  0.1242
   61SAPC  H10R 4767   6.537   5.196   5.256  0.0420  0.3515  0.2812
   61SAPC  H10S 4768   6.378   5.226   5.201 -2.9577 -1.5977  0.4830
   61SAPC  C211 4769   6.444   5.014   5.161 -0.1977 -0.1062 -0.1513
   61SAPC  H11R 4770   6.449   4.915   5.209 -1.4551  0.5688  1.4560
   61SAPC  C212 4771   6.449   5.017   5.028 -0.0141  0.1803 -0.4182
   61SAPC  H12R 4772   6.459   4.927   4.965  0.1860  0.3116 -0.5734
   61SAPC  C213 4773   6.466   5.144   4.946  0.1140 -0.0584 -0.2350
   61SAPC  H13R 4774   6.419   5.236   4.988 -0.3390 -1.0160  1.4364
   61SAPC  H13S 4775   6.409   5.125   4.853 -1.1215 -5.2889  1.2700
   61SAPC  C214 4776   6.610   5.166   4.905 -0.1400  0.5863 -0.0041
   61SAPC  H14R 4777   6.667   5.236   4.969 -1.2132  0.3654  1.2223
   61SAPC  C215 4778   6.671   5.101   4.809  0.3282 -0.1788 -0.3091
   61SAPC  H15R 4779   6.777   5.125   4.798 -0.3913  3.4374 -0.5880
   61SAPC  C216 4780   6.608   4.998   4.718 -0.7977  0.8785  0.1916
   61SAPC  H16R 4781   6.517   4.956   4.766 -1.2444  1.0444 -0.4859
   61SAPC  H16S 4782   6.679   4.919   4.686  0.1297  1.1105  1.5901
   61SAPC  C217 4783   6.576   5.056   4.580 -0.1870  0.0748  0.2933
   61SAPC  H17R 4784   6.673   5.088   4.537  1.3015 -1.1941  2.4705
   61SAPC  H17S 4785   6.494   5.130   4.584 -0.8767 -0.7039  1.2853
   61SAPC  C218 4786   6.514   4.941   4.490 -0.3120  0.1997 -0.4533
   61SAPC  H18R 4787   6.424   4.895   4.537  1.6130 -0.9293  2.4004
   61SAPC  H18S 4788   6.587   4.857   4.496  1.4052  1.6681 -0.1357
   61SAPC  C219 4789   6.478   4.978   4.345 -0.1172 -0.4644 -0.7276
   61SAPC  H19R 4790   6.558   5.047   4.309 -1.3425  0.3158 -2.0815
   61SAPC  H19S 4791   6.393   5.050   4.342  0.4667  0.3272  0.4277
   61SAPC  C220 4792   6.465   4.862   4.239  1.1716 -0.3032 -0.3311
   61SAPC  H20R 4793   6.423   4.899   4.143  1.2039  0.0119 -0.2255
   61SAPC  H20S 4794   6.407   4.777   4.281 -1.2843  1.0047 -0.8672
   61SAPC  H20T 4795   6.569   4.832   4.214  1.0491  0.6569 -2.2465
   61SAPC   C33 4796   6.201   4.693   5.595 -0.6438 -0.0948  0.0712
   61SAPC   H3X 4797   6.290   4.760   5.584 -0.5959 -0.3751 -1.6469
   61SAPC   H3Y 4798   6.145   4.741   5.677  0.2737 -0.3099  0.8419
   61SAPC   C34 4799   6.108   4.704   5.474 -0.5161  0.0867  0.0266
   61SAPC   H4X 4800   6.094   4.812   5.454 -0.4008  0.5917  2.4535
   61SAPC   H4Y 4801   6.012   4.649   5.484 -0.3741 -0.4316 -1.2622
   61SAPC   C35 4802   6.172   4.658   5.345  0.1090 -0.1744 -0.1901
   61SAPC   H5X 4803   6.170   4.549   5.328  1.7633 -0.0947 -1.1001
   61SAPC   H5Y 4804   6.281   4.679   5.353 -0.3619  2.0879  1.2683
   61SAPC   C36 4805   6.127   4.738   5.223 -0.2119 -0.1265  0.4368
   61SAPC   H6X 4806   6.151   4.847   5.230  0.9681 -0.3734  0.4600
   61SAPC   H6Y 4807   6.017   4.725   5.217 -0.4554  2.0194 -1.6175
   61SAPC   C37 4808   6.202   4.687   5.093 -0.6512 -0.0744  0.1341
   61SAPC   H7X 4809   6.206   4.576   5.100 -2.0474 -0.0646  2.8774
   61SAPC   H7Y 4810   6.307   4.721   5.095 -1.4981  2.7790  1.5632
   61SAPC   C38 4811   6.137   4.741   4.965  0.4993  0.1518  0.4154
   61SAPC   H8X 4812   6.139   4.851   4.956 -0.5332  0.0975 -0.5734
   61SAPC   H8Y 4813   6.030   4.714   4.954  0.9374 -1.0443 -1.3739
   61SAPC   C39 4814   6.211   4.698   4.836 -0.6007  0.8074  0.2190
   61SAPC   H9X 4815   6.232   4.590   4.843 -0.3969  0.9050  1.3287
   61SAPC   H9Y 4816   6.309   4.748   4.827 -0.0054 -0.0701  1.5271
   61SAPC  C310 4817   6.133   4.733   4.709  0.1821  0.3423 -0.4756
   61SAPC  H10X 4818   6.101   4.839   4.700 -1.4000  0.2727  2.9268
   61SAPC  H10Y 4819   6.036   4.680   4.717  0.4347 -0.2427 -1.2500
   61SAPC  C311 4820   6.210   4.694   4.587  0.1371  0.7602  0.2979
   61SAPC  H11X 4821   6.217   4.583   4.588  1.6124  0.8249  1.2684
   61SAPC  H11Y 4822   6.316   4.727   4.589  0.5346 -0.4881  0.6382
   61SAPC  C312 4823   6.146   4.736   4.456  0.4419 -0.4248  0.7006
   61SAPC  H12X 4824   6.214   4.711   4.372 -0.5405  0.0180 -0.2476
   61SAPC  H12Y 4825   6.123   4.845   4.456  0.9581 -0.3147  0.9252
   61SAPC  C313 4826   6.014   4.654   4.432  0.1166  0.0283 -1.3132
   61SAPC  H13X 4827   5.928   4.715   4.465 -1.1883 -1.5043 -1.7119
   61SAPC  H13Y 4828   6.015   4.559   4.489  0.7766  1.8641  1.9766
   61SAPC  C314 4829   5.992   4.616   4.282 -0.8839 -0.2161 -0.2675
   61SAPC  H14X 4830   6.042   4.518   4.268  0.8031  0.4813  0.5395
   61SAPC  H14Y 4831   6.055   4.684   4.221 -1.0923 -0.4626 -0.7643
   61SAPC  C315 4832   5.849   4.619   4.223  0.0131  0.9114 -0.1296
   61SAPC  H15X 4833   5.817   4.726   4.223 -1.8175  0.4090  1.1658
   61SAPC  H15Y 4834   5.768   4.564   4.276 -2.1297  1.5017 -2.5876
   61SAPC  C316 4835   5.847   4.570   4.070 -0.2746  0.7148 -0.0444
   61SAPC  H16X 4836   5.912   4.480   4.060 -1.7029 -0.3292 -0.3658
   61SAPC  H16Y 4837   5.907   4.647   4.018 -0.7428 -0.7762 -2.9805
   61SAPC  C317 4838   5.712   4.556   3.999 -0.6578 -1.3032 -0.1489
   61SAPC  H17X 4839   5.640   4.525   4.078 -1.6444 -1.9780 -1.2777
   61SAPC  H17Y 4840   5.709   4.478   3.919 -1.8961 -1.1449 -0.2845
   61SAPC  C318 4841   5.658   4.683   3.932  0.8287 -0.0573 -0.3293
   61SAPC  H18X 4842   5.557   4.651   3.901  1.1035 -2.0403  0.6337
   61SAPC  H18Y 4843   5.718   4.721   3.847 -0.4006 -2.1979 -2.2446
   61SAPC  H18Z 4844   5.649   4.763   4.009  1.3811 -0.6648  0.3861
   62SAPC     N 4845   6.923   2.087   6.104  0.1827 -0.0159 -0.4194
   62SAPC   C12 4846   7.013   2.161   5.997 -0.3517 -0.4257 -0.4796
   62SAPC  H12A 4847   7.038   2.085   5.925  2.2486  0.6651 -0.8238
   62SAPC  H12B 4848   7.105   2.193   6.042  0.8782 -1.3208 -2.2580
   62SAPC   C13 4849   6.884   2.191   6.197 -0.3294 -0.3433 -0.1673
   62SAPC  H13A 4850   6.869   2.285   6.147 -0.3829  0.8424  1.9759
   62SAPC  H13B 4851   6.786   2.167   6.236 -0.0966  1.6088  1.8124
   62SAPC  H13C 4852   6.957   2.207   6.274  1.9027 -1.8175 -1.8419
   62SAPC   C14 4853   6.804   2.038   6.030 -0.1347  0.4334 -0.2489
   62SAPC  H14A 4854   6.825   1.954   5.966 -1.7001  0.2015 -0.4765
   62SAPC  H14B 4855   6.733   1.996   6.099 -0.5895  0.5407 -0.6502
   62SAPC  H14C 4856   6.753   2.114   5.972  0.8757 -1.0371 -3.2762
   62SAPC   C15 4857   6.994   1.975   6.176 -0.4879  0.3164  0.5068
   62SAPC  H15A 4858   6.919   1.936   6.243 -1.5643  0.5801 -0.5134
   62SAPC  H15B 4859   7.030   1.897   6.109  1.4403 -0.4155  2.2734
   62SAPC  H15C 4860   7.083   2.006   6.228 -0.3298  1.0135 -0.1627
   62SAPC   C11 4861   6.948   2.279   5.911 -0.6120 -0.7171 -0.3073
   62SAPC  H11A 4862   6.844   2.256   5.879 -1.0027  0.8945 -0.2941
   62SAPC  H11B 4863   7.009   2.291   5.819 -1.8412  2.4569 -0.8562
   62SAPC     P 4864   7.084   2.488   6.002 -0.0535 -0.0908  0.0406
   62SAPC   O13 4865   7.067   2.589   6.104  0.0912 -0.4656 -0.1752
   62SAPC   O14 4866   7.201   2.399   6.016  0.4095  0.2418  0.7911
   62SAPC   O12 4867   6.952   2.404   5.984  0.0829  0.3048 -0.0848
   62SAPC   O11 4868   7.084   2.552   5.857 -0.5279 -0.6868 -0.1945
   62SAPC    C1 4869   7.186   2.647   5.822  0.7497 -0.0966 -0.0289
   62SAPC    HA 4870   7.146   2.750   5.805  1.0897  0.3002  1.4163
   62SAPC    HB 4871   7.252   2.669   5.908 -1.2427  0.1521  1.5003
   62SAPC    C2 4872   7.264   2.600   5.691 -0.3656  0.2914 -0.7756
   62SAPC    HS 4873   7.340   2.672   5.656  1.6563 -0.8610  0.9927
   62SAPC   O21 4874   7.181   2.566   5.581 -0.3704  0.0495 -0.1527
   62SAPC   C21 4875   7.144   2.677   5.507  0.0424  0.5968 -0.6999
   62SAPC   O22 4876   7.193   2.790   5.518 -0.1762  0.3721 -0.1445
   62SAPC   C22 4877   7.047   2.639   5.408  0.3753  0.6267  0.1364
   62SAPC   H2R 4878   7.061   2.530   5.399  1.3604  0.5592  1.9300
   62SAPC   H2S 4879   6.949   2.669   5.449  0.3443  1.5778 -0.5980
   62SAPC    C3 4880   7.350   2.476   5.730 -0.2544 -0.8879 -0.1325
   62SAPC    HX 4881   7.274   2.395   5.734  1.4368 -2.5312  0.8290
   62SAPC    HY 4882   7.395   2.496   5.830  1.4202  0.6749 -1.1295
   62SAPC   O31 4883   7.455   2.436   5.638  0.5315  0.3303 -0.1021
   62SAPC   C31 4884   7.561   2.511   5.640  0.1853  0.0411  0.5290
   62SAPC   O32 4885   7.590   2.605   5.715  0.6251  0.5260  0.1582
   62SAPC   C32 4886   7.653   2.468   5.528  0.3489  0.3204 -0.1922
   62SAPC   H2X 4887   7.663   2.357   5.534  1.8127  0.4553  0.1328
   62SAPC   H2Y 4888   7.751   2.502   5.567  0.5703 -1.1033  0.5471
   62SAPC   C23 4889   7.075   2.710   5.279 -0.0939  0.2009 -0.0196
   62SAPC   H3R 4890   7.060   2.819   5.274 -2.4340  0.0474  2.0502
   62SAPC   H3S 4891   7.004   2.674   5.201 -1.2597 -1.4303  1.6917
   62SAPC   C24 4892   7.222   2.685   5.222 -0.3285  0.0121  1.1370
   62SAPC   H4R 4893   7.295   2.736   5.289 -0.6552  1.0714  0.7013
   62SAPC   H4S 4894   7.221   2.751   5.133  0.0024 -0.2204  0.9570
   62SAPC   C25 4895   7.267   2.543   5.175  0.6000 -0.4939  0.1667
   62SAPC   H5R 4896   7.273   2.467   5.255  0.1511  0.4748  1.1586
   62SAPC   C26 4897   7.318   2.511   5.053 -0.5475  0.4490 -0.3552
   62SAPC   H6R 4898   7.364   2.412   5.039  2.0219  1.3234  1.2090
   62SAPC   C27 4899   7.344   2.591   4.929 -0.0545 -0.4848  0.1490
   62SAPC   H7R 4900   7.445   2.577   4.885 -0.7331  1.7388 -2.3934
   62SAPC   H7S 4901   7.345   2.699   4.951  1.7405 -0.7736  1.7485
   62SAPC   C28 4902   7.233   2.559   4.831  0.1590  0.0524  0.7228
   62SAPC   H8R 4903   7.129   2.560   4.868  0.7786 -1.4008  2.6745
   62SAPC   C29 4904   7.251   2.556   4.696 -0.2867 -0.2453 -0.9324
   62SAPC   H9R 4905   7.162   2.561   4.632  0.0595  1.2728 -1.3226
   62SAPC  C210 4906   7.379   2.570   4.625  0.2751  0.2442  0.7096
   62SAPC  H10R 4907   7.453   2.635   4.676 -0.7625  2.8339 -0.8994
   62SAPC  H10S 4908   7.361   2.623   4.529 -0.8216 -0.4031  0.5455
   62SAPC  C211 4909   7.439   2.435   4.602  0.2385 -0.2242 -0.1955
   62SAPC  H11R 4910   7.480   2.387   4.693  0.5098 -0.6691 -0.5501
   62SAPC  C212 4911   7.467   2.366   4.487  0.9876  0.3449 -0.1260
   62SAPC  H12R 4912   7.527   2.274   4.497 -1.6286 -1.4487  0.3840
   62SAPC  C213 4913   7.439   2.405   4.342 -0.8619 -0.9090  0.2383
   62SAPC  H13R 4914   7.361   2.484   4.343  0.5005  0.4881  0.7735
   62SAPC  H13S 4915   7.405   2.315   4.286 -0.1075 -1.5441  0.7706
   62SAPC  C214 4916   7.562   2.463   4.273 -0.6386 -0.2585  0.5879
   62SAPC  H14R 4917   7.613   2.544   4.327  1.3942  0.1959 -1.8111
   62SAPC  C215 4918   7.627   2.421   4.165  0.7140 -0.4695 -0.5424
   62SAPC  H15R 4919   7.719   2.474   4.138  0.4563  0.9231  1.1766
   62SAPC  C216 4920   7.594   2.306   4.065 -0.0080 -0.0216  0.7178
   62SAPC  H16R 4921   7.584   2.346   3.962 -2.1665  1.4892  1.4337
   62SAPC  H16S 4922   7.497   2.262   4.096  0.1303  0.2200  1.5166
   62SAPC  C217 4923   7.698   2.188   4.067  0.3562 -0.2913  0.3037
   62SAPC  H17R 4924   7.694   2.133   4.163  1.6345  1.0080  1.1392
   62SAPC  H17S 4925   7.799   2.230   4.047  0.7394 -1.3109  0.0146
   62SAPC  C218 4926   7.660   2.082   3.958  0.0045 -0.3505  0.3764
   62SAPC  H18R 4927   7.658   2.145   3.867 -0.2138  0.8437  1.1972
   62SAPC  H18S 4928   7.556   2.051   3.980 -0.7311  0.9293 -1.1486
   62SAPC  C219 4929   7.771   1.974   3.940  0.3907  0.1330  0.4750
   62SAPC  H19R 4930   7.791   1.935   4.042  1.2726  1.9883  1.0641
   62SAPC  H19S 4931   7.866   2.025   3.915  1.5106 -1.3128  1.5719
   62SAPC  C220 4932   7.731   1.863   3.841  0.1261 -0.0773 -0.0557
   62SAPC  H20R 4933   7.815   1.794   3.817  0.9021  0.1953  1.7182
   62SAPC  H20S 4934   7.690   1.909   3.749  0.4686 -1.8453 -1.1205
   62SAPC  H20T 4935   7.652   1.798   3.885  1.3830 -2.7820 -1.5410
   62SAPC   C33 4936   7.619   2.532   5.388  0.7356  0.3517 -1.0110
   62SAPC   H3X 4937   7.610   2.640   5.411 -1.6177 -0.3548  2.0778
   62SAPC   H3Y 4938   7.522   2.492   5.350  0.6619  0.0175 -0.4804
   62SAPC   C34 4939   7.727   2.506   5.281  0.0168 -0.2138  0.2743
   62SAPC   H4X 4940   7.738   2.397   5.264 -1.1000 -0.0666 -1.7672
   62SAPC   H4Y 4941   7.818   2.556   5.321  2.1957 -3.0728 -0.7717
   62SAPC   C35 4942   7.678   2.572   5.147 -0.3903  0.5210 -0.2211
   62SAPC   H5X 4943   7.640   2.675   5.165  0.2419  0.5704  0.8815
   62SAPC   H5Y 4944   7.600   2.508   5.101 -1.6246  1.3482  0.6495
   62SAPC   C36 4945   7.801   2.590   5.052  0.3713 -0.0198  0.3910
   62SAPC   H6X 4946   7.835   2.485   5.039  0.8019 -0.2695  3.0143
   62SAPC   H6Y 4947   7.880   2.656   5.093 -0.7727  2.0373 -0.5745
   62SAPC   C37 4948   7.757   2.655   4.914  0.1027  0.4389 -0.3498
   62SAPC   H7X 4949   7.730   2.759   4.944 -0.2140  0.0273  0.8536
   62SAPC   H7Y 4950   7.661   2.606   4.887 -0.9863  2.4033 -0.2564
   62SAPC   C38 4951   7.870   2.652   4.807 -0.2490 -0.2890 -0.1549
   62SAPC   H8X 4952   7.901   2.547   4.788  1.0877  0.2015 -0.8375
   62SAPC   H8Y 4953   7.962   2.705   4.841  0.9265 -0.9936 -2.0654
   62SAPC   C39 4954   7.822   2.711   4.674  0.1399  0.0089 -0.5541
   62SAPC   H9X 4955   7.790   2.815   4.699 -2.1218 -0.8605  0.4234
   62SAPC   H9Y 4956   7.730   2.654   4.647 -0.5263  0.4864  0.6132
   62SAPC  C310 4957   7.927   2.697   4.569 -0.2181 -0.2830 -0.0108
   62SAPC  H10X 4958   7.977   2.598   4.567  0.2115 -0.1394  1.7848
   62SAPC  H10Y 4959   8.011   2.765   4.595  0.6017 -0.6363 -1.5769
   62SAPC  C311 4960   7.883   2.740   4.428 -0.0577 -0.0612  0.7891
   62SAPC  H11X 4961   7.849   2.846   4.428 -3.1859 -0.9200 -1.3644
   62SAPC  H11Y 4962   7.800   2.677   4.390  1.0377 -0.5119 -0.9954
   62SAPC  C312 4963   7.999   2.734   4.320 -0.5223 -0.0206  0.0934
   62SAPC  H12X 4964   8.050   2.636   4.323  1.6204  1.0087 -0.3201
   62SAPC  H12Y 4965   8.079   2.805   4.350  0.1228 -0.5700 -0.2963
   62SAPC  C313 4966   7.954   2.770   4.178  0.2257  0.3420  0.3205
   62SAPC  H13X 4967   7.918   2.875   4.164 -1.7540 -0.2747  0.4541
   62SAPC  H13Y 4968   7.863   2.709   4.163 -0.6114  0.8010  3.0178
   62SAPC  C314 4969   8.070   2.751   4.078  0.1409 -0.0485 -0.7641
   62SAPC  H14X 4970   8.154   2.799   4.131 -1.8776  0.1301  2.5248
   62SAPC  H14Y 4971   8.042   2.810   3.988 -1.7151  1.6099  0.8150
   62SAPC  C315 4972   8.095   2.608   4.037 -0.8907  1.1681  0.3079
   62SAPC  H15X 4973   8.146   2.558   4.122  0.1711  2.3481  0.3959
   62SAPC  H15Y 4974   8.162   2.615   3.948 -2.1092  2.9171 -0.5288
   62SAPC  C316 4975   7.972   2.542   3.977 -0.1769  0.5683  0.8466
   62SAPC  H16X 4976   7.905   2.515   4.061  0.2883  0.2936  1.1325
   62SAPC  H16Y 4977   8.016   2.449   3.936  1.5294  2.1187 -1.0437
   62SAPC  C317 4978   7.886   2.618   3.879 -0.2802 -0.0015 -0.9307
   62SAPC  H17X 4979   7.860   2.714   3.929  3.1196 -0.0742  1.3112
   62SAPC  H17Y 4980   7.796   2.556   3.862 -2.7147  2.6322  1.3561
   62SAPC  C318 4981   7.961   2.649   3.747  0.0613  0.1619  0.0696
   62SAPC  H18X 4982   7.901   2.707   3.674 -0.6038  2.1203  2.0634
   62SAPC  H18Y 4983   8.003   2.556   3.703 -0.7549 -0.5818  0.8488
   62SAPC  H18Z 4984   8.043   2.721   3.767 -0.4103  0.8907 -0.5704
   63SAPC     N 4985   1.628   6.809   6.235  0.3130 -0.0136 -0.5345
   63SAPC   C12 4986   1.548   6.702   6.165  0.0780 -0.1070 -0.4879
   63SAPC  H12A 4987   1.471   6.742   6.101 -1.6777 -3.0442 -0.3724
   63SAPC  H12B 4988   1.488   6.642   6.232  0.4192 -1.3225 -1.2427
   63SAPC   C13 4989   1.735   6.744   6.315  0.4624 -0.2896 -0.6802
   63SAPC  H13A 4990   1.806   6.701   6.247 -0.0617 -0.0996 -1.3580
   63SAPC  H13B 4991   1.785   6.808   6.386  2.2927 -4.7886  2.6119
   63SAPC  H13C 4992   1.693   6.669   6.382 -1.8346  2.0900  0.7599
   63SAPC   C14 4993   1.678   6.901   6.140 -0.2286  0.7411  0.1628
   63SAPC  H14A 4994   1.732   6.853   6.060 -0.1967  0.3250  0.4281
   63SAPC  H14B 4995   1.606   6.957   6.083 -0.2842  3.1334  2.3809
   63SAPC  H14C 4996   1.740   6.979   6.179  0.8260  1.0493 -1.9985
   63SAPC   C15 4997   1.547   6.881   6.329 -0.0928 -0.7562 -0.2393
   63SAPC  H15A 4998   1.464   6.933   6.284  0.5522  0.5631  0.0536
   63SAPC  H15B 4999   1.501   6.824   6.409  0.3030  3.0298  3.0028
   63SAPC  H15C 5000   1.600   6.965   6.370 -1.6683  0.1614 -0.0148
   63SAPC   C11 5001   1.634   6.597   6.082  0.2534 -0.4442 -0.4594
   63SAPC  H11A 5002   1.566   6.516   6.047  0.2420 -0.7626  0.2810
   63SAPC  H11B 5003   1.703   6.546   6.152 -0.9323  1.8315  2.5692
   63SAPC     P 5004   1.657   6.687   5.825  0.3329  0.2765 -0.1487
   63SAPC   O13 5005   1.510   6.691   5.823 -0.2611 -0.3744 -0.6254
   63SAPC   O14 5006   1.731   6.807   5.791  0.2929 -0.4175  0.5626
   63SAPC   O12 5007   1.710   6.654   5.970  0.5857  0.2178 -0.1293
   63SAPC   O11 5008   1.705   6.564   5.739  0.7361  0.1317  0.1669
   63SAPC    C1 5009   1.837   6.516   5.742  0.1530 -0.1739  0.0715
   63SAPC    HA 5010   1.907   6.583   5.796  0.8900 -0.8562 -0.0113
   63SAPC    HB 5011   1.842   6.416   5.790 -1.3934  0.5497  1.8306
   63SAPC    C2 5012   1.882   6.495   5.594  0.2289 -0.3594 -0.4753
   63SAPC    HS 5013   1.987   6.461   5.603  0.9463  2.1181  1.5215
   63SAPC   O21 5014   1.879   6.615   5.521 -0.2324 -0.4032 -0.4115
   63SAPC   C21 5015   1.958   6.707   5.573 -0.3390  0.1722 -0.1877
   63SAPC   O22 5016   2.053   6.684   5.648  0.2999  0.4384  0.4434
   63SAPC   C22 5017   1.929   6.839   5.503  0.2166 -0.3437 -0.4770
   63SAPC   H2R 5018   1.820   6.837   5.483 -0.1535  1.3892  1.0860
   63SAPC   H2S 5019   1.939   6.918   5.580  2.9248 -2.1987  1.2561
   63SAPC    C3 5020   1.798   6.381   5.520  0.2134 -0.0680  0.4807
   63SAPC    HX 5021   1.690   6.384   5.544  0.6600 -1.0080  2.8998
   63SAPC    HY 5022   1.835   6.289   5.571  2.1739 -0.0938 -0.8734
   63SAPC   O31 5023   1.827   6.364   5.377 -0.1718  0.2222 -0.4116
   63SAPC   C31 5024   1.740   6.401   5.284  0.3671 -0.0771  0.3963
   63SAPC   O32 5025   1.629   6.445   5.308  0.6644  0.5429 -0.8991
   63SAPC   C32 5026   1.806   6.393   5.147 -0.4735  0.3068  0.3751
   63SAPC   H2X 5027   1.861   6.297   5.151  1.2695  1.3052  1.0434
   63SAPC   H2Y 5028   1.890   6.465   5.148 -1.2857  1.3482 -1.3435
   63SAPC   C23 5029   2.028   6.873   5.394 -0.3980  0.5355  0.3849
   63SAPC   H3R 5030   2.134   6.872   5.429 -0.6317 -0.3797  1.1070
   63SAPC   H3S 5031   2.013   6.973   5.350  2.1625  0.0893 -1.7662
   63SAPC   C24 5032   2.028   6.775   5.278 -0.1811 -0.0277  0.1653
   63SAPC   H4R 5033   2.061   6.675   5.315 -0.7213  0.0495  0.8823
   63SAPC   H4S 5034   2.115   6.798   5.212  0.4636 -2.7130 -0.0461
   63SAPC   C25 5035   1.892   6.765   5.203 -0.1009 -0.5020 -0.2249
   63SAPC   H5R 5036   1.811   6.752   5.276  0.0725  0.5513  0.1783
   63SAPC   C26 5037   1.853   6.767   5.072 -0.1572 -0.2572  0.5441
   63SAPC   H6R 5038   1.746   6.752   5.053 -0.3737 -1.0140  2.1248
   63SAPC   C27 5039   1.942   6.776   4.950 -0.6686 -0.6213  0.6661
   63SAPC   H7R 5040   1.936   6.688   4.882 -1.6773 -0.1205  0.0743
   63SAPC   H7S 5041   2.044   6.778   4.993 -0.8154 -0.3428  0.9993
   63SAPC   C28 5042   1.914   6.906   4.881 -0.0796  0.0477  0.2686
   63SAPC   H8R 5043   1.871   6.987   4.941 -2.4626 -0.6800 -0.3718
   63SAPC   C29 5044   1.937   6.929   4.748 -0.2132  0.8038 -0.6222
   63SAPC   H9R 5045   1.914   7.029   4.709  1.2728  2.3315  2.1851
   63SAPC  C210 5046   1.995   6.828   4.645  0.2089  0.4328  0.4493
   63SAPC  H10R 5047   1.913   6.780   4.586 -3.2600  5.2873  0.7194
   63SAPC  H10S 5048   2.058   6.747   4.688  0.5915  0.4775 -0.0167
   63SAPC  C211 5049   2.081   6.906   4.547  0.3988 -0.1260 -0.5172
   63SAPC  H11R 5050   2.186   6.877   4.563  0.0959 -1.5374 -0.9455
   63SAPC  C212 5051   2.051   6.990   4.443 -0.2652  0.0614 -0.1864
   63SAPC  H12R 5052   2.135   7.039   4.392  0.8537  0.4315  1.8885
   63SAPC  C213 5053   1.906   7.020   4.405 -0.6792  0.0250 -0.1350
   63SAPC  H13R 5054   1.897   7.128   4.382  1.6828  0.4968  0.9296
   63SAPC  H13S 5055   1.837   7.002   4.491 -0.9853 -0.4225 -0.4656
   63SAPC  C214 5056   1.855   6.928   4.301 -0.6471 -0.1207  0.7959
   63SAPC  H14R 5057   1.820   6.830   4.338  0.6089  0.4950  4.0301
   63SAPC  C215 5058   1.849   6.944   4.173 -0.1660 -0.2586  0.7886
   63SAPC  H15R 5059   1.822   6.859   4.109  0.3468  1.6999 -2.2188
   63SAPC  C216 5060   1.887   7.055   4.081  0.5813 -0.7526 -1.0482
   63SAPC  H16R 5061   1.896   7.152   4.135 -2.8796 -0.3697 -0.9307
   63SAPC  H16S 5062   1.805   7.069   4.007  1.2135 -0.1603 -1.6527
   63SAPC  C217 5063   2.015   7.028   4.005 -0.5794 -0.0537  0.0876
   63SAPC  H17R 5064   2.040   6.920   3.995  0.4934 -0.0247  2.0539
   63SAPC  H17S 5065   2.092   7.080   4.065 -0.4384  0.1210 -0.2420
   63SAPC  C218 5066   2.009   7.086   3.860 -0.6110 -0.0806 -0.5957
   63SAPC  H18R 5067   1.951   7.181   3.852  1.3077  1.3413  1.2458
   63SAPC  H18S 5068   1.941   7.014   3.809 -0.7203 -1.0445  0.8551
   63SAPC  C219 5069   2.141   7.115   3.792  0.8381 -0.7283  0.5874
   63SAPC  H19R 5070   2.198   7.021   3.805  0.1897 -0.9980  1.5346
   63SAPC  H19S 5071   2.202   7.186   3.852 -0.6164 -0.4387  1.7599
   63SAPC  C220 5072   2.131   7.154   3.648  0.0840 -0.3916 -0.6164
   63SAPC  H20R 5073   2.097   7.064   3.592 -1.0691 -0.1319 -0.3594
   63SAPC  H20S 5074   2.235   7.170   3.613  0.0309 -1.4656 -1.2997
   63SAPC  H20T 5075   2.067   7.243   3.629  1.1692  0.9144  1.5361
   63SAPC   C33 5076   1.704   6.421   5.036 -0.2338 -0.3927  0.8753
   63SAPC   H3X 5077   1.639   6.507   5.066  0.4297  0.2363  0.5141
   63SAPC   H3Y 5078   1.635   6.334   5.045 -0.3454 -0.3757  0.2013
   63SAPC   C34 5079   1.760   6.436   4.891  0.3124 -0.4433  0.2701
   63SAPC   H4X 5080   1.864   6.399   4.882  0.9515  0.4065  3.0767
   63SAPC   H4Y 5081   1.780   6.545   4.884  1.2995 -0.4656  2.1399
   63SAPC   C35 5082   1.662   6.382   4.789 -0.2098 -0.5129  0.9223
   63SAPC   H5X 5083   1.552   6.389   4.805 -0.6269 -1.3290 -1.1997
   63SAPC   H5Y 5084   1.673   6.271   4.785 -0.7402 -0.6916  3.3025
   63SAPC   C36 5085   1.685   6.432   4.642 -0.3286 -0.1868  0.1941
   63SAPC   H6X 5086   1.696   6.543   4.633  1.3799 -0.1214  2.3106
   63SAPC   H6Y 5087   1.600   6.403   4.578  0.3069  0.4614 -0.9825
   63SAPC   C37 5088   1.809   6.369   4.553  0.5825 -0.6029 -1.0049
   63SAPC   H7X 5089   1.904   6.393   4.605  0.7887 -1.1852 -1.1078
   63SAPC   H7Y 5090   1.794   6.397   4.447 -0.6962 -0.7563 -0.8835
   63SAPC   C38 5091   1.824   6.216   4.551 -0.1464  0.4815 -0.6366
   63SAPC   H8X 5092   1.726   6.168   4.530 -0.4508  0.7635  0.0947
   63SAPC   H8Y 5093   1.845   6.183   4.655 -0.4205  0.9933 -0.4093
   63SAPC   C39 5094   1.932   6.162   4.456 -0.5689 -0.0937 -1.1295
   63SAPC   H9X 5095   2.019   6.228   4.475 -1.5649  0.5231  1.9000
   63SAPC   H9Y 5096   1.883   6.174   4.357 -1.8866 -2.5037 -0.8312
   63SAPC  C310 5097   1.962   6.013   4.493  0.0504 -0.0354  0.2322
   63SAPC  H10X 5098   1.868   5.954   4.504  0.8615 -1.1576  1.4246
   63SAPC  H10Y 5099   2.008   6.010   4.594 -0.2180 -0.9839  0.3302
   63SAPC  C311 5100   2.046   5.951   4.379 -0.8144  0.5664  0.8408
   63SAPC  H11X 5101   1.995   5.947   4.281  1.7932 -0.1961 -0.5887
   63SAPC  H11Y 5102   2.068   5.843   4.389 -0.2085  0.3562 -2.0150
   63SAPC  C312 5103   2.181   6.030   4.363  0.0729  0.0857 -0.5833
   63SAPC  H12X 5104   2.219   6.022   4.467 -2.9092 -0.9602  0.5448
   63SAPC  H12Y 5105   2.152   6.133   4.335 -3.0866 -0.0075  1.7251
   63SAPC  C313 5106   2.271   5.953   4.269  0.4066 -0.6193 -0.2271
   63SAPC  H13X 5107   2.226   5.957   4.167 -0.7263 -0.6356  0.2540
   63SAPC  H13Y 5108   2.291   5.849   4.303 -2.5446 -0.8303  1.2234
   63SAPC  C314 5109   2.400   6.025   4.258  0.5354 -0.3595  0.1771
   63SAPC  H14X 5110   2.443   6.021   4.360 -1.5340  0.6778  1.1512
   63SAPC  H14Y 5111   2.375   6.131   4.235  0.1610 -0.0995  1.6680
   63SAPC  C315 5112   2.498   5.963   4.158 -0.2735  0.7089 -0.1263
   63SAPC  H15X 5113   2.451   5.944   4.060  0.6635 -0.5278 -0.3640
   63SAPC  H15Y 5114   2.531   5.865   4.198 -1.3346 -0.6455 -2.3784
   63SAPC  C316 5115   2.617   6.058   4.136 -0.8343  0.4689 -0.1472
   63SAPC  H16X 5116   2.694   6.006   4.076  0.0322  1.2134  0.2900
   63SAPC  H16Y 5117   2.651   6.100   4.233 -1.4856  1.2531 -0.2458
   63SAPC  C317 5118   2.585   6.183   4.060 -0.1040  0.1400  0.8585
   63SAPC  H17X 5119   2.486   6.228   4.084 -0.1289  0.9052 -0.5557
   63SAPC  H17Y 5120   2.565   6.157   3.954  2.2781 -0.1872  0.4265
   63SAPC  C318 5121   2.699   6.291   4.080  0.1682 -0.6424  0.1906
   63SAPC  H18X 5122   2.796   6.249   4.046 -0.4139 -0.4881 -1.7297
   63SAPC  H18Y 5123   2.721   6.312   4.187 -0.1929 -0.8424  0.3062
   63SAPC  H18Z 5124   2.664   6.382   4.027  1.0121 -1.1757 -1.3324
   64SAPC     N 5125   2.063   0.107   6.162 -0.4441 -0.0888  0.6592
   64SAPC   C12 5126   2.013   0.195   6.274  0.4792  1.0373 -0.0702
   64SAPC  H12A 5127   1.951   0.273   6.232 -3.4345 -1.2733  0.8202
   64SAPC  H12B 5128   2.101   0.232   6.323 -1.5480  3.5103  2.0178
   64SAPC   C13 5129   2.132  -0.015   6.222 -0.0553 -0.7790 -0.1900
   64SAPC  H13A 5130   2.163  -0.081   6.142  2.5828 -2.4181  2.0024
   64SAPC  H13B 5131   2.219   0.019   6.275 -0.2084  0.6575 -0.8341
   64SAPC  H13C 5132   2.067  -0.070   6.289 -0.3434  1.3707  1.3748
   64SAPC   C14 5133   1.961   0.073   6.062  0.4139  0.6568 -0.1435
   64SAPC  H14A 5134   1.881   0.019   6.111  1.8468 -0.0854  1.4990
   64SAPC  H14B 5135   1.924   0.161   6.013  1.9654  0.6881 -1.3286
   64SAPC  H14C 5136   1.997   0.004   5.987  1.1027 -1.3755  1.9344
   64SAPC   C15 5137   2.164   0.190   6.088  0.0221 -0.2977  0.4973
   64SAPC  H15A 5138   2.117   0.263   6.024 -0.7452  0.1257  1.5281
   64SAPC  H15B 5139   2.243   0.233   6.148  0.3883 -0.4622  0.1441
   64SAPC  H15C 5140   2.229   0.126   6.029 -0.0354  0.0841  0.0140
   64SAPC   C11 5141   1.933   0.120   6.393 -0.1063 -1.3827 -0.0334
   64SAPC  H11A 5142   1.922   0.198   6.472  3.6234 -1.7477  1.0251
   64SAPC  H11B 5143   1.997   0.043   6.441  2.4630  1.0767  0.7601
   64SAPC     P 5144   1.682   0.139   6.330  0.1416 -0.3213  0.7644
   64SAPC   O13 5145   1.565   0.047   6.326  0.4770  0.1928  0.1923
   64SAPC   O14 5146   1.676   0.252   6.428  0.2812 -0.0276 -0.8047
   64SAPC   O12 5147   1.816   0.050   6.353  0.8857  0.5890  0.1255
   64SAPC   O11 5148   1.709   0.209   6.190  0.6576 -0.4156 -0.1085
   64SAPC    C1 5149   1.676   0.347   6.168  0.0729  0.3722  0.3136
   64SAPC    HA 5150   1.724   0.414   6.242 -0.9940  0.7342  0.6923
   64SAPC    HB 5151   1.708   0.382   6.068 -0.7688  0.7599  0.1706
   64SAPC    C2 5152   1.515   0.378   6.161  0.4764 -0.2235 -0.2376
   64SAPC    HS 5153   1.481   0.383   6.266 -1.1397 -0.2615 -0.7251
   64SAPC   O21 5154   1.452   0.271   6.098  0.2168 -0.4140 -0.2101
   64SAPC   C21 5155   1.321   0.276   6.096 -0.1939  0.1953  0.0418
   64SAPC   O22 5156   1.247   0.335   6.167  0.3989 -0.1905 -0.2863
   64SAPC   C22 5157   1.277   0.214   5.960 -0.7577 -0.4457  0.0731
   64SAPC   H2R 5158   1.243   0.298   5.896 -0.7738  0.1949  0.9037
   64SAPC   H2S 5159   1.367   0.157   5.930  0.2974 -1.0501  3.8248
   64SAPC    C3 5160   1.486   0.516   6.089  0.0070  0.4854 -0.1789
   64SAPC    HX 5161   1.538   0.595   6.148  0.3845 -1.1658  1.8604
   64SAPC    HY 5162   1.381   0.550   6.096 -0.1070  0.0111  0.5897
   64SAPC   O31 5163   1.530   0.520   5.951  0.2771  0.0303  0.1761
   64SAPC   C31 5164   1.488   0.624   5.877  0.4433  0.6462 -0.1740
   64SAPC   O32 5165   1.420   0.712   5.918  0.2418  0.0275  0.0450
   64SAPC   C32 5166   1.508   0.584   5.730 -0.1259  0.3487  0.1423
   64SAPC   H2X 5167   1.468   0.482   5.711  1.5705 -0.2365 -0.3956
   64SAPC   H2Y 5168   1.616   0.575   5.709  0.0790 -1.5953  1.7748
   64SAPC   C23 5169   1.160   0.121   5.982  0.1372 -0.5230 -0.3745
   64SAPC   H3R 5170   1.079   0.188   6.019  1.2103  0.2220  0.6771
   64SAPC   H3S 5171   1.184   0.039   6.053  1.4739 -0.1878 -0.4198
   64SAPC   C24 5172   1.110   0.058   5.849 -0.0787 -0.4824  0.5695
   64SAPC   H4R 5173   1.031  -0.017   5.870 -1.0686  0.3720 -0.0201
   64SAPC   H4S 5174   1.187  -0.005   5.800 -0.0953 -0.7717  0.9166
   64SAPC   C25 5175   1.059   0.166   5.760 -0.6000 -0.3234 -0.3005
   64SAPC   H5R 5176   0.976   0.220   5.807 -0.0470 -0.4014  0.7764
   64SAPC   C26 5177   1.096   0.200   5.632 -0.9823 -0.5723  0.1004
   64SAPC   H6R 5178   1.062   0.293   5.583 -1.3171 -0.7419  0.0060
   64SAPC   C27 5179   1.213   0.138   5.557 -0.1973  0.2143  0.0947
   64SAPC   H7R 5180   1.178   0.065   5.481 -0.6552  0.1505  0.3610
   64SAPC   H7S 5181   1.271   0.080   5.632 -1.1521  0.8393  1.3633
   64SAPC   C28 5182   1.309   0.239   5.496 -0.1248 -0.0116  0.4979
   64SAPC   H8R 5183   1.398   0.253   5.560 -1.0585  1.1231  1.5790
   64SAPC   C29 5184   1.304   0.295   5.372 -0.0588  0.5413 -0.3564
   64SAPC   H9R 5185   1.374   0.377   5.349  1.5879 -1.0140 -1.1040
   64SAPC  C210 5186   1.196   0.265   5.265  0.5584 -0.3567  0.1163
   64SAPC  H10R 5187   1.135   0.357   5.253  1.4484  0.2724  0.2868
   64SAPC  H10S 5188   1.115   0.199   5.303 -1.3259  1.1297 -1.1960
   64SAPC  C211 5189   1.252   0.207   5.139 -0.8087  0.0834  0.3761
   64SAPC  H11R 5190   1.286   0.103   5.150 -1.0360 -0.2059 -1.3738
   64SAPC  C212 5191   1.288   0.254   5.017 -0.0959 -0.1484 -0.8382
   64SAPC  H12R 5192   1.286   0.182   4.934  3.1619 -1.3587 -0.0187
   64SAPC  C213 5193   1.276   0.396   4.975 -0.0725 -0.3919  0.3282
   64SAPC  H13R 5194   1.372   0.430   4.932 -0.3889 -1.4074 -1.2564
   64SAPC  H13S 5195   1.258   0.462   5.062 -0.1392  0.6272 -0.4460
   64SAPC  C214 5196   1.178   0.422   4.864  0.4049 -0.0285 -0.4747
   64SAPC  H14R 5197   1.085   0.365   4.876 -1.3455  2.9130  1.1566
   64SAPC  C215 5198   1.180   0.514   4.761  0.7300  0.2030 -0.1407
   64SAPC  H15R 5199   1.104   0.518   4.682  0.2378 -0.9386  0.2581
   64SAPC  C216 5200   1.297   0.610   4.727  0.3726 -0.6598  0.3242
   64SAPC  H16R 5201   1.370   0.609   4.810  0.7189  0.0087  0.0408
   64SAPC  H16S 5202   1.267   0.716   4.709  3.1928 -0.1347 -2.0438
   64SAPC  C217 5203   1.367   0.540   4.607 -0.8297 -0.0306 -0.3202
   64SAPC  H17R 5204   1.291   0.521   4.529 -0.6969  1.6006 -0.8765
   64SAPC  H17S 5205   1.412   0.441   4.632 -0.3711  0.6576  1.8222
   64SAPC  C218 5206   1.469   0.637   4.544 -0.1153 -0.3952  0.2470
   64SAPC  H18R 5207   1.452   0.746   4.555 -1.2946 -0.5647  0.2199
   64SAPC  H18S 5208   1.456   0.620   4.435  1.1163  3.3428 -0.6311
   64SAPC  C219 5209   1.611   0.617   4.595  0.2816  0.1957  0.1696
   64SAPC  H19R 5210   1.641   0.510   4.604 -1.3938 -0.1813  1.9966
   64SAPC  H19S 5211   1.598   0.649   4.701 -0.0352 -1.3513  0.6162
   64SAPC  C220 5212   1.716   0.716   4.540 -0.1201 -0.8026  0.8800
   64SAPC  H20R 5213   1.820   0.698   4.575  0.7006  2.1946  0.3475
   64SAPC  H20S 5214   1.701   0.820   4.576  2.0402  0.6378 -1.9599
   64SAPC  H20T 5215   1.722   0.732   4.430  0.1136  0.5640  1.0693
   64SAPC   C33 5216   1.444   0.687   5.629  0.4408 -0.0151  0.4316
   64SAPC   H3X 5217   1.502   0.781   5.629 -0.1852  0.4454 -1.9426
   64SAPC   H3Y 5218   1.336   0.707   5.645  0.3793 -0.4542  0.5965
   64SAPC   C34 5219   1.463   0.626   5.487 -0.5387  0.1761  0.1604
   64SAPC   H4X 5220   1.400   0.536   5.471 -1.8631  1.4951 -2.7627
   64SAPC   H4Y 5221   1.569   0.595   5.489  0.0928  2.1629  1.6915
   64SAPC   C35 5222   1.418   0.726   5.376 -1.2310  0.2236  0.1117
   64SAPC   H5X 5223   1.471   0.824   5.379  0.1164 -0.5147  1.9361
   64SAPC   H5Y 5224   1.308   0.740   5.386 -1.3263 -1.2297  1.3523
   64SAPC   C36 5225   1.453   0.657   5.236  0.4665 -0.2343 -0.6042
   64SAPC   H6X 5226   1.395   0.564   5.216  1.6554 -0.9666 -0.8106
   64SAPC   H6Y 5227   1.555   0.612   5.240  0.3985 -0.3180  0.7847
   64SAPC   C37 5228   1.461   0.754   5.117 -0.1422 -0.3864  0.0654
   64SAPC   H7X 5229   1.475   0.701   5.021  0.9982  0.1384 -0.0670
   64SAPC   H7Y 5230   1.558   0.804   5.136  1.4650 -2.3459 -2.3634
   64SAPC   C38 5231   1.342   0.855   5.109  0.1934 -0.1549 -0.3150
   64SAPC   H8X 5232   1.300   0.872   5.211  1.6497 -1.5126  0.5638
   64SAPC   H8Y 5233   1.266   0.803   5.047  2.2011 -3.4442 -0.3034
   64SAPC   C39 5234   1.390   0.983   5.046 -0.4638  0.4699 -0.1911
   64SAPC   H9X 5235   1.462   1.036   5.112  0.5017 -0.1539 -0.7162
   64SAPC   H9Y 5236   1.297   1.043   5.034  0.1690  1.2920 -1.0114
   64SAPC  C310 5237   1.440   0.947   4.902  0.2918  0.1426 -0.0830
   64SAPC  H10X 5238   1.362   0.884   4.854 -0.6522  0.5188  0.9169
   64SAPC  H10Y 5239   1.531   0.883   4.892  0.9124  1.0639 -0.4495
   64SAPC  C311 5240   1.461   1.078   4.823  0.1600  1.0014  0.4647
   64SAPC  H11X 5241   1.532   1.153   4.866 -1.0077  2.5479 -0.1892
   64SAPC  H11Y 5242   1.365   1.133   4.815 -0.2583  0.2751  0.4647
   64SAPC  C312 5243   1.519   1.044   4.686 -0.2028 -0.1984  0.2647
   64SAPC  H12X 5244   1.458   0.979   4.619 -1.7235  0.5549  0.8661
   64SAPC  H12Y 5245   1.610   0.980   4.695 -0.5164 -1.2509 -2.8924
   64SAPC  C313 5246   1.555   1.169   4.600  0.5057  0.0108  0.0424
   64SAPC  H13X 5247   1.627   1.230   4.659  0.5685  1.2282 -1.2431
   64SAPC  H13Y 5248   1.465   1.233   4.591  0.0143 -0.6224  0.3551
   64SAPC  C314 5249   1.619   1.143   4.462 -0.7390 -0.0595  0.1234
   64SAPC  H14X 5250   1.723   1.106   4.462 -0.4058  0.8247  1.0257
   64SAPC  H14Y 5251   1.620   1.245   4.417  1.0357 -0.3696 -0.5860
   64SAPC  C315 5252   1.532   1.057   4.369 -0.3023  0.5820 -0.0185
   64SAPC  H15X 5253   1.435   1.111   4.368 -0.8412 -0.2820  1.3843
   64SAPC  H15Y 5254   1.533   0.963   4.429 -0.6322  0.7123  0.1938
   64SAPC  C316 5255   1.590   1.042   4.229 -0.0178 -0.8124  0.2286
   64SAPC  H16X 5256   1.544   0.948   4.190  1.5307 -1.8982  0.8988
   64SAPC  H16Y 5257   1.699   1.023   4.236  0.0063 -0.1987  1.9083
   64SAPC  C317 5258   1.569   1.168   4.138  0.1393 -0.1413 -0.2033
   64SAPC  H17X 5259   1.627   1.256   4.174  0.8725 -0.3614 -0.8226
   64SAPC  H17Y 5260   1.464   1.206   4.146 -0.3603 -1.1031 -1.6665
   64SAPC  C318 5261   1.611   1.165   3.993 -0.0190  0.5193  0.8777
   64SAPC  H18X 5262   1.596   1.068   3.942 -1.5471  0.2420  1.7765
   64SAPC  H18Y 5263   1.720   1.186   3.987 -0.2417  1.7646  0.9582
   64SAPC  H18Z 5264   1.557   1.237   3.929  0.1917 -0.3158 -0.2704
   65SAPC     N 5265   2.556   1.698   1.745 -0.6955  0.0509  0.1557
   65SAPC   C12 5266   2.499   1.768   1.867 -0.9160  0.7557  0.1189
   65SAPC  H12A 5267   2.441   1.852   1.834 -0.9761  0.9202  0.6358
   65SAPC  H12B 5268   2.575   1.821   1.922  0.4331 -0.0520 -0.8784
   65SAPC   C13 5269   2.624   1.796   1.660 -0.2753  0.2627 -0.5319
   65SAPC  H13A 5270   2.545   1.843   1.603 -0.0587 -1.0627 -2.0121
   65SAPC  H13B 5271   2.672   1.875   1.716  2.0306 -2.1235  1.1091
   65SAPC  H13C 5272   2.705   1.762   1.596 -0.4299  0.6743 -0.9526
   65SAPC   C14 5273   2.658   1.597   1.793  0.3512 -0.2900 -0.1150
   65SAPC  H14A 5274   2.715   1.554   1.712  0.9392 -2.0305  1.1823
   65SAPC  H14B 5275   2.730   1.641   1.860 -1.9993  0.5462  2.0440
   65SAPC  H14C 5276   2.614   1.512   1.842 -1.4695 -0.5796 -2.1028
   65SAPC   C15 5277   2.453   1.627   1.662  0.0933 -0.0627  0.4725
   65SAPC  H15A 5278   2.504   1.598   1.572 -0.8444  0.1926 -0.1528
   65SAPC  H15B 5279   2.413   1.543   1.716 -0.4817  0.0952  0.3089
   65SAPC  H15C 5280   2.377   1.699   1.634 -0.1507 -1.1507 -1.9107
   65SAPC   C11 5281   2.418   1.683   1.970  0.3420 -0.1690  0.4529
   65SAPC  H11A 5282   2.407   1.748   2.060 -1.2390  0.1462  0.0571
   65SAPC  H11B 5283   2.489   1.607   2.009  0.3066  0.0357  0.9267
   65SAPC     P 5284   2.208   1.532   2.001 -0.1624 -0.1108  0.3168
   65SAPC   O13 5285   2.105   1.474   1.908  0.4161 -0.4223  0.1123
   65SAPC   O14 5286   2.291   1.428   2.075 -0.2601 -0.5581  0.2148
   65SAPC   O12 5287   2.306   1.614   1.916 -0.0360 -0.4309  0.0067
   65SAPC   O11 5288   2.140   1.632   2.104  0.2281 -0.0730 -0.4098
   65SAPC    C1 5289   2.055   1.733   2.062  0.5233 -0.7919  0.1015
   65SAPC    HA 5290   2.020   1.729   1.957 -2.4982  2.0241  0.8093
   65SAPC    HB 5291   1.962   1.745   2.122 -0.9231  3.0648 -2.4946
   65SAPC    C2 5292   2.122   1.876   2.069 -0.7856 -0.0343 -0.0682
   65SAPC    HS 5293   2.205   1.860   1.997  0.5095 -0.7962  1.5197
   65SAPC   O21 5294   2.182   1.897   2.203 -0.0959 -0.5302 -0.1105
   65SAPC   C21 5295   2.265   1.995   2.219  1.0462  0.6740  0.2453
   65SAPC   O22 5296   2.305   2.071   2.129  0.2271  0.0239 -0.9383
   65SAPC   C22 5297   2.313   2.001   2.362 -0.3822 -0.8242 -0.2939
   65SAPC   H2R 5298   2.321   2.109   2.387  0.0111 -1.1727  1.1789
   65SAPC   H2S 5299   2.240   1.957   2.434 -0.9089 -1.8704 -1.4401
   65SAPC    C3 5300   2.022   1.984   2.026  0.3396 -0.9629 -0.2030
   65SAPC    HX 5301   1.985   1.948   1.927  0.6672 -2.9754  0.3623
   65SAPC    HY 5302   2.078   2.080   2.019  1.3958 -1.5631 -0.2421
   65SAPC   O31 5303   1.908   1.999   2.117 -0.4455 -0.0449  0.3840
   65SAPC   C31 5304   1.920   2.084   2.219  0.7460 -0.6978  0.7150
   65SAPC   O32 5305   2.012   2.161   2.236  0.1323  0.0669  0.0059
   65SAPC   C32 5306   1.798   2.060   2.313 -0.1011  0.3423 -0.3717
   65SAPC   H2X 5307   1.788   1.950   2.325 -2.9180  0.8429  4.7202
   65SAPC   H2Y 5308   1.707   2.086   2.255 -1.2733 -2.8300 -0.1508
   65SAPC   C23 5309   2.447   1.931   2.383 -0.0975 -0.4224 -0.0870
   65SAPC   H3R 5310   2.529   1.979   2.326 -0.9553  0.5917 -0.4993
   65SAPC   H3S 5311   2.448   1.822   2.364 -0.4873 -0.4949  0.3020
   65SAPC   C24 5312   2.497   1.963   2.533 -0.2108  0.0805 -0.4941
   65SAPC   H4R 5313   2.480   2.069   2.561  0.1105  0.2044 -0.7564
   65SAPC   H4S 5314   2.606   1.946   2.523 -0.5183 -1.6457 -1.2873
   65SAPC   C25 5315   2.420   1.892   2.632  0.1260  0.3019 -0.7048
   65SAPC   H5R 5316   2.313   1.914   2.626 -0.4430 -1.9057  0.1852
   65SAPC   C26 5317   2.457   1.783   2.701 -0.4988 -0.2275 -0.5638
   65SAPC   H6R 5318   2.375   1.743   2.763 -0.2842 -0.1243 -0.2048
   65SAPC   C27 5319   2.589   1.707   2.704  0.5429 -0.1194  0.2021
   65SAPC   H7R 5320   2.641   1.725   2.800 -0.8723 -0.9690  1.1704
   65SAPC   H7S 5321   2.659   1.747   2.629  1.1851 -1.6511 -0.0384
   65SAPC   C28 5322   2.573   1.558   2.678 -0.3193 -0.2332  0.4933
   65SAPC   H8R 5323   2.523   1.542   2.582  1.2139  1.1264 -0.5827
   65SAPC   C29 5324   2.610   1.456   2.755  1.0565 -0.0280 -0.3255
   65SAPC   H9R 5325   2.599   1.354   2.716 -0.2647  0.0856 -0.3086
   65SAPC  C210 5326   2.685   1.470   2.886  0.0271  0.0464 -0.2197
   65SAPC  H10R 5327   2.674   1.573   2.926  0.3956  0.9807 -2.4000
   65SAPC  H10S 5328   2.794   1.457   2.875  0.3302 -0.0989  2.3050
   65SAPC  C211 5329   2.655   1.365   2.988  0.2899  1.2113 -0.7558
   65SAPC  H11R 5330   2.686   1.265   2.955  0.7295  1.0541  0.1034
   65SAPC  C212 5331   2.613   1.389   3.118 -0.0694 -0.4013  0.3738
   65SAPC  H12R 5332   2.597   1.307   3.189  0.4337  0.6948  1.7898
   65SAPC  C213 5333   2.582   1.526   3.178  0.2766  0.2731  1.0810
   65SAPC  H13R 5334   2.672   1.591   3.171 -0.9851  1.8956 -1.9198
   65SAPC  H13S 5335   2.567   1.507   3.287  1.1451  1.3100  1.3982
   65SAPC  C214 5336   2.470   1.602   3.106 -0.6772  0.1700 -0.3940
   65SAPC  H14R 5337   2.421   1.548   3.023  1.6041  0.6807 -2.1856
   65SAPC  C215 5338   2.440   1.729   3.106 -0.3139 -0.1903 -0.4133
   65SAPC  H15R 5339   2.350   1.759   3.051  1.4159  0.9849 -2.7991
   65SAPC  C216 5340   2.522   1.837   3.175  0.2121  0.3767 -0.6665
   65SAPC  H16R 5341   2.625   1.838   3.132  0.6406 -0.4624  0.2936
   65SAPC  H16S 5342   2.533   1.810   3.283 -0.6886  1.3104 -0.3262
   65SAPC  C217 5343   2.458   1.980   3.166 -0.4464  0.2619  0.9372
   65SAPC  H17R 5344   2.528   2.051   3.215 -0.8492  0.4834  1.2027
   65SAPC  H17S 5345   2.361   1.986   3.220  0.1941 -0.2946  2.1813
   65SAPC  C218 5346   2.430   2.030   3.021 -0.3922 -0.0643 -0.0582
   65SAPC  H18R 5347   2.420   1.944   2.952  0.4646  1.0937 -1.6926
   65SAPC  H18S 5348   2.519   2.087   2.986  1.1861 -1.5444  1.3579
   65SAPC  C219 5349   2.308   2.117   2.999  0.1353  0.0771 -0.0758
   65SAPC  H19R 5350   2.335   2.212   3.051  0.4009 -0.9987  1.8465
   65SAPC  H19S 5351   2.219   2.084   3.056 -0.4385  0.5168 -0.7006
   65SAPC  C220 5352   2.290   2.146   2.851  0.8528  0.3496  0.2166
   65SAPC  H20R 5353   2.379   2.191   2.803 -0.2910  2.1104 -0.3385
   65SAPC  H20S 5354   2.205   2.213   2.824 -1.4253 -2.6703 -0.7023
   65SAPC  H20T 5355   2.275   2.046   2.805  0.4670 -0.6450  2.3678
   65SAPC   C33 5356   1.812   2.138   2.443 -0.1417  0.3530 -0.7556
   65SAPC   H3X 5357   1.798   2.244   2.413  1.3128  0.0343 -2.7473
   65SAPC   H3Y 5358   1.910   2.118   2.489 -1.1747 -2.8401  0.3398
   65SAPC   C34 5359   1.703   2.084   2.541 -0.5896  0.3808  0.0473
   65SAPC   H4X 5360   1.717   1.974   2.554 -2.4903 -0.0071 -0.7900
   65SAPC   H4Y 5361   1.603   2.091   2.493 -0.6643 -1.3850 -0.1152
   65SAPC   C35 5362   1.716   2.153   2.673  0.3727 -0.2371  0.6373
   65SAPC   H5X 5363   1.665   2.251   2.661  0.2456 -0.4838 -1.1244
   65SAPC   H5Y 5364   1.824   2.172   2.690  1.2466 -2.2846 -1.9327
   65SAPC   C36 5365   1.658   2.071   2.790  0.1736  0.3278 -0.5659
   65SAPC   H6X 5366   1.686   1.965   2.772  1.7655  0.3953  1.1647
   65SAPC   H6Y 5367   1.548   2.087   2.794  0.3313  1.2572  0.7162
   65SAPC   C37 5368   1.706   2.118   2.927 -0.5837 -0.0060 -0.6049
   65SAPC   H7X 5369   1.718   2.228   2.923  1.8707 -0.0758  1.8800
   65SAPC   H7Y 5370   1.809   2.085   2.956 -0.7538 -0.6513 -0.7162
   65SAPC   C38 5371   1.612   2.084   3.043 -0.4572  0.0991 -0.4001
   65SAPC   H8X 5372   1.580   1.978   3.042 -0.9684  0.2194 -2.4019
   65SAPC   H8Y 5373   1.520   2.144   3.024 -0.3028  0.5684  0.2919
   65SAPC   C39 5374   1.670   2.141   3.171 -0.1814 -0.2094 -0.1145
   65SAPC   H9X 5375   1.683   2.247   3.139 -0.5668  0.2319  1.1452
   65SAPC   H9Y 5376   1.768   2.091   3.185  0.8043  1.4012 -0.9176
   65SAPC  C310 5377   1.572   2.128   3.288 -0.5934  0.3612  0.6879
   65SAPC  H10X 5378   1.491   2.196   3.253  1.1601  2.5034  0.5812
   65SAPC  H10Y 5379   1.627   2.175   3.372  1.6353  1.0686 -1.0684
   65SAPC  C311 5380   1.523   1.986   3.325 -0.6553  0.5700 -0.0098
   65SAPC  H11X 5381   1.615   1.924   3.323 -0.4643  0.8004  0.9834
   65SAPC  H11Y 5382   1.458   1.953   3.242 -1.6239  0.3795  0.8152
   65SAPC  C312 5383   1.458   1.995   3.460  0.3881  0.2660  0.3559
   65SAPC  H12X 5384   1.366   1.935   3.448  0.0583  0.7690  0.3812
   65SAPC  H12Y 5385   1.430   2.101   3.475 -2.0983 -0.0292 -1.5717
   65SAPC  C313 5386   1.553   1.941   3.568 -0.1024  0.7602 -0.0056
   65SAPC  H13X 5387   1.655   1.983   3.558  0.3664 -0.1694  0.8001
   65SAPC  H13Y 5388   1.561   1.831   3.559  1.5260  0.7910  0.8536
   65SAPC  C314 5389   1.500   1.971   3.714 -0.3178  0.4488  0.0725
   65SAPC  H14X 5390   1.389   1.963   3.718 -0.6797  3.2583 -1.5816
   65SAPC  H14Y 5391   1.529   2.077   3.732 -0.2032  0.4032  0.1555
   65SAPC  C315 5392   1.551   1.873   3.822 -0.2011 -0.0347 -0.5568
   65SAPC  H15X 5393   1.522   1.767   3.806  2.7066 -0.7672 -1.4396
   65SAPC  H15Y 5394   1.502   1.903   3.917  2.4149  1.9033  0.2754
   65SAPC  C316 5395   1.704   1.882   3.846  0.0497  0.4926  0.1117
   65SAPC  H16X 5396   1.735   1.981   3.885  1.1831  0.3244 -0.3191
   65SAPC  H16Y 5397   1.749   1.857   3.747  0.2298  0.9948  0.0648
   65SAPC  C317 5398   1.766   1.778   3.944 -0.5649 -0.3879 -0.3641
   65SAPC  H17X 5399   1.767   1.672   3.909 -2.4617 -1.5438  2.6987
   65SAPC  H17Y 5400   1.717   1.797   4.042  0.2252 -0.3752  0.0386
   65SAPC  C318 5401   1.917   1.812   3.975 -0.0231 -0.0982  0.2181
   65SAPC  H18X 5402   1.917   1.895   4.049  1.5802 -1.8721  2.3589
   65SAPC  H18Y 5403   1.960   1.846   3.879 -2.2698  0.3004 -0.7300
   65SAPC  H18Z 5404   1.974   1.727   4.019 -0.2643  0.0478  0.8245
   66SAPC     N 5405   5.534   3.032   1.620 -0.3265  0.0309 -0.0343
   66SAPC   C12 5406   5.557   3.132   1.739 -0.1665  0.3285 -0.8860
   66SAPC  H12A 5407   5.463   3.145   1.790  0.5015  0.5192  0.3214
   66SAPC  H12B 5408   5.581   3.232   1.706  1.6849  1.0492  2.2167
   66SAPC   C13 5409   5.421   3.088   1.533  0.0196  0.3689 -0.2433
   66SAPC  H13A 5410   5.396   3.018   1.455  0.0382  0.2269 -0.1222
   66SAPC  H13B 5411   5.337   3.097   1.601  0.4884 -0.2249  0.4276
   66SAPC  H13C 5412   5.441   3.180   1.480  1.8512  0.6403  0.8346
   66SAPC   C14 5413   5.657   3.022   1.538  0.3019 -0.7700  0.1136
   66SAPC  H14A 5414   5.747   3.000   1.593  1.1283 -0.4198 -1.0405
   66SAPC  H14B 5415   5.651   2.949   1.458  1.1576  1.5278 -2.1940
   66SAPC  H14C 5416   5.687   3.114   1.489  1.1421 -0.9273  0.3182
   66SAPC   C15 5417   5.490   2.894   1.657 -0.0467 -0.0907 -0.0428
   66SAPC  H15A 5418   5.492   2.838   1.565  1.7079  1.4838 -1.0377
   66SAPC  H15B 5419   5.541   2.850   1.742 -0.2339  0.3285  0.2890
   66SAPC  H15C 5420   5.388   2.882   1.690 -0.1971 -1.8025 -1.0296
   66SAPC   C11 5421   5.667   3.103   1.846  0.1404  0.3119  0.1016
   66SAPC  H11A 5422   5.653   3.006   1.898  0.8876  0.5283  0.7265
   66SAPC  H11B 5423   5.660   3.181   1.925 -0.2346 -0.7264  1.1303
   66SAPC     P 5424   5.873   3.248   1.778 -0.3117  0.0790  0.1962
   66SAPC   O13 5425   6.002   3.230   1.708  0.4150  0.5434  0.1730
   66SAPC   O14 5426   5.778   3.347   1.721  0.2477 -0.7669 -0.2122
   66SAPC   O12 5427   5.801   3.100   1.793 -0.1200  0.3874  0.0555
   66SAPC   O11 5428   5.908   3.300   1.929 -0.5626  0.7301 -0.5913
   66SAPC    C1 5429   5.967   3.212   2.021  0.3923  0.4357  0.3078
   66SAPC    HA 5430   5.980   3.110   1.979  1.0914  1.0160 -0.9637
   66SAPC    HB 5431   6.074   3.238   2.038  0.9366 -2.3561  1.6576
   66SAPC    C2 5432   5.883   3.201   2.150  0.2720  0.6071  0.8105
   66SAPC    HS 5433   5.792   3.149   2.114  1.3573 -0.9316  0.1774
   66SAPC   O21 5434   5.864   3.332   2.209  0.0727  0.2058 -0.5405
   66SAPC   C21 5435   5.738   3.349   2.260 -0.8913  0.8164  0.0446
   66SAPC   O22 5436   5.651   3.261   2.256  0.0075 -0.1672 -0.0061
   66SAPC   C22 5437   5.706   3.487   2.307  0.6538 -0.8967  0.7282
   66SAPC   H2R 5438   5.805   3.536   2.305  1.6333 -2.7811  0.3738
   66SAPC   H2S 5439   5.641   3.528   2.227  2.9532  1.5488 -0.0452
   66SAPC    C3 5440   5.965   3.105   2.246 -0.0578  0.0198  0.0454
   66SAPC    HX 5441   6.070   3.135   2.228  1.0550 -2.6078  1.6580
   66SAPC    HY 5442   5.949   3.000   2.213 -0.5282 -0.1342  0.7443
   66SAPC   O31 5443   5.942   3.130   2.383  0.4803 -0.2917 -0.6642
   66SAPC   C31 5444   6.020   3.063   2.460  0.2633  0.8677 -0.2065
   66SAPC   O32 5445   6.080   2.963   2.426  0.3599  0.8039 -0.3329
   66SAPC   C32 5446   6.005   3.118   2.599 -0.0355 -0.1077  0.0213
   66SAPC   H2X 5447   5.923   3.061   2.648 -0.5668 -0.0478 -0.7715
   66SAPC   H2Y 5448   5.957   3.219   2.603  0.4574  0.1689 -0.8303
   66SAPC   C23 5449   5.638   3.484   2.448 -0.3134 -0.5534  0.2030
   66SAPC   H3R 5450   5.548   3.419   2.442  1.4274 -3.1026 -0.0783
   66SAPC   H3S 5451   5.611   3.590   2.464  2.7567  0.4776 -0.6369
   66SAPC   C24 5452   5.733   3.426   2.551  0.8255  0.2729 -0.4743
   66SAPC   H4R 5453   5.802   3.512   2.561  0.4263  0.5644 -0.2065
   66SAPC   H4S 5454   5.785   3.337   2.509 -1.3163  0.4997 -4.0272
   66SAPC   C25 5455   5.663   3.394   2.679 -0.1806  0.0921  0.5243
   66SAPC   H5R 5456   5.621   3.294   2.667 -3.5858  1.4126  0.2523
   66SAPC   C26 5457   5.631   3.476   2.779 -0.0035 -0.5046  0.2870
   66SAPC   H6R 5458   5.584   3.432   2.868  0.6187  0.1926  0.9774
   66SAPC   C27 5459   5.653   3.624   2.785 -0.2037 -0.0039 -0.0694
   66SAPC   H7R 5460   5.682   3.667   2.687  1.0791  2.0612  1.1568
   66SAPC   H7S 5461   5.740   3.649   2.848  0.1152  1.0673 -0.9041
   66SAPC   C28 5462   5.525   3.693   2.834 -0.3356  0.2005 -0.5939
   66SAPC   H8R 5463   5.442   3.679   2.763 -0.5439  0.1545 -0.3424
   66SAPC   C29 5464   5.497   3.756   2.950 -0.0548  0.4772  0.5135
   66SAPC   H9R 5465   5.406   3.816   2.966 -0.3512  0.5023 -1.1159
   66SAPC  C210 5466   5.600   3.768   3.062  0.4415  0.3056  0.7802
   66SAPC  H10R 5467   5.700   3.779   3.015 -0.4184 -0.7307 -1.4421
   66SAPC  H10S 5468   5.602   3.672   3.119 -2.5144 -0.8062 -0.7722
   66SAPC  C211 5469   5.583   3.890   3.141 -0.0148 -0.6967  0.0180
   66SAPC  H11R 5470   5.636   3.979   3.104 -1.9920  0.5351  0.0110
   66SAPC  C212 5471   5.509   3.897   3.252  0.3071 -0.1640 -0.5388
   66SAPC  H12R 5472   5.505   3.998   3.296  1.7145  0.3108 -1.4179
   66SAPC  C213 5473   5.422   3.791   3.313 -0.5218  0.7052  0.2855
   66SAPC  H13R 5474   5.463   3.689   3.296  0.3480  0.9441  0.8279
   66SAPC  H13S 5475   5.330   3.791   3.252  0.3197  1.9371 -1.0589
   66SAPC  C214 5476   5.395   3.803   3.462 -1.1455 -0.5016 -0.0183
   66SAPC  H14R 5477   5.482   3.816   3.528 -2.1978 -2.3675  1.8954
   66SAPC  C215 5478   5.284   3.844   3.530  0.4994 -0.2592  0.5674
   66SAPC  H15R 5479   5.285   3.838   3.640 -0.7389  0.3503  0.6341
   66SAPC  C216 5480   5.155   3.859   3.462  0.3992 -0.5177 -0.4901
   66SAPC  H16R 5481   5.119   3.771   3.405  0.4153 -0.2897 -0.8541
   66SAPC  H16S 5482   5.153   3.946   3.393 -0.4312 -0.9586 -1.0331
   66SAPC  C217 5483   5.045   3.898   3.563  0.0315 -0.9314 -0.7009
   66SAPC  H17R 5484   5.034   3.818   3.639 -2.7470 -0.1624 -0.2016
   66SAPC  H17S 5485   4.950   3.910   3.508  0.2949 -2.0327 -1.4317
   66SAPC  C218 5486   5.078   4.030   3.633  0.5272 -0.6995  0.1401
   66SAPC  H18R 5487   5.074   4.115   3.562 -2.2563 -0.9431 -0.1362
   66SAPC  H18S 5488   5.165   4.023   3.701  0.9592  1.6449 -0.0751
   66SAPC  C219 5489   4.969   4.054   3.740 -0.1272  0.9697  0.5177
   66SAPC  H19R 5490   4.974   3.975   3.818  0.7644  0.1225 -0.3618
   66SAPC  H19S 5491   4.871   4.038   3.690  0.1851 -3.5334  0.9581
   66SAPC  C220 5492   4.967   4.187   3.811  0.1227 -0.1759 -0.1439
   66SAPC  H20R 5493   4.935   4.263   3.737  0.7138  0.2437  0.0196
   66SAPC  H20S 5494   5.068   4.214   3.847  0.1596 -2.2997  1.5209
   66SAPC  H20T 5495   4.890   4.199   3.891  0.5460 -0.3280  0.2925
   66SAPC   C33 5496   6.126   3.112   2.691 -0.2072 -0.4043  0.6379
   66SAPC   H3X 5497   6.203   3.153   2.623 -1.6870 -1.4314 -1.7927
   66SAPC   H3Y 5498   6.150   3.006   2.713  2.3358  0.6417  3.6397
   66SAPC   C34 5499   6.101   3.199   2.807 -0.1553 -0.1451 -0.7688
   66SAPC   H4X 5500   6.050   3.294   2.779 -0.9452 -0.0876  0.7654
   66SAPC   H4Y 5501   6.196   3.228   2.856 -0.2488  0.2801 -0.8334
   66SAPC   C35 5502   6.013   3.138   2.926 -0.4947  0.0825  0.3679
   66SAPC   H5X 5503   6.058   3.049   2.976  1.9407  0.2561 -1.3230
   66SAPC   H5Y 5504   5.926   3.106   2.866 -0.4220 -0.2732  0.4485
   66SAPC   C36 5505   5.979   3.250   3.032  1.9726 -0.0640  0.1294
   66SAPC   H6X 5506   5.943   3.337   2.973  1.1404  1.5323  2.8089
   66SAPC   H6Y 5507   6.062   3.286   3.096 -0.5080  3.2064  1.8155
   66SAPC   C37 5508   5.850   3.215   3.121 -0.6521 -0.1511  0.7160
   66SAPC   H7X 5509   5.872   3.130   3.189 -1.5854 -0.6917  0.3611
   66SAPC   H7Y 5510   5.769   3.191   3.047 -0.3652  0.2589  0.2645
   66SAPC   C38 5511   5.779   3.341   3.184  0.5861 -0.3335  0.3774
   66SAPC   H8X 5512   5.673   3.313   3.203  0.2296 -0.6800 -1.8987
   66SAPC   H8Y 5513   5.765   3.428   3.116  2.5617 -0.0257  0.3238
   66SAPC   C39 5514   5.849   3.382   3.308  0.2383  0.1198  0.6007
   66SAPC   H9X 5515   5.947   3.413   3.267  0.2303  0.4190  0.8086
   66SAPC   H9Y 5516   5.871   3.301   3.381  3.4425  1.7750  1.6560
   66SAPC  C310 5517   5.769   3.495   3.375  0.3027 -0.2977  0.0087
   66SAPC  H10X 5518   5.683   3.454   3.433  0.2633  0.3421  0.4144
   66SAPC  H10Y 5519   5.737   3.565   3.295  0.0286  0.9161  1.1445
   66SAPC  C311 5520   5.860   3.574   3.475  0.3299 -0.1577  0.1425
   66SAPC  H11X 5521   5.960   3.597   3.432 -0.0553 -1.2810 -1.4511
   66SAPC  H11Y 5522   5.867   3.514   3.568 -0.5413 -0.5307 -0.0230
   66SAPC  C312 5523   5.800   3.720   3.509 -0.1401  0.2974 -0.5973
   66SAPC  H12X 5524   5.690   3.706   3.515 -0.0269 -0.6184 -0.4986
   66SAPC  H12Y 5525   5.826   3.789   3.426 -0.6047 -1.1591 -2.0146
   66SAPC  C313 5526   5.844   3.774   3.645 -0.1125 -0.2359 -0.3060
   66SAPC  H13X 5527   5.953   3.749   3.650 -0.0094  0.1578 -0.5362
   66SAPC  H13Y 5528   5.798   3.709   3.723  0.1530  1.0061  0.9396
   66SAPC  C314 5529   5.824   3.926   3.682  0.5777  0.0416  0.4893
   66SAPC  H14X 5530   5.718   3.960   3.673  1.7431  3.9472 -0.2840
   66SAPC  H14Y 5531   5.878   3.967   3.593  0.5447  0.3031  0.5892
   66SAPC  C315 5532   5.884   3.943   3.812  0.2251 -0.5996 -0.1869
   66SAPC  H15X 5533   5.992   3.917   3.808  0.2996 -0.2985 -4.1391
   66SAPC  H15Y 5534   5.826   3.879   3.883 -0.6968  0.8847  0.4546
   66SAPC  C316 5535   5.881   4.091   3.859 -0.4161 -0.2879 -0.3449
   66SAPC  H16X 5536   5.779   4.137   3.856 -0.8748 -1.3005 -0.7012
   66SAPC  H16Y 5537   5.943   4.159   3.797 -1.0355 -0.1342 -0.8005
   66SAPC  C317 5538   5.947   4.111   3.998 -0.1035  0.5187 -0.3187
   66SAPC  H17X 5539   5.880   4.049   4.062 -1.0447  1.5100 -0.3208
   66SAPC  H17Y 5540   5.931   4.217   4.028  1.7584  0.8559 -0.3902
   66SAPC  C318 5541   6.099   4.078   4.011 -0.5021 -0.1519  0.3652
   66SAPC  H18X 5542   6.168   4.138   3.949 -2.1985  2.2931  0.6740
   66SAPC  H18Y 5543   6.118   3.983   3.957  1.3873  0.1721  0.3963
   66SAPC  H18Z 5544   6.125   4.063   4.118 -0.3557  0.8832  0.4798
   67SAPC     N 5545   1.608   1.699   2.062 -0.1277  0.3181  0.2934
   67SAPC   C12 5546   1.504   1.787   2.131 -0.5034  0.0949  0.4718
   67SAPC  H12A 5547   1.548   1.826   2.222 -1.2815  2.0830  0.0333
   67SAPC  H12B 5548   1.432   1.724   2.180 -0.0445 -0.5366  0.3513
   67SAPC   C13 5549   1.548   1.623   1.948  0.5021  0.0209 -0.2525
   67SAPC  H13A 5550   1.474   1.554   1.984 -1.6503  2.1919 -0.3302
   67SAPC  H13B 5551   1.493   1.691   1.885 -0.0331 -0.0897  0.0984
   67SAPC  H13C 5552   1.626   1.580   1.887  0.1653 -0.5859 -0.2631
   67SAPC   C14 5553   1.704   1.800   1.997 -0.0764  0.1951 -0.1130
   67SAPC  H14A 5554   1.653   1.871   1.934 -0.8441  0.8396  1.1950
   67SAPC  H14B 5555   1.754   1.853   2.077 -0.6558  0.7775 -0.1255
   67SAPC  H14C 5556   1.774   1.752   1.929 -0.0324  1.5009 -1.0337
   67SAPC   C15 5557   1.672   1.608   2.159 -0.0961  0.6001  0.8173
   67SAPC  H15A 5558   1.748   1.543   2.119  1.0328  1.8030  0.9419
   67SAPC  H15B 5559   1.703   1.677   2.236 -1.6741  2.8709 -0.4655
   67SAPC  H15C 5560   1.608   1.531   2.200  1.6899 -1.3265  0.2051
   67SAPC   C11 5561   1.432   1.892   2.051 -0.5328  0.6879 -0.4358
   67SAPC  H11A 5562   1.500   1.943   1.979 -1.4648  0.9501 -1.1437
   67SAPC  H11B 5563   1.396   1.973   2.118  0.4851 -0.6449  1.8478
   67SAPC     P 5564   1.203   1.780   2.045 -0.0630  0.3448 -0.0412
   67SAPC   O13 5565   1.097   1.772   1.945  0.6101  0.0614 -0.2876
   67SAPC   O14 5566   1.229   1.655   2.117 -0.1049 -0.2225  0.4724
   67SAPC   O12 5567   1.333   1.831   1.973 -0.1918  0.0327 -0.2678
   67SAPC   O11 5568   1.171   1.906   2.134 -0.0056 -0.2941 -0.9849
   67SAPC    C1 5569   1.117   1.890   2.264  0.1351  0.3357 -0.5162
   67SAPC    HA 5570   1.016   1.844   2.256 -0.4142  1.3817  0.0818
   67SAPC    HB 5571   1.171   1.819   2.330 -1.7306  0.7585  1.6070
   67SAPC    C2 5572   1.115   2.033   2.325 -0.9596 -0.3492  0.0861
   67SAPC    HS 5573   1.049   2.093   2.258  1.6248 -0.6331 -2.9841
   67SAPC   O21 5574   1.250   2.083   2.346 -0.2703 -0.5437 -0.0754
   67SAPC   C21 5575   1.258   2.213   2.338 -0.1823 -0.4299  0.2533
   67SAPC   O22 5576   1.169   2.288   2.297 -0.0263  0.4487  0.2991
   67SAPC   C22 5577   1.400   2.265   2.366 -0.0783  0.4304 -0.3038
   67SAPC   H2R 5578   1.455   2.234   2.457  0.7582 -0.9962 -1.2498
   67SAPC   H2S 5579   1.460   2.218   2.285 -1.2769 -2.6685  0.4456
   67SAPC    C3 5580   1.050   2.037   2.473 -0.0212  0.1644 -0.0990
   67SAPC    HX 5581   0.944   2.016   2.449  0.3310 -1.6978 -0.2043
   67SAPC    HY 5582   1.049   2.139   2.516  1.4636  0.1981 -0.0931
   67SAPC   O31 5583   1.102   1.924   2.546 -0.0546  0.1599  0.2575
   67SAPC   C31 5584   1.191   1.945   2.640  0.2558 -0.0425 -0.8815
   67SAPC   O32 5585   1.250   2.050   2.669  0.5485  0.9229  0.0615
   67SAPC   C32 5586   1.192   1.806   2.721 -0.1125 -0.3288  0.2679
   67SAPC   H2X 5587   1.186   1.726   2.644 -0.6161  0.7579 -0.8429
   67SAPC   H2Y 5588   1.098   1.797   2.779  0.1754  0.5453  0.8911
   67SAPC   C23 5589   1.411   2.415   2.352 -0.3324 -0.0382  0.6325
   67SAPC   H3R 5590   1.362   2.470   2.435 -1.4931  1.9508 -1.2512
   67SAPC   H3S 5591   1.370   2.448   2.254 -0.0135  0.1510  0.5602
   67SAPC   C24 5592   1.559   2.454   2.339  0.7989 -0.7582 -0.4801
   67SAPC   H4R 5593   1.598   2.380   2.266  0.4400  0.3124 -1.8154
   67SAPC   H4S 5594   1.616   2.421   2.428  0.9007 -1.1850 -0.6999
   67SAPC   C25 5595   1.598   2.597   2.301  0.3122 -0.1447  0.5053
   67SAPC   H5R 5596   1.581   2.634   2.199  0.5899  0.0305  0.5205
   67SAPC   C26 5597   1.628   2.685   2.397 -0.1127  0.2492  0.2966
   67SAPC   H6R 5598   1.642   2.789   2.362  2.3393 -0.5438 -1.3369
   67SAPC   C27 5599   1.638   2.676   2.551  0.0252  0.5568 -0.0401
   67SAPC   H7R 5600   1.709   2.748   2.596 -0.1886 -0.0301  1.2715
   67SAPC   H7S 5601   1.695   2.584   2.575  1.5366  1.1208 -1.2749
   67SAPC   C28 5602   1.508   2.696   2.625  0.9475  0.2939 -0.7430
   67SAPC   H8R 5603   1.455   2.792   2.616 -0.5711 -0.4631 -0.2469
   67SAPC   C29 5604   1.466   2.617   2.720  0.4854 -0.0876 -0.3841
   67SAPC   H9R 5605   1.371   2.635   2.771 -0.0330 -1.1831 -0.9006
   67SAPC  C210 5606   1.526   2.483   2.757 -0.4543 -0.1510 -0.3916
   67SAPC  H10R 5607   1.622   2.498   2.811 -0.5111 -0.0935 -0.3081
   67SAPC  H10S 5608   1.566   2.429   2.668  2.4049 -0.2798  0.8438
   67SAPC  C211 5609   1.440   2.395   2.847 -0.0611  0.1566  0.4484
   67SAPC  H11R 5610   1.417   2.296   2.805 -1.3493  0.8602 -0.6180
   67SAPC  C212 5611   1.421   2.414   2.977 -0.4722 -0.9872 -0.1220
   67SAPC  H12R 5612   1.357   2.342   3.030 -0.7430 -1.4068 -1.0063
   67SAPC  C213 5613   1.473   2.538   3.055 -0.2641  0.0808  0.6995
   67SAPC  H13R 5614   1.517   2.614   2.987  0.6109 -0.9591  0.0753
   67SAPC  H13S 5615   1.563   2.505   3.111  0.0681  2.1600  1.4636
   67SAPC  C214 5616   1.375   2.607   3.148 -0.3316  0.0115 -0.4024
   67SAPC  H14R 5617   1.325   2.699   3.114 -2.2024 -0.6181  0.5133
   67SAPC  C215 5618   1.328   2.564   3.267 -0.0163  0.1252  0.0487
   67SAPC  H15R 5619   1.250   2.626   3.313 -0.5310 -0.1059 -0.4950
   67SAPC  C216 5620   1.367   2.441   3.345 -0.2762 -0.1140 -0.1234
   67SAPC  H16R 5621   1.465   2.404   3.308 -0.2427  0.9217 -1.0855
   67SAPC  H16S 5622   1.282   2.371   3.333  0.0493 -0.0765 -3.7592
   67SAPC  C217 5623   1.364   2.471   3.493  0.2483  0.1098  0.2943
   67SAPC  H17R 5624   1.396   2.379   3.545  2.1460  0.4861 -0.1391
   67SAPC  H17S 5625   1.268   2.511   3.531  1.6850  2.6223  1.5561
   67SAPC  C218 5626   1.473   2.573   3.543  0.0586 -0.6605  0.6506
   67SAPC  H18R 5627   1.450   2.591   3.650  1.1975 -0.9734  0.9624
   67SAPC  H18S 5628   1.469   2.671   3.491 -2.6050 -0.7371  0.5393
   67SAPC  C219 5629   1.617   2.507   3.543 -0.5673  0.0798  0.0270
   67SAPC  H19R 5630   1.644   2.482   3.438 -0.5069  0.5795 -0.0752
   67SAPC  H19S 5631   1.627   2.414   3.604 -2.6430 -0.2492 -0.0583
   67SAPC  C220 5632   1.715   2.613   3.601  0.1448  0.3209  0.7856
   67SAPC  H20R 5633   1.823   2.589   3.590 -0.3262 -1.5180 -0.1806
   67SAPC  H20S 5634   1.698   2.653   3.703 -2.0341  1.9981 -0.1539
   67SAPC  H20T 5635   1.702   2.709   3.545 -1.3675 -0.6113 -0.5317
   67SAPC   C33 5636   1.312   1.794   2.806 -0.3520  0.1097 -0.4436
   67SAPC   H3X 5637   1.400   1.821   2.744 -0.0524  0.8279  0.2694
   67SAPC   H3Y 5638   1.320   1.689   2.842 -1.5139 -0.4544 -1.7368
   67SAPC   C34 5639   1.306   1.878   2.936  0.3843  0.4692  0.2426
   67SAPC   H4X 5640   1.302   1.987   2.912 -1.0271  1.1541  3.2065
   67SAPC   H4Y 5641   1.395   1.867   3.001  0.1219 -0.8393  0.4138
   67SAPC   C35 5642   1.183   1.841   3.013 -0.2736  0.6603  0.5472
   67SAPC   H5X 5643   1.164   1.734   2.994  0.0216  0.9960 -2.0227
   67SAPC   H5Y 5644   1.095   1.897   2.975 -0.0645  0.3406 -0.4334
   67SAPC   C36 5645   1.196   1.869   3.166  1.0463 -0.2318  0.8923
   67SAPC   H6X 5646   1.222   1.976   3.164 -0.2558  0.3426 -5.1405
   67SAPC   H6Y 5647   1.277   1.800   3.198  1.2984 -0.2146  0.3050
   67SAPC   C37 5648   1.059   1.846   3.244  0.5335  0.2838 -0.0527
   67SAPC   H7X 5649   1.007   1.751   3.221 -1.0496  0.7825  1.2297
   67SAPC   H7Y 5650   0.990   1.928   3.215 -0.5230 -0.9359 -1.1162
   67SAPC   C38 5651   1.077   1.842   3.396 -0.5392 -0.1216 -0.2625
   67SAPC   H8X 5652   1.097   1.944   3.437  1.3221 -1.0895  1.4187
   67SAPC   H8Y 5653   1.176   1.794   3.410  0.9509  2.2751 -1.9214
   67SAPC   C39 5654   0.961   1.785   3.481 -0.1050  0.2277 -0.1761
   67SAPC   H9X 5655   0.931   1.695   3.424  2.6173  0.2860 -1.9137
   67SAPC   H9Y 5656   0.868   1.845   3.476 -1.5755 -2.0363 -2.5244
   67SAPC  C310 5657   0.999   1.753   3.625 -0.6452 -0.4137 -0.5712
   67SAPC  H10X 5658   1.098   1.704   3.624  0.6028  1.9779 -0.8434
   67SAPC  H10Y 5659   0.928   1.681   3.670 -0.3478 -0.6271 -0.4432
   67SAPC  C311 5660   1.019   1.876   3.718  0.0344  0.2526  0.7517
   67SAPC  H11X 5661   0.926   1.921   3.760  0.2334  1.0613  0.3489
   67SAPC  H11Y 5662   1.076   1.949   3.656  0.5140  0.3632  1.3138
   67SAPC  C312 5663   1.122   1.847   3.829 -0.0800  0.4594  0.4254
   67SAPC  H12X 5664   1.141   1.933   3.897  0.5487  0.9557 -0.3633
   67SAPC  H12Y 5665   1.215   1.826   3.772 -0.8170  1.1528 -1.0756
   67SAPC  C313 5666   1.079   1.724   3.920  0.5785  0.0064 -0.6715
   67SAPC  H13X 5667   1.164   1.683   3.978 -0.7382 -1.5499  0.2410
   67SAPC  H13Y 5668   1.051   1.640   3.852  2.1308 -1.1372  0.0210
   67SAPC  C314 5669   0.965   1.762   4.009 -0.4826  0.1714 -0.6751
   67SAPC  H14X 5670   0.877   1.762   3.941 -0.5199  1.5790 -0.6584
   67SAPC  H14Y 5671   0.978   1.862   4.057 -0.8424 -0.8737  1.7820
   67SAPC  C315 5672   0.937   1.669   4.127  0.2421  0.4253 -0.7226
   67SAPC  H15X 5673   0.880   1.727   4.202  2.4503 -1.2088  2.4526
   67SAPC  H15Y 5674   1.037   1.652   4.173  1.0189 -0.8856 -2.7740
   67SAPC  C316 5675   0.872   1.535   4.080 -0.0539  0.3619  0.2057
   67SAPC  H16X 5676   0.930   1.502   3.991  2.2444 -0.5780  1.9539
   67SAPC  H16Y 5677   0.767   1.555   4.047 -0.1325 -1.0007 -0.4527
   67SAPC  C317 5678   0.876   1.425   4.189  0.7518 -0.3576 -0.0707
   67SAPC  H17X 5679   0.874   1.479   4.286  3.5794  0.8391 -0.5819
   67SAPC  H17Y 5680   0.977   1.378   4.185  0.8340 -0.4982  2.1740
   67SAPC  C318 5681   0.759   1.329   4.160  0.2235  0.9623 -0.1680
   67SAPC  H18X 5682   0.792   1.243   4.223 -2.0265 -0.5396 -0.9323
   67SAPC  H18Y 5683   0.759   1.293   4.055 -0.4719  0.4827 -0.0014
   67SAPC  H18Z 5684   0.660   1.371   4.189 -0.6796  0.4352 -2.3290
   68SAPC     N 5685   4.073   0.429   1.698  0.4398  0.4016  0.2068
   68SAPC   C12 5686   4.121   0.503   1.823  0.0225 -0.0829  0.3281
   68SAPC  H12A 5687   4.177   0.590   1.791  1.0339 -0.5731  0.7284
   68SAPC  H12B 5688   4.195   0.440   1.870  0.1172 -1.6904 -1.8291
   68SAPC   C13 5689   3.983   0.527   1.620  0.2234 -0.2494 -0.1733
   68SAPC  H13A 5690   3.938   0.481   1.533 -1.2181  0.8220 -0.0392
   68SAPC  H13B 5691   3.921   0.568   1.698 -0.4905 -0.4343 -0.6267
   68SAPC  H13C 5692   4.043   0.614   1.596  0.3739 -0.1965  0.3877
   68SAPC   C14 5693   4.202   0.405   1.611  0.5011 -0.2251 -0.4538
   68SAPC  H14A 5694   4.280   0.351   1.663 -1.0065 -1.2748  0.8256
   68SAPC  H14B 5695   4.189   0.358   1.515 -0.4535  2.5061 -1.7583
   68SAPC  H14C 5696   4.249   0.500   1.594 -1.2620  0.3681 -2.4297
   68SAPC   C15 5697   4.002   0.301   1.723 -0.7808 -0.4576  0.6796
   68SAPC  H15A 5698   4.067   0.237   1.781  1.0509 -0.0806 -0.8722
   68SAPC  H15B 5699   3.910   0.331   1.771 -0.4745  0.0863  0.9378
   68SAPC  H15C 5700   3.967   0.250   1.635 -0.9323  1.4794 -0.4229
   68SAPC   C11 5701   4.022   0.549   1.931  0.4304 -0.0036  0.3254
   68SAPC  H11A 5702   4.077   0.595   2.016  1.5581  2.2607 -1.4950
   68SAPC  H11B 5703   3.959   0.470   1.976  1.1386 -0.0848  1.2156
   68SAPC     P 5704   3.928   0.794   1.906  0.1235 -0.0088 -0.5222
   68SAPC   O13 5705   4.065   0.840   1.871 -0.1889  0.0827  0.2556
   68SAPC   O14 5706   3.820   0.853   1.824 -0.1995  0.1435 -0.1848
   68SAPC   O12 5707   3.924   0.639   1.873  0.3986 -0.1340  0.1069
   68SAPC   O11 5708   3.911   0.802   2.062 -0.3395  0.4768  0.1732
   68SAPC    C1 5709   3.806   0.745   2.135  0.1259  0.1431 -0.3393
   68SAPC    HA 5710   3.746   0.688   2.061 -0.4552 -0.9859  0.9548
   68SAPC    HB 5711   3.832   0.667   2.210  1.0616  1.3449  0.6411
   68SAPC    C2 5712   3.711   0.853   2.208  0.0214  0.8601  0.8452
   68SAPC    HS 5713   3.686   0.936   2.138 -2.7261  0.1874  0.9115
   68SAPC   O21 5714   3.781   0.897   2.325 -0.5959  0.2030 -0.1066
   68SAPC   C21 5715   3.873   0.994   2.312 -0.1985 -0.9332 -0.0320
   68SAPC   O22 5716   3.898   1.044   2.201  0.4086  0.7398 -0.4740
   68SAPC   C22 5717   3.934   1.043   2.444  0.2683 -0.5564  0.4704
   68SAPC   H2R 5718   4.035   0.996   2.452  0.0538 -1.1098  0.0289
   68SAPC   H2S 5719   3.937   1.153   2.433 -1.0358 -0.4824  0.6622
   68SAPC    C3 5720   3.574   0.786   2.235 -0.6717  0.4971 -0.1204
   68SAPC    HX 5721   3.534   0.741   2.142  0.5582 -1.2486  0.1559
   68SAPC    HY 5722   3.508   0.871   2.264 -0.0880  1.4033 -1.3590
   68SAPC   O31 5723   3.580   0.668   2.319  0.1367  0.0918 -0.0668
   68SAPC   C31 5724   3.521   0.686   2.444  0.4315 -0.5234  0.0114
   68SAPC   O32 5725   3.491   0.795   2.488  0.0651 -0.0944 -0.1081
   68SAPC   C32 5726   3.518   0.555   2.530  0.5709 -0.5468  0.3099
   68SAPC   H2X 5727   3.449   0.478   2.492  0.5597 -0.3814 -0.0020
   68SAPC   H2Y 5728   3.489   0.586   2.633  0.1549  0.2831 -0.0502
   68SAPC   C23 5729   3.844   0.994   2.563 -0.2543  0.4176  0.9630
   68SAPC   H3R 5730   3.864   0.886   2.579 -1.2080 -0.5691 -3.2778
   68SAPC   H3S 5731   3.736   1.002   2.538 -0.0085 -1.6489 -1.1127
   68SAPC   C24 5732   3.875   1.071   2.695 -0.6949 -0.8431  0.2116
   68SAPC   H4R 5733   3.804   1.022   2.766  1.1222 -2.2464  1.1571
   68SAPC   H4S 5734   3.858   1.180   2.685  1.8403 -0.2926  1.3354
   68SAPC   C25 5735   4.005   1.034   2.753 -0.7788  0.2379  0.2270
   68SAPC   H5R 5736   4.061   0.960   2.694 -0.1476  0.3194  0.7076
   68SAPC   C26 5737   4.049   1.077   2.870 -0.3559 -1.6855  0.5333
   68SAPC   H6R 5738   4.143   1.048   2.918 -0.3172 -0.8845  0.9718
   68SAPC   C27 5739   3.973   1.174   2.949  0.7361  0.0211 -0.2998
   68SAPC   H7R 5740   3.996   1.156   3.056  0.8012  1.4864 -0.0405
   68SAPC   H7S 5741   3.867   1.142   2.946  1.1729 -1.8804  1.9752
   68SAPC   C28 5742   3.984   1.326   2.931 -1.0475  0.5274  1.1617
   68SAPC   H8R 5743   4.064   1.341   2.858  0.1405 -2.9139  1.5776
   68SAPC   C29 5744   3.916   1.421   2.988  0.9415  0.6183 -0.8518
   68SAPC   H9R 5745   3.930   1.526   2.959  1.5651  1.3158  1.6639
   68SAPC  C210 5746   3.812   1.397   3.096 -0.0990 -0.3782 -0.7871
   68SAPC  H10R 5747   3.830   1.296   3.140 -1.6579 -0.7195 -0.8768
   68SAPC  H10S 5748   3.709   1.404   3.056  0.1823  0.8026 -1.3571
   68SAPC  C211 5749   3.816   1.512   3.203 -0.7263  0.0136 -0.1466
   68SAPC  H11R 5750   3.882   1.600   3.191 -1.1395  0.6526  1.8846
   68SAPC  C212 5751   3.736   1.504   3.313  0.4828 -0.7899 -0.2560
   68SAPC  H12R 5752   3.730   1.586   3.385 -0.6076 -2.3324  1.5081
   68SAPC  C213 5753   3.642   1.388   3.354  0.1370 -0.1055 -0.0452
   68SAPC  H13R 5754   3.598   1.414   3.453  0.1835  1.0602 -0.3187
   68SAPC  H13S 5755   3.705   1.297   3.368  0.6973  0.2264 -0.3933
   68SAPC  C214 5756   3.534   1.372   3.246  0.6651  0.3869 -0.0034
   68SAPC  H14R 5757   3.495   1.469   3.213 -1.3627  0.0861  1.3333
   68SAPC  C215 5758   3.470   1.258   3.201 -0.9389 -0.4880 -0.4646
   68SAPC  H15R 5759   3.411   1.263   3.108 -0.1784  0.3469 -0.9245
   68SAPC  C216 5760   3.491   1.118   3.259 -0.1315  0.0893  0.4799
   68SAPC  H16R 5761   3.402   1.075   3.311  0.3880 -0.7585  0.6867
   68SAPC  H16S 5762   3.575   1.112   3.332 -1.6207  0.0713  2.2648
   68SAPC  C217 5763   3.518   1.016   3.139  1.0017 -0.3738  0.1680
   68SAPC  H17R 5764   3.544   0.915   3.176  0.7891 -0.8898 -1.0238
   68SAPC  H17S 5765   3.609   1.042   3.081 -0.7770  0.3272 -2.5261
   68SAPC  C218 5766   3.400   0.999   3.046  0.3997 -0.5142  0.2161
   68SAPC  H18R 5767   3.361   1.086   2.990 -3.2543 -1.1920  1.4352
   68SAPC  H18S 5768   3.320   0.952   3.107  0.8099  0.9367  1.9553
   68SAPC  C219 5769   3.443   0.906   2.926  0.2995  0.6397 -0.2511
   68SAPC  H19R 5770   3.506   0.828   2.973 -1.0086 -0.2597  0.0506
   68SAPC  H19S 5771   3.505   0.971   2.860 -0.3786  1.6491  0.0733
   68SAPC  C220 5772   3.345   0.844   2.828 -0.1369 -0.3984  0.2294
   68SAPC  H20R 5773   3.401   0.856   2.732 -1.2452  1.8988 -0.2174
   68SAPC  H20S 5774   3.245   0.892   2.826 -0.3716 -0.8854 -1.1170
   68SAPC  H20T 5775   3.328   0.736   2.848 -0.6681  0.1105  2.9406
   68SAPC   C33 5776   3.658   0.508   2.535 -0.4790  0.6563 -0.0541
   68SAPC   H3X 5777   3.704   0.483   2.437  1.5824  0.8304  0.8182
   68SAPC   H3Y 5778   3.675   0.416   2.595  2.5606  2.4050  2.0674
   68SAPC   C34 5779   3.751   0.620   2.599  0.2460  1.1988 -0.7187
   68SAPC   H4X 5780   3.762   0.719   2.549  1.6179  1.8197  0.7314
   68SAPC   H4Y 5781   3.855   0.580   2.597  0.3075  0.9642  2.2446
   68SAPC   C35 5782   3.732   0.631   2.751  0.1372  0.1359 -0.1035
   68SAPC   H5X 5783   3.739   0.528   2.793  2.9283  0.2390 -0.0971
   68SAPC   H5Y 5784   3.630   0.663   2.780 -0.2557 -2.0313  1.1304
   68SAPC   C36 5785   3.843   0.712   2.815  0.1020  0.4876 -0.2668
   68SAPC   H6X 5786   3.851   0.813   2.769  1.6126  0.2403 -0.6035
   68SAPC   H6Y 5787   3.937   0.660   2.783 -0.1261  1.3331 -2.5036
   68SAPC   C37 5788   3.824   0.718   2.969  0.0422 -0.4721 -0.1224
   68SAPC   H7X 5789   3.783   0.622   3.006  1.5552 -0.9118  0.4707
   68SAPC   H7Y 5790   3.749   0.796   2.994  1.5176  1.2531 -0.8065
   68SAPC   C38 5791   3.952   0.752   3.049 -0.1123  0.4168 -0.0355
   68SAPC   H8X 5792   3.990   0.847   3.007 -0.6786  0.5285 -0.3082
   68SAPC   H8Y 5793   4.030   0.677   3.025 -0.0310  0.1216  1.0832
   68SAPC   C39 5794   3.923   0.759   3.200  0.2619  0.7274  0.7105
   68SAPC   H9X 5795   4.015   0.723   3.250  1.0782 -1.1235 -1.8951
   68SAPC   H9Y 5796   3.833   0.698   3.221  1.5783 -1.1743  1.1304
   68SAPC  C310 5797   3.897   0.900   3.248  0.0919 -0.5028 -0.4546
   68SAPC  H10X 5798   3.827   0.953   3.180  0.8076 -0.4335 -1.1562
   68SAPC  H10Y 5799   3.997   0.948   3.238  0.0630 -0.0567  1.1084
   68SAPC  C311 5800   3.834   0.904   3.391 -0.7005  0.6020 -0.0738
   68SAPC  H11X 5801   3.882   0.823   3.449  1.5346  1.0058 -1.2214
   68SAPC  H11Y 5802   3.726   0.881   3.381 -0.5852  0.2131 -0.4999
   68SAPC  C312 5803   3.879   1.029   3.467  0.4263 -0.2738 -0.1792
   68SAPC  H12X 5804   3.851   1.124   3.417  1.7005 -0.9606 -2.2993
   68SAPC  H12Y 5805   3.990   1.026   3.466  0.4260 -1.0446 -2.3303
   68SAPC  C313 5806   3.813   1.055   3.605  0.3351  0.1527  0.2178
   68SAPC  H13X 5807   3.705   1.032   3.592  0.4500 -0.3853  0.2001
   68SAPC  H13Y 5808   3.828   1.160   3.639  0.0404  0.5329 -0.7742
   68SAPC  C314 5809   3.865   0.958   3.706  0.2315  0.3456  0.1723
   68SAPC  H14X 5810   3.975   0.962   3.717  0.1434  2.0577  0.8116
   68SAPC  H14Y 5811   3.840   0.854   3.676  2.8322 -0.8267  1.7256
   68SAPC  C315 5812   3.810   0.979   3.850 -0.0597  0.4072 -0.4042
   68SAPC  H15X 5813   3.832   0.897   3.921 -3.1634  0.6057  0.9161
   68SAPC  H15Y 5814   3.699   0.974   3.841  0.0008 -0.9159 -0.6890
   68SAPC  C316 5815   3.849   1.110   3.916 -0.9655 -0.0321 -0.8560
   68SAPC  H16X 5816   3.837   1.195   3.845 -0.3519  0.9718  0.2039
   68SAPC  H16Y 5817   3.954   1.105   3.951 -0.8623  1.3712 -0.9196
   68SAPC  C317 5818   3.766   1.146   4.033 -0.2204  1.1476 -1.0132
   68SAPC  H17X 5819   3.785   1.067   4.109 -1.4676  0.0792 -1.7843
   68SAPC  H17Y 5820   3.658   1.149   4.008 -0.0382  1.9063 -1.7884
   68SAPC  C318 5821   3.809   1.285   4.090  0.7006  0.6704  0.3849
   68SAPC  H18X 5822   3.783   1.359   4.012 -3.3797  1.2315  2.0123
   68SAPC  H18Y 5823   3.918   1.287   4.111  1.1711 -0.2057 -1.7185
   68SAPC  H18Z 5824   3.748   1.312   4.178 -0.1749  1.0872 -0.3389
   69SAPC     N 5825   3.665   6.600   1.695  1.0793  0.6332  0.0111
   69SAPC   C12 5826   3.728   6.465   1.731 -0.0568  0.1908 -0.1297
   69SAPC  H12A 5827   3.748   6.416   1.637  0.3560  2.0926 -1.0897
   69SAPC  H12B 5828   3.664   6.406   1.795  0.9061 -0.1042  0.5815
   69SAPC   C13 5829   3.531   6.572   1.621 -0.3289 -0.6485 -0.3481
   69SAPC  H13A 5830   3.492   6.663   1.576 -0.4517 -0.4410  0.1757
   69SAPC  H13B 5831   3.554   6.509   1.536  3.2969  0.6162 -0.4695
   69SAPC  H13C 5832   3.462   6.532   1.693 -2.2625  0.2348 -1.6321
   69SAPC   C14 5833   3.633   6.679   1.816  0.5217  0.6127 -0.1253
   69SAPC  H14A 5834   3.717   6.696   1.881  0.5894 -0.9766  0.2181
   69SAPC  H14B 5835   3.592   6.775   1.787 -0.8199  0.5127  1.3300
   69SAPC  H14C 5836   3.557   6.632   1.876 -0.5678  0.3466 -1.6547
   69SAPC   C15 5837   3.748   6.683   1.614  0.2782 -0.0706  0.5044
   69SAPC  H15A 5838   3.842   6.705   1.661  0.5602 -2.3242  1.0973
   69SAPC  H15B 5839   3.770   6.630   1.523  3.2204  1.3863  0.2686
   69SAPC  H15C 5840   3.689   6.771   1.589 -1.1611 -1.1336  0.0320
   69SAPC   C11 5841   3.869   6.464   1.795  0.3683  0.5334  0.3484
   69SAPC  H11A 5842   3.889   6.360   1.828  0.8081  0.6871  0.5740
   69SAPC  H11B 5843   3.862   6.527   1.886 -0.3445  0.2548  0.4895
   69SAPC     P 5844   4.111   6.538   1.767  0.0249 -0.3319  0.6646
   69SAPC   O13 5845   4.204   6.443   1.698  0.2677 -0.2566  0.0354
   69SAPC   O14 5846   4.151   6.686   1.760  0.7252 -0.1265  0.3439
   69SAPC   O12 5847   3.966   6.517   1.706  0.0459  0.0545 -0.2293
   69SAPC   O11 5848   4.099   6.506   1.919 -0.3133 -0.6175  0.2092
   69SAPC    C1 5849   4.224   6.514   1.999  0.1626 -0.0243 -0.4864
   69SAPC    HA 5850   4.231   6.419   2.057  0.8985  0.3344  0.0195
   69SAPC    HB 5851   4.315   6.532   1.938  0.2914  0.6660 -0.0956
   69SAPC    C2 5852   4.200   6.616   2.116  0.1316  0.7246  0.1998
   69SAPC    HS 5853   4.298   6.605   2.166  1.2578 -1.2568 -2.1996
   69SAPC   O21 5854   4.089   6.594   2.199 -0.4946 -0.3270 -0.1034
   69SAPC   C21 5855   4.087   6.483   2.271  0.6949  0.0317 -0.0143
   69SAPC   O22 5856   4.183   6.410   2.280  0.2745  0.2743 -0.5292
   69SAPC   C22 5857   3.946   6.441   2.318  0.3475 -0.0419 -0.7378
   69SAPC   H2R 5858   3.894   6.536   2.345 -0.2444 -0.8349  1.0068
   69SAPC   H2S 5859   3.896   6.396   2.229 -2.6116  0.8737  0.3547
   69SAPC    C3 5860   4.188   6.757   2.060  0.8003  0.2710 -0.1347
   69SAPC    HX 5861   4.084   6.785   2.031  0.4888 -1.0351 -0.3398
   69SAPC    HY 5862   4.254   6.762   1.971 -0.6241  0.0702 -1.2478
   69SAPC   O31 5863   4.247   6.856   2.145 -0.3463  0.1763  0.9676
   69SAPC   C31 5864   4.181   6.954   2.194  0.5313 -0.4022 -0.5547
   69SAPC   O32 5865   4.059   6.970   2.180  0.3614 -0.3989  0.3561
   69SAPC   C32 5866   4.271   7.040   2.281 -0.2618 -0.2308  0.2218
   69SAPC   H2X 5867   4.270   7.140   2.232 -0.3444  0.8589  2.3363
   69SAPC   H2Y 5868   4.377   7.008   2.274 -0.0729  0.4425 -0.0883
   69SAPC   C23 5869   3.932   6.344   2.436 -0.8681 -0.8166 -0.0146
   69SAPC   H3R 5870   3.982   6.395   2.521 -3.5347  0.0638  1.1045
   69SAPC   H3S 5871   3.988   6.248   2.422  2.3577  0.9807 -0.4905
   69SAPC   C24 5872   3.788   6.330   2.490  0.4531 -0.8420 -0.3924
   69SAPC   H4R 5873   3.727   6.299   2.402 -0.3543  1.8372 -0.8693
   69SAPC   H4S 5874   3.745   6.432   2.500  1.3940 -0.5545  1.0605
   69SAPC   C25 5875   3.775   6.248   2.615 -0.2733  0.7440 -0.4367
   69SAPC   H5R 5876   3.865   6.190   2.641 -0.6697  1.3299  2.6665
   69SAPC   C26 5877   3.675   6.255   2.706 -0.0087  0.3385  0.2258
   69SAPC   H6R 5878   3.706   6.222   2.806 -1.8413  0.8519  1.0005
   69SAPC   C27 5879   3.549   6.343   2.692  0.5687 -0.7271 -0.5602
   69SAPC   H7R 5880   3.511   6.332   2.588 -1.4984  1.5524 -0.1397
   69SAPC   H7S 5881   3.587   6.445   2.710  0.7515 -1.0711  1.2402
   69SAPC   C28 5882   3.445   6.298   2.796 -0.1509 -0.5374 -0.7984
   69SAPC   H8R 5883   3.410   6.193   2.792 -0.2248 -0.6125  0.9967
   69SAPC   C29 5884   3.393   6.383   2.890  0.4808 -0.5311 -0.3788
   69SAPC   H9R 5885   3.315   6.352   2.961 -0.2027  1.3871 -0.2557
   69SAPC  C210 5886   3.429   6.525   2.910  0.5139 -0.1044  0.0494
   69SAPC  H10R 5887   3.338   6.581   2.940  1.4470  1.4336  0.1515
   69SAPC  H10S 5888   3.454   6.574   2.813 -2.4425  0.6723 -0.4332
   69SAPC  C211 5889   3.525   6.552   3.018 -0.1354 -0.0232 -0.1346
   69SAPC  H11R 5890   3.628   6.565   2.981 -0.4937  0.0815 -1.1036
   69SAPC  C212 5891   3.503   6.545   3.151  0.0941 -0.4694  0.6288
   69SAPC  H12R 5892   3.586   6.568   3.219  0.9932 -1.8039  0.0415
   69SAPC  C213 5893   3.378   6.522   3.226  0.5634 -0.5148 -0.3870
   69SAPC  H13R 5894   3.315   6.460   3.160  0.3916 -0.6085 -0.1357
   69SAPC  H13S 5895   3.318   6.615   3.235  1.0233 -0.1428 -1.0222
   69SAPC  C214 5896   3.397   6.456   3.354  0.6424  0.0478 -0.3716
   69SAPC  H14R 5897   3.394   6.520   3.443 -0.5083  0.0083 -0.3753
   69SAPC  C215 5898   3.422   6.329   3.366  0.6217  0.8967  0.3790
   69SAPC  H15R 5899   3.435   6.285   3.466  0.6818  0.3325  0.1287
   69SAPC  C216 5900   3.422   6.220   3.262 -0.1000 -0.4718  0.0191
   69SAPC  H16R 5901   3.492   6.136   3.282  0.3660 -1.1934 -3.8031
   69SAPC  H16S 5902   3.463   6.251   3.164  0.1289 -2.2018 -0.4740
   69SAPC  C217 5903   3.284   6.154   3.235 -0.6195  0.4442 -0.1505
   69SAPC  H17R 5904   3.211   6.236   3.215 -2.1723 -0.6707  0.6702
   69SAPC  H17S 5905   3.271   6.102   3.333  1.6245 -2.6094 -1.3493
   69SAPC  C218 5906   3.285   6.055   3.123  0.2093  0.0014 -0.0578
   69SAPC  H18R 5907   3.386   6.009   3.118  1.0277  1.7737 -0.4746
   69SAPC  H18S 5908   3.270   6.112   3.029 -0.5372  0.3159  0.2391
   69SAPC  C219 5909   3.182   5.938   3.135 -0.1972  0.3094 -0.8812
   69SAPC  H19R 5910   3.201   5.885   3.039  0.1340 -1.1054 -0.0655
   69SAPC  H19S 5911   3.079   5.979   3.136 -0.2417  0.2318 -1.9735
   69SAPC  C220 5912   3.184   5.841   3.257  0.3428  0.0093  0.7451
   69SAPC  H20R 5913   3.116   5.754   3.250 -0.1590  0.2598  2.1246
   69SAPC  H20S 5914   3.160   5.905   3.344  2.3305  1.0252  0.6058
   69SAPC  H20T 5915   3.287   5.799   3.260 -0.0335 -1.0655 -0.4794
   69SAPC   C33 5916   4.225   7.050   2.425 -0.1227  0.1752  0.4103
   69SAPC   H3X 5917   4.115   7.063   2.439 -1.2072 -2.0891 -4.1427
   69SAPC   H3Y 5918   4.258   7.150   2.461  0.9365  0.0343 -0.1326
   69SAPC   C34 5919   4.268   6.932   2.514  0.1143 -0.2644  0.1076
   69SAPC   H4X 5920   4.313   6.974   2.606 -1.6696  0.5213  0.6777
   69SAPC   H4Y 5921   4.346   6.867   2.469  0.1703 -0.5198  0.5663
   69SAPC   C35 5922   4.147   6.848   2.554 -0.6627  1.1699  0.5718
   69SAPC   H5X 5923   4.091   6.814   2.465 -0.1297 -2.8778  1.6088
   69SAPC   H5Y 5924   4.079   6.911   2.616  1.2744  1.6824  2.2939
   69SAPC   C36 5925   4.189   6.720   2.627 -0.2308  0.9538  0.7055
   69SAPC   H6X 5926   4.255   6.739   2.715 -0.9509  1.2210  1.1928
   69SAPC   H6Y 5927   4.261   6.670   2.559 -0.7770 -0.2100  0.9527
   69SAPC   C37 5928   4.079   6.622   2.670  0.2542  0.0365  0.3684
   69SAPC   H7X 5929   4.009   6.603   2.585  0.4221  2.3489 -0.3519
   69SAPC   H7Y 5930   4.016   6.682   2.739 -1.2197  1.1432 -1.8050
   69SAPC   C38 5931   4.127   6.492   2.737  0.5128  0.2320 -0.8267
   69SAPC   H8X 5932   4.225   6.508   2.787  0.9049  1.0231 -1.8075
   69SAPC   H8Y 5933   4.147   6.424   2.651 -0.7811  1.1418 -1.8925
   69SAPC   C39 5934   4.038   6.420   2.835  0.6822  0.2711 -0.2646
   69SAPC   H9X 5935   4.087   6.321   2.850 -0.7337 -0.2017  1.6212
   69SAPC   H9Y 5936   3.946   6.386   2.783  2.4468 -1.3991 -2.4792
   69SAPC  C310 5937   4.013   6.489   2.969  0.1611  0.7534  0.0525
   69SAPC  H10X 5938   3.947   6.577   2.953  0.6458  1.2326  0.6514
   69SAPC  H10Y 5939   4.116   6.513   3.004  0.8375  0.0881 -1.3992
   69SAPC  C311 5940   3.929   6.390   3.055  0.3064  0.1320 -0.4289
   69SAPC  H11X 5941   4.006   6.310   3.065 -0.8116 -1.0591 -1.0621
   69SAPC  H11Y 5942   3.850   6.347   2.991  1.1694 -0.1560 -1.3248
   69SAPC  C312 5943   3.887   6.441   3.194 -0.3011  0.3663  0.2918
   69SAPC  H12X 5944   3.817   6.523   3.167  0.3141  0.6904 -0.3685
   69SAPC  H12Y 5945   3.976   6.486   3.242 -0.0878 -0.4879  0.7074
   69SAPC  C313 5946   3.832   6.319   3.274 -0.1022 -0.0516  0.1853
   69SAPC  H13X 5947   3.902   6.232   3.271 -0.4533 -0.4127  1.5500
   69SAPC  H13Y 5948   3.735   6.284   3.232 -0.3521 -0.3251  0.9696
   69SAPC  C314 5949   3.811   6.354   3.421 -0.1930  0.4463  0.4718
   69SAPC  H14X 5950   3.723   6.419   3.440  0.7371  0.9997  3.3495
   69SAPC  H14Y 5951   3.900   6.398   3.470  1.5392 -1.0324 -1.1692
   69SAPC  C315 5952   3.773   6.223   3.504 -0.0813  0.7320  0.7727
   69SAPC  H15X 5953   3.768   6.138   3.433  0.2773  0.3834  1.1557
   69SAPC  H15Y 5954   3.677   6.249   3.553 -1.3582  0.0743 -1.2617
   69SAPC  C316 5955   3.879   6.192   3.602 -0.2821 -0.4717 -1.0639
   69SAPC  H16X 5956   3.875   6.281   3.668 -2.7624 -1.5788  0.4570
   69SAPC  H16Y 5957   3.979   6.196   3.555  0.6198 -2.0663  0.5971
   69SAPC  C317 5958   3.855   6.070   3.680  0.0927 -0.1700 -1.1207
   69SAPC  H17X 5959   3.931   6.056   3.761  0.7938 -1.7042 -1.9998
   69SAPC  H17Y 5960   3.858   5.978   3.619 -0.0925 -0.6078 -0.4753
   69SAPC  C318 5961   3.716   6.074   3.751  0.8846  0.2540 -0.3005
   69SAPC  H18X 5962   3.689   6.166   3.807 -1.6758 -1.8459  2.2406
   69SAPC  H18Y 5963   3.713   5.980   3.811  0.5711 -1.2460 -2.5284
   69SAPC  H18Z 5964   3.643   6.052   3.670  1.4748  0.1090 -0.7955
   70SAPC     N 5965   6.785   3.695   1.939  0.2351  0.1724  0.6071
   70SAPC   C12 5966   6.940   3.705   1.935 -0.0998  0.8366  0.8080
   70SAPC  H12A 5967   6.982   3.649   1.853 -1.8636  1.0493 -0.2956
   70SAPC  H12B 5968   6.985   3.675   2.028 -0.1057  0.1841  0.6073
   70SAPC   C13 5969   6.727   3.761   2.058 -0.2369 -0.2321  0.5414
   70SAPC  H13A 5970   6.736   3.693   2.141 -2.3331 -1.5824 -0.2415
   70SAPC  H13B 5971   6.779   3.855   2.068  0.1310 -0.3823  0.0780
   70SAPC  H13C 5972   6.619   3.771   2.049 -0.2099 -0.2009  0.2238
   70SAPC   C14 5973   6.728   3.740   1.802 -0.1359  0.2433 -0.2080
   70SAPC  H14A 5974   6.758   3.679   1.717 -0.2195  0.3360 -0.3047
   70SAPC  H14B 5975   6.621   3.751   1.798 -0.2491 -0.9182 -1.0461
   70SAPC  H14C 5976   6.767   3.839   1.783 -1.1357  0.3915 -1.6669
   70SAPC   C15 5977   6.744   3.550   1.937 -0.1576  0.5904 -0.5339
   70SAPC  H15A 5978   6.637   3.547   1.930 -0.0953 -0.8091 -1.0585
   70SAPC  H15B 5979   6.773   3.497   1.848 -1.0649  1.2972 -1.2701
   70SAPC  H15C 5980   6.772   3.496   2.026  0.3429 -0.9274 -1.5848
   70SAPC   C11 5981   7.001   3.846   1.941 -0.1509  0.2746 -0.9323
   70SAPC  H11A 5982   6.962   3.914   1.862 -2.2426  0.5366  0.2463
   70SAPC  H11B 5983   7.110   3.841   1.923 -0.1529  0.7020 -1.0704
   70SAPC     P 5984   7.006   4.050   2.091 -0.1529  0.3274 -0.2919
   70SAPC   O13 5985   7.126   4.099   2.020 -0.1766 -0.3385  0.0394
   70SAPC   O14 5986   6.875   4.112   2.064  0.5073 -0.5140  0.2947
   70SAPC   O12 5987   6.992   3.900   2.073 -0.1300  0.2238 -0.4521
   70SAPC   O11 5988   7.032   4.059   2.247 -0.1125 -0.2981  0.3804
   70SAPC    C1 5989   7.084   3.946   2.319 -0.1829  0.0175 -0.9586
   70SAPC    HA 5990   7.148   3.885   2.252 -0.3128 -0.6961 -0.4426
   70SAPC    HB 5991   7.151   3.974   2.403  0.6879 -2.9488 -0.5641
   70SAPC    C2 5992   6.970   3.859   2.363 -0.0371  0.0448 -0.4703
   70SAPC    HS 5993   6.906   3.832   2.276 -1.0209 -1.7566  0.7478
   70SAPC   O21 5994   6.901   3.938   2.456  0.2943  0.3655 -0.1731
   70SAPC   C21 5995   6.772   3.918   2.470  1.1385 -0.6325 -0.2782
   70SAPC   O22 5996   6.711   3.832   2.411 -0.4298  0.0270 -0.1081
   70SAPC   C22 5997   6.701   4.020   2.564 -0.3766 -0.3288 -0.8533
   70SAPC   H2R 5998   6.772   4.060   2.639 -0.3877  1.4904 -1.7531
   70SAPC   H2S 5999   6.662   4.109   2.509 -1.7568 -0.7530 -0.5975
   70SAPC    C3 6000   7.018   3.719   2.420 -0.2109 -0.6710  0.4540
   70SAPC    HX 6001   7.051   3.666   2.328 -1.4183 -1.8648  0.6783
   70SAPC    HY 6002   6.927   3.660   2.447  0.8014 -2.1650  0.7211
   70SAPC   O31 6003   7.117   3.727   2.514 -1.0001 -0.3027  0.7779
   70SAPC   C31 6004   7.118   3.675   2.636 -0.0980 -0.1731  0.8460
   70SAPC   O32 6005   7.026   3.610   2.686 -0.5477  0.0128  0.1264
   70SAPC   C32 6006   7.260   3.700   2.690  1.1906 -0.6163 -0.8135
   70SAPC   H2X 6007   7.269   3.809   2.707  2.6904 -1.0556  1.6792
   70SAPC   H2Y 6008   7.333   3.647   2.626  2.2646 -0.3380  0.1626
   70SAPC   C23 6009   6.576   3.974   2.642  0.3331 -0.0687  0.2455
   70SAPC   H3R 6010   6.496   3.956   2.568 -0.5716  1.6495  0.7557
   70SAPC   H3S 6011   6.531   4.059   2.697  0.2566  0.3491 -0.4452
   70SAPC   C24 6012   6.581   3.877   2.765  0.0595  0.1821  0.5932
   70SAPC   H4R 6013   6.630   3.929   2.850  0.1252 -0.3525  0.8867
   70SAPC   H4S 6014   6.657   3.797   2.749 -1.0619 -0.6686 -0.7183
   70SAPC   C25 6015   6.455   3.820   2.806  0.4426 -0.0037 -0.2184
   70SAPC   H5R 6016   6.413   3.737   2.747 -2.0246 -0.0612  1.4849
   70SAPC   C26 6017   6.396   3.856   2.924  0.7236 -0.2031  0.1201
   70SAPC   H6R 6018   6.298   3.809   2.941  0.3658 -1.8757 -4.8751
   70SAPC   C27 6019   6.433   3.960   3.029 -0.1871  0.1099  1.3669
   70SAPC   H7R 6020   6.359   4.041   3.011 -0.3572 -0.3691 -0.1465
   70SAPC   H7S 6021   6.530   4.012   3.012 -1.7142  2.5505 -0.5827
   70SAPC   C28 6022   6.412   3.917   3.174 -0.1875  0.0715 -0.3394
   70SAPC   H8R 6023   6.345   3.831   3.188 -0.6898  0.7717  2.0797
   70SAPC   C29 6024   6.471   3.974   3.281 -1.0326  0.2025  0.0243
   70SAPC   H9R 6025   6.443   3.938   3.381 -1.6216 -0.7138 -0.4566
   70SAPC  C210 6026   6.563   4.098   3.284  0.2892  0.1466  0.6904
   70SAPC  H10R 6027   6.576   4.130   3.179  0.9932  0.4945  0.8795
   70SAPC  H10S 6028   6.665   4.077   3.322  0.5300 -1.8683 -0.8972
   70SAPC  C211 6029   6.510   4.208   3.370  0.3429 -0.3007  0.0416
   70SAPC  H11R 6030   6.410   4.239   3.337 -0.2967  0.6189  2.6305
   70SAPC  C212 6031   6.577   4.274   3.464  0.5566 -0.6408 -0.3229
   70SAPC  H12R 6032   6.513   4.340   3.523 -0.8934 -1.3988 -1.0049
   70SAPC  C213 6033   6.722   4.266   3.509  0.1101 -0.0246  0.2065
   70SAPC  H13R 6034   6.775   4.220   3.424  0.3912 -0.0744  0.4091
   70SAPC  H13S 6035   6.723   4.194   3.593  0.9126  0.1983  0.3997
   70SAPC  C214 6036   6.782   4.401   3.534 -0.2223 -0.0310  0.4702
   70SAPC  H14R 6037   6.858   4.432   3.461 -0.8272 -1.3647 -0.7837
   70SAPC  C215 6038   6.758   4.478   3.636 -0.6871  0.1963 -0.1771
   70SAPC  H15R 6039   6.819   4.569   3.651  1.2364 -1.0370 -0.1567
   70SAPC  C216 6040   6.668   4.460   3.754 -0.4869 -0.3838  0.3199
   70SAPC  H16R 6041   6.730   4.453   3.846 -1.5038  1.3402  1.1884
   70SAPC  H16S 6042   6.604   4.369   3.760 -0.3913 -0.5590 -0.9805
   70SAPC  C217 6043   6.585   4.587   3.784  1.2065 -0.3338 -0.0367
   70SAPC  H17R 6044   6.529   4.584   3.880 -0.6124  2.2710 -0.9158
   70SAPC  H17S 6045   6.508   4.603   3.705  2.2579  1.5124 -0.7544
   70SAPC  C218 6046   6.663   4.716   3.797  0.4101 -0.3144  0.1623
   70SAPC  H18R 6047   6.696   4.748   3.696 -2.5250 -0.4790 -0.9101
   70SAPC  H18S 6048   6.744   4.700   3.873  0.8158 -1.2342 -0.4458
   70SAPC  C219 6049   6.570   4.834   3.848 -0.3052 -0.0210 -0.3500
   70SAPC  H19R 6050   6.520   4.812   3.945 -0.5678  0.5797 -0.3408
   70SAPC  H19S 6051   6.486   4.843   3.776 -0.9870 -3.2806 -0.1097
   70SAPC  C220 6052   6.630   4.964   3.874  0.1105 -0.3981  0.1155
   70SAPC  H20R 6053   6.550   5.037   3.898  0.2453 -0.0185 -0.5511
   70SAPC  H20S 6054   6.667   5.004   3.777 -0.8731 -0.6848 -0.3925
   70SAPC  H20T 6055   6.707   4.955   3.954 -0.0218 -0.8400  0.1964
   70SAPC   C33 6056   7.282   3.647   2.836 -0.4731 -0.6607 -0.1031
   70SAPC   H3X 6057   7.306   3.538   2.837 -1.5958 -0.9234 -0.5795
   70SAPC   H3Y 6058   7.191   3.669   2.894  0.1591  2.0741 -0.0290
   70SAPC   C34 6059   7.393   3.723   2.910  0.1961 -0.6576  0.6377
   70SAPC   H4X 6060   7.466   3.763   2.836 -1.4122  2.0952  0.3862
   70SAPC   H4Y 6061   7.451   3.660   2.981  1.3488 -0.1930  0.1340
   70SAPC   C35 6062   7.337   3.844   2.976 -0.0572 -0.5093 -0.2356
   70SAPC   H5X 6063   7.268   3.812   3.058  0.7157  1.6105  1.3377
   70SAPC   H5Y 6064   7.281   3.909   2.905 -0.0307  1.0385  1.0858
   70SAPC   C36 6065   7.452   3.926   3.024  0.3810  0.1615 -0.1118
   70SAPC   H6X 6066   7.520   3.946   2.938  0.4878 -2.0359 -0.5809
   70SAPC   H6Y 6067   7.507   3.879   3.107 -0.6727  1.2599  1.2521
   70SAPC   C37 6068   7.411   4.066   3.071  0.6766 -0.4126  0.5176
   70SAPC   H7X 6069   7.493   4.135   3.098  0.1716  0.0918  0.7946
   70SAPC   H7Y 6070   7.363   4.113   2.982  0.0140  1.0620  1.6065
   70SAPC   C38 6071   7.308   4.065   3.184 -0.5935  0.6138  0.0408
   70SAPC   H8X 6072   7.357   4.008   3.266 -0.2122  1.3197  0.3163
   70SAPC   H8Y 6073   7.221   4.002   3.158 -0.8704  0.7847  0.5487
   70SAPC   C39 6074   7.273   4.204   3.247 -0.3213  0.0518  0.4576
   70SAPC   H9X 6075   7.370   4.243   3.284  0.9050 -2.8324  0.5921
   70SAPC   H9Y 6076   7.205   4.201   3.335  0.0642  0.6839  0.7831
   70SAPC  C310 6077   7.209   4.308   3.143 -0.3548 -0.0445 -0.0739
   70SAPC  H10X 6078   7.236   4.285   3.038 -0.8153  1.9572 -0.6658
   70SAPC  H10Y 6079   7.236   4.413   3.167 -1.4400 -0.1246  1.6739
   70SAPC  C311 6080   7.057   4.298   3.164  0.5294  1.1808  0.3287
   70SAPC  H11X 6081   7.046   4.314   3.274 -1.1390  0.8218  0.2527
   70SAPC  H11Y 6082   7.014   4.197   3.146  0.0340  1.0711  1.9425
   70SAPC  C312 6083   6.986   4.392   3.077 -0.8511 -0.6678 -0.3161
   70SAPC  H12X 6084   7.015   4.370   2.972 -1.3530  0.4440 -0.7087
   70SAPC  H12Y 6085   7.027   4.487   3.119 -2.2716  0.2742 -0.9871
   70SAPC  C313 6086   6.831   4.409   3.089 -0.3226 -0.1695 -0.3921
   70SAPC  H13X 6087   6.807   4.517   3.073  0.1503  0.0869  0.5384
   70SAPC  H13Y 6088   6.820   4.408   3.200 -0.3341 -1.7415 -0.3898
   70SAPC  C314 6089   6.732   4.310   3.016  0.2688 -0.1924 -0.1005
   70SAPC  H14X 6090   6.629   4.324   3.054 -0.0085  1.2096 -1.2568
   70SAPC  H14Y 6091   6.751   4.203   3.037 -1.2925 -0.6910 -1.0190
   70SAPC  C315 6092   6.725   4.334   2.865 -0.0857 -0.8652 -0.7423
   70SAPC  H15X 6093   6.663   4.256   2.818 -2.5541  1.0945 -0.9253
   70SAPC  H15Y 6094   6.828   4.334   2.823  0.3752 -1.6560  0.3480
   70SAPC  C316 6095   6.659   4.469   2.841 -0.2890  0.2483  0.0749
   70SAPC  H16X 6096   6.714   4.552   2.890  0.1071 -0.4002  0.7417
   70SAPC  H16Y 6097   6.563   4.481   2.897 -1.0540 -0.2385 -1.0866
   70SAPC  C317 6098   6.636   4.503   2.702  0.4675 -0.0991 -0.3197
   70SAPC  H17X 6099   6.568   4.425   2.662  0.8081 -0.9328  0.6711
   70SAPC  H17Y 6100   6.727   4.490   2.640  0.7690  1.9008 -0.3463
   70SAPC  C318 6101   6.576   4.646   2.685 -0.5359  0.6384  0.2709
   70SAPC  H18X 6102   6.476   4.652   2.734 -0.2669 -2.0155  1.3289
   70SAPC  H18Y 6103   6.567   4.672   2.578  0.3256 -1.1308 -0.2652
   70SAPC  H18Z 6104   6.652   4.713   2.731 -1.7637  1.9496  0.4395
   71SAPC     N 6105   5.242   0.422   1.894 -0.0495  0.4424  0.5650
   71SAPC   C12 6106   5.342   0.384   2.004  0.6007 -0.5277  0.2676
   71SAPC  H12A 6107   5.352   0.277   1.991  0.0030 -0.3755 -1.7094
   71SAPC  H12B 6108   5.297   0.401   2.101 -0.7132 -1.2097 -0.1847
   71SAPC   C13 6109   5.196   0.558   1.913  0.4782 -0.9172  0.0408
   71SAPC  H13A 6110   5.133   0.587   1.831  0.1763 -2.3607 -0.2645
   71SAPC  H13B 6111   5.153   0.571   2.011 -1.3146 -0.1762 -0.7992
   71SAPC  H13C 6112   5.281   0.625   1.920  0.0788 -0.4992  1.1110
   71SAPC   C14 6113   5.307   0.406   1.757  0.3202  0.7603 -0.0282
   71SAPC  H14A 6114   5.249   0.438   1.671  1.8981  0.9407 -1.0726
   71SAPC  H14B 6115   5.404   0.453   1.762 -0.8260  3.1526  2.0912
   71SAPC  H14C 6116   5.336   0.303   1.744 -0.6617  0.6188 -1.2994
   71SAPC   C15 6117   5.118   0.331   1.903  0.0621 -0.3980  0.1336
   71SAPC  H15A 6118   5.145   0.240   1.852 -1.0202 -0.5259 -0.2373
   71SAPC  H15B 6119   5.077   0.318   2.002  0.9952  0.1446  0.6047
   71SAPC  H15C 6120   5.040   0.379   1.847 -0.8228 -1.4942  0.3972
   71SAPC   C11 6121   5.480   0.448   1.999  0.6079 -0.3654  0.4551
   71SAPC  H11A 6122   5.514   0.445   2.105 -1.5652  0.0356  1.2216
   71SAPC  H11B 6123   5.455   0.555   1.980 -0.0757 -0.3125  1.5411
   71SAPC     P 6124   5.682   0.468   1.851 -0.0284 -0.4025  0.1881
   71SAPC   O13 6125   5.813   0.399   1.878 -0.1512  0.1917  0.1332
   71SAPC   O14 6126   5.648   0.495   1.708 -0.3782  0.5412  0.0368
   71SAPC   O12 6127   5.562   0.379   1.905 -0.0957 -0.1316 -0.0148
   71SAPC   O11 6128   5.676   0.605   1.933  0.3781  0.2760  0.4182
   71SAPC    C1 6129   5.782   0.665   2.008 -0.2988  0.4407  0.7193
   71SAPC    HA 6130   5.880   0.622   1.978 -1.3931 -1.4023 -0.3899
   71SAPC    HB 6131   5.790   0.775   1.992  1.3503  0.6545  2.6386
   71SAPC    C2 6132   5.782   0.632   2.157 -0.1540 -0.0131  0.9503
   71SAPC    HS 6133   5.776   0.521   2.162  1.6004 -0.2356 -0.6027
   71SAPC   O21 6134   5.665   0.698   2.222 -0.0805 -0.0910  0.2653
   71SAPC   C21 6135   5.610   0.633   2.318 -0.5059  0.9482  1.0016
   71SAPC   O22 6136   5.645   0.525   2.363 -0.1743 -0.2472  0.0359
   71SAPC   C22 6137   5.489   0.715   2.355 -0.5255  0.2723 -0.7955
   71SAPC   H2R 6138   5.509   0.824   2.361 -2.1915  0.5735  0.3390
   71SAPC   H2S 6139   5.411   0.698   2.278 -1.4847  0.2994  0.1415
   71SAPC    C3 6140   5.919   0.675   2.220  0.3103  0.2244 -0.4915
   71SAPC    HX 6141   5.929   0.785   2.205 -0.3299  0.0233 -2.6018
   71SAPC    HY 6142   6.003   0.625   2.168 -0.0815 -0.0526 -0.8658
   71SAPC   O31 6143   5.926   0.646   2.363 -0.5646  0.0686 -0.4670
   71SAPC   C31 6144   5.970   0.523   2.396  0.0005  0.3451  0.2311
   71SAPC   O32 6145   6.032   0.449   2.319  0.2807  0.1591  0.3650
   71SAPC   C32 6146   5.917   0.487   2.526  0.2371  0.1927 -0.1504
   71SAPC   H2X 6147   5.846   0.403   2.513  0.0047  0.1200  1.4225
   71SAPC   H2Y 6148   5.856   0.568   2.571  0.1069  0.3065 -0.5279
   71SAPC   C23 6149   5.424   0.669   2.495  0.9258 -0.5709 -0.4782
   71SAPC   H3R 6150   5.502   0.706   2.565 -0.0277  0.0089  0.3044
   71SAPC   H3S 6151   5.418   0.558   2.496  0.0335 -0.5257 -0.2431
   71SAPC   C24 6152   5.287   0.740   2.525 -0.5993  0.0488  0.2516
   71SAPC   H4R 6153   5.228   0.712   2.435 -2.0353  0.4759  1.0301
   71SAPC   H4S 6154   5.307   0.849   2.528  0.7803 -0.2033  0.8971
   71SAPC   C25 6155   5.228   0.698   2.655 -0.5371 -0.3321 -0.2270
   71SAPC   H5R 6156   5.181   0.598   2.663  0.2331 -0.6174  1.2307
   71SAPC   C26 6157   5.228   0.782   2.758  0.9006 -0.0509  0.2156
   71SAPC   H6R 6158   5.182   0.741   2.849  0.7733 -2.4501 -0.8691
   71SAPC   C27 6159   5.298   0.920   2.763  0.9047  0.6265 -0.1839
   71SAPC   H7R 6160   5.379   0.917   2.687 -1.6598 -1.4466 -3.1019
   71SAPC   H7S 6161   5.334   0.932   2.867  0.3726  1.3500 -0.0736
   71SAPC   C28 6162   5.211   1.031   2.723  0.0145  0.0461 -0.0305
   71SAPC   H8R 6163   5.153   1.002   2.634 -0.4623 -1.2116  0.6617
   71SAPC   C29 6164   5.203   1.149   2.793 -0.1097  0.2898 -0.2833
   71SAPC   H9R 6165   5.124   1.224   2.781  0.3681  1.0213  1.0125
   71SAPC  C210 6166   5.281   1.200   2.914  0.1078  0.7939 -0.3131
   71SAPC  H10R 6167   5.325   1.300   2.893 -0.2618  0.6946 -1.7075
   71SAPC  H10S 6168   5.362   1.127   2.935 -1.0279 -1.1702 -2.2869
   71SAPC  C211 6169   5.198   1.203   3.049  0.2765  0.0159  0.0136
   71SAPC  H11R 6170   5.090   1.187   3.039  0.1577  1.8515 -2.2586
   71SAPC  C212 6171   5.254   1.236   3.165  0.2868 -0.8750 -0.2393
   71SAPC  H12R 6172   5.193   1.243   3.257  0.1396  0.7070 -0.4235
   71SAPC  C213 6173   5.394   1.273   3.191 -0.3175 -0.0908 -0.0729
   71SAPC  H13R 6174   5.409   1.378   3.160 -0.2405 -0.4077 -1.1425
   71SAPC  H13S 6175   5.455   1.207   3.125 -0.3448 -0.2480  0.0570
   71SAPC  C214 6176   5.447   1.261   3.331  0.5228  0.3185 -0.7856
   71SAPC  H14R 6177   5.520   1.180   3.346 -1.6323 -1.7209 -0.7095
   71SAPC  C215 6178   5.411   1.320   3.447  0.0199 -0.0897  0.2406
   71SAPC  H15R 6179   5.446   1.268   3.537  0.2500 -1.8232 -0.8059
   71SAPC  C216 6180   5.306   1.433   3.452 -0.3406 -0.9778 -0.4769
   71SAPC  H16R 6181   5.273   1.473   3.354  1.0482  3.1090  0.5543
   71SAPC  H16S 6182   5.356   1.526   3.486 -1.9385 -0.0295 -0.6209
   71SAPC  C217 6183   5.192   1.407   3.549  0.0012  0.5415 -0.8734
   71SAPC  H17R 6184   5.169   1.299   3.550  0.8791  0.3397 -0.2077
   71SAPC  H17S 6185   5.091   1.449   3.534 -0.7372 -0.7398  0.2724
   71SAPC  C218 6186   5.227   1.454   3.699 -0.9957 -0.5543 -0.2467
   71SAPC  H18R 6187   5.257   1.560   3.683 -0.9141 -0.4995  0.2609
   71SAPC  H18S 6188   5.314   1.411   3.753 -0.5865  0.3332 -0.1827
   71SAPC  C219 6189   5.110   1.458   3.795 -0.2767 -0.3857  0.9474
   71SAPC  H19R 6190   5.018   1.493   3.743  1.0854  2.2395  0.1500
   71SAPC  H19S 6191   5.141   1.524   3.878 -1.0445  1.0241  0.1523
   71SAPC  C220 6192   5.072   1.323   3.855  0.4048  0.1423 -0.1029
   71SAPC  H20R 6193   5.158   1.285   3.914  0.8066 -0.4956 -1.0750
   71SAPC  H20S 6194   5.052   1.249   3.775  2.1515 -0.5111  0.0286
   71SAPC  H20T 6195   4.984   1.337   3.922 -0.5155  0.7562 -1.3832
   71SAPC   C33 6196   6.027   0.419   2.617  0.4918 -0.0134 -0.8142
   71SAPC   H3X 6197   6.056   0.502   2.684  3.0999 -2.5958  1.5273
   71SAPC   H3Y 6198   6.110   0.379   2.556  1.3408  0.4565  0.0131
   71SAPC   C34 6199   5.968   0.299   2.702  0.1026 -0.6930 -0.0193
   71SAPC   H4X 6200   6.058   0.274   2.761  0.6664  1.1659 -0.0295
   71SAPC   H4Y 6201   5.954   0.210   2.637  0.8558 -1.0476  0.2966
   71SAPC   C35 6202   5.852   0.314   2.805 -0.0504  0.0846  0.5171
   71SAPC   H5X 6203   5.775   0.234   2.800 -1.0613  1.1123 -2.1230
   71SAPC   H5Y 6204   5.792   0.402   2.774 -2.2882 -2.7668 -4.4526
   71SAPC   C36 6205   5.917   0.318   2.937  0.3473  0.2864  0.6515
   71SAPC   H6X 6206   5.993   0.399   2.941 -0.6670  1.3231 -0.4642
   71SAPC   H6Y 6207   5.955   0.218   2.968  0.1595 -0.2549 -0.8002
   71SAPC   C37 6208   5.813   0.352   3.042  0.6188  0.3390  0.5252
   71SAPC   H7X 6209   5.736   0.272   3.047  1.5541 -0.6630 -0.4555
   71SAPC   H7Y 6210   5.760   0.442   3.005  0.6625 -0.6341 -2.1687
   71SAPC   C38 6211   5.872   0.363   3.185  0.2069  0.0930 -0.2803
   71SAPC   H8X 6212   5.957   0.435   3.184 -0.5632  1.1389  2.0023
   71SAPC   H8Y 6213   5.910   0.264   3.219 -0.1107 -0.0781 -0.4235
   71SAPC   C39 6214   5.764   0.409   3.285 -0.2232 -0.2137 -0.2366
   71SAPC   H9X 6215   5.680   0.336   3.281  0.1427 -0.5828 -2.1023
   71SAPC   H9Y 6216   5.735   0.514   3.263  1.9008  0.7817  1.3832
   71SAPC  C310 6217   5.806   0.395   3.428  0.2504 -0.2552 -0.3625
   71SAPC  H10X 6218   5.793   0.289   3.458  0.7981 -0.5546 -1.1435
   71SAPC  H10Y 6219   5.731   0.455   3.484  0.4148 -1.2253  0.9422
   71SAPC  C311 6220   5.942   0.454   3.454 -0.4690 -0.0710  0.0030
   71SAPC  H11X 6221   5.941   0.543   3.387  1.5517  0.8597  1.1226
   71SAPC  H11Y 6222   6.021   0.396   3.400 -0.4426  0.5917 -0.6878
   71SAPC  C312 6223   5.975   0.469   3.602 -0.5441 -0.4382 -0.5581
   71SAPC  H12X 6224   5.889   0.522   3.649 -1.3734 -0.0980 -2.3579
   71SAPC  H12Y 6225   6.072   0.520   3.622  0.0634 -2.2834  1.7330
   71SAPC  C313 6226   5.999   0.337   3.680 -0.2299  0.0397 -0.4875
   71SAPC  H13X 6227   6.083   0.282   3.633 -0.4182 -0.0578 -0.7139
   71SAPC  H13Y 6228   5.911   0.269   3.672  0.8419 -1.2072 -2.8455
   71SAPC  C314 6229   6.033   0.358   3.837  0.0150 -0.3444  0.4796
   71SAPC  H14X 6230   5.959   0.428   3.879 -1.1334  0.4121 -2.5209
   71SAPC  H14Y 6231   6.138   0.395   3.840  0.2701 -0.8564 -1.1037
   71SAPC  C315 6232   6.028   0.229   3.913 -0.0912 -0.1813 -0.1732
   71SAPC  H15X 6233   6.093   0.154   3.864 -0.8774 -1.1262  0.1940
   71SAPC  H15Y 6234   5.925   0.186   3.915  0.0306 -0.6049 -1.7719
   71SAPC  C316 6235   6.064   0.229   4.060  0.1753 -0.2999  0.0252
   71SAPC  H16X 6236   6.020   0.135   4.101  1.8205 -1.8085 -1.5011
   71SAPC  H16Y 6237   6.012   0.320   4.099 -1.4275 -2.6850  4.1432
   71SAPC  C317 6238   6.216   0.235   4.084  0.5653  0.4198 -0.0798
   71SAPC  H17X 6239   6.263   0.324   4.037  3.4222 -0.1630  1.4522
   71SAPC  H17Y 6240   6.264   0.146   4.038  0.0034  0.5067 -0.8538
   71SAPC  C318 6241   6.239   0.243   4.236  0.4863  0.4199  0.3146
   71SAPC  H18X 6242   6.180   0.158   4.276  0.2575 -1.6338 -3.9071
   71SAPC  H18Y 6243   6.214   0.345   4.274 -0.7436 -0.1462  1.0917
   71SAPC  H18Z 6244   6.348   0.228   4.253  1.0087  1.6026 -1.6840
   72SAPC     N 6245   5.269   6.847   1.618  0.3965  0.7294 -0.3167
   72SAPC   C12 6246   5.202   6.960   1.693  0.4749  0.1289 -0.4901
   72SAPC  H12A 6247   5.095   6.958   1.702  0.6161 -1.1555  1.9466
   72SAPC  H12B 6248   5.231   7.052   1.645  0.6227  0.0940 -0.4691
   72SAPC   C13 6249   5.412   6.883   1.587  0.5527 -0.5248  0.2981
   72SAPC  H13A 6250   5.454   6.818   1.512 -0.3865 -0.3188 -0.4225
   72SAPC  H13B 6251   5.416   6.984   1.548  3.1207 -0.2212  1.1262
   72SAPC  H13C 6252   5.470   6.878   1.679  0.2922 -2.7984  0.3939
   72SAPC   C14 6253   5.269   6.716   1.697  0.5809  0.3309  0.1963
   72SAPC  H14A 6254   5.321   6.737   1.790  3.4855 -1.7152 -0.8016
   72SAPC  H14B 6255   5.169   6.678   1.708  0.2178  0.9784 -0.7549
   72SAPC  H14C 6256   5.322   6.646   1.633 -0.7167 -0.3486 -0.1678
   72SAPC   C15 6257   5.200   6.823   1.489  0.0619 -0.2038  0.6021
   72SAPC  H15A 6258   5.225   6.730   1.439 -1.1202 -0.4729  0.4847
   72SAPC  H15B 6259   5.093   6.819   1.504  0.1035 -0.5080  0.8321
   72SAPC  H15C 6260   5.211   6.910   1.426 -2.2360 -0.0911  0.2653
   72SAPC   C11 6261   5.247   6.981   1.842 -0.5815 -0.7135  0.0400
   72SAPC  H11A 6262   5.215   6.891   1.898  2.0794 -1.3111  0.7354
   72SAPC  H11B 6263   5.195   7.071   1.882 -0.6972 -0.8815  0.2703
   72SAPC     P 6264   5.449   7.148   1.851  0.1592 -0.0795  0.0574
   72SAPC   O13 6265   5.595   7.128   1.835 -0.2662  0.6651  0.4003
   72SAPC   O14 6266   5.385   7.230   1.744 -0.2593 -0.1390  0.2043
   72SAPC   O12 6267   5.387   7.002   1.849 -0.3229 -0.6103 -0.3672
   72SAPC   O11 6268   5.421   7.210   1.990 -0.0157 -0.0681 -0.6848
   72SAPC    C1 6269   5.436   7.137   2.110  0.0352  0.1888  0.0968
   72SAPC    HA 6270   5.376   7.180   2.193  0.4168  0.8038  0.0568
   72SAPC    HB 6271   5.404   7.032   2.092  2.1778 -0.5543  0.3214
   72SAPC    C2 6272   5.581   7.131   2.163  0.3033  0.1209  0.7592
   72SAPC    HS 6273   5.656   7.093   2.090  0.8865  1.1057  0.8300
   72SAPC   O21 6274   5.592   7.075   2.295 -0.2651 -0.0716  0.7216
   72SAPC   C21 6275   5.606   6.946   2.303 -0.3501  0.0902 -0.2235
   72SAPC   O22 6276   5.609   6.869   2.208 -0.2948 -0.0002  0.0442
   72SAPC   C22 6277   5.661   6.922   2.441  0.0004 -0.1873 -0.7213
   72SAPC   H2R 6278   5.730   7.008   2.459 -1.1119  0.6720 -0.4981
   72SAPC   H2S 6279   5.581   6.940   2.516 -1.4506 -0.5498 -2.1510
   72SAPC    C3 6280   5.630   7.276   2.178 -0.2107 -1.4731 -0.3114
   72SAPC    HX 6281   5.606   7.331   2.085  0.8488 -0.1362  0.1681
   72SAPC    HY 6282   5.741   7.270   2.185 -0.3237 -1.9281  2.2052
   72SAPC   O31 6283   5.557   7.345   2.285 -0.2882  0.1383  0.0382
   72SAPC   C31 6284   5.623   7.354   2.404 -0.1532 -0.6285  0.7791
   72SAPC   O32 6285   5.739   7.319   2.420  0.3894 -0.6158  0.2911
   72SAPC   C32 6286   5.520   7.411   2.509 -0.1438 -0.7376 -0.6300
   72SAPC   H2X 6287   5.432   7.450   2.453  1.3724  1.8671 -1.3566
   72SAPC   H2Y 6288   5.566   7.502   2.552 -0.4986 -0.5842 -0.5764
   72SAPC   C23 6289   5.730   6.785   2.445 -0.1191  0.6194 -0.0281
   72SAPC   H3R 6290   5.800   6.772   2.360 -2.5154  0.5020 -2.0771
   72SAPC   H3S 6291   5.647   6.711   2.444  1.6572 -1.4864  0.1949
   72SAPC   C24 6292   5.816   6.758   2.574  1.0165 -0.1512  0.3224
   72SAPC   H4R 6293   5.874   6.667   2.548 -0.1347 -0.4620 -1.2810
   72SAPC   H4S 6294   5.758   6.742   2.668 -0.9360 -0.1387 -0.8236
   72SAPC   C25 6295   5.921   6.860   2.591  0.2021 -0.0593 -0.2437
   72SAPC   H5R 6296   5.981   6.879   2.501  2.8898 -2.8136  0.8063
   72SAPC   C26 6297   5.940   6.942   2.698 -0.4000 -0.2678 -0.3922
   72SAPC   H6R 6298   6.019   7.018   2.698  1.2671 -1.9361 -1.9429
   72SAPC   C27 6299   5.859   6.946   2.826 -0.2102 -0.8360 -0.2801
   72SAPC   H7R 6300   5.927   6.927   2.912 -2.0366 -1.8487  1.0098
   72SAPC   H7S 6301   5.786   6.863   2.834 -0.5314 -0.6354 -1.0754
   72SAPC   C28 6302   5.787   7.072   2.867 -0.0724  0.1586 -0.2364
   72SAPC   H8R 6303   5.822   7.153   2.802  0.9625  0.8875  1.1678
   72SAPC   C29 6304   5.687   7.082   2.963 -0.1420 -0.4580 -0.3643
   72SAPC   H9R 6305   5.654   7.186   2.977 -1.7309 -0.9291 -0.5149
   72SAPC  C210 6306   5.638   6.979   3.061 -0.6532 -0.2795  0.5331
   72SAPC  H10R 6307   5.626   6.883   3.007  0.0536  0.6632 -1.3977
   72SAPC  H10S 6308   5.534   7.012   3.084 -0.6824  0.2573 -0.3135
   72SAPC  C211 6309   5.719   6.946   3.182 -0.1511  0.0536 -0.2522
   72SAPC  H11R 6310   5.771   6.850   3.169  2.3852  1.5990 -2.9898
   72SAPC  C212 6311   5.725   7.021   3.297 -0.3980 -0.1515  0.4751
   72SAPC  H12R 6312   5.790   6.976   3.374 -1.2665 -1.2727  0.5788
   72SAPC  C213 6313   5.658   7.159   3.309  0.2480  0.9478  1.0518
   72SAPC  H13R 6314   5.614   7.193   3.213  1.2594 -1.5612 -0.3987
   72SAPC  H13S 6315   5.732   7.241   3.324  1.7501 -0.3716  1.1754
   72SAPC  C214 6316   5.543   7.173   3.408  0.4883  0.4057  0.2602
   72SAPC  H14R 6317   5.442   7.176   3.364 -0.0292 -2.2334  1.0682
   72SAPC  C215 6318   5.547   7.190   3.539  0.7881  0.1267  0.0965
   72SAPC  H15R 6319   5.448   7.192   3.587  0.0257  1.1624 -1.4375
   72SAPC  C216 6320   5.676   7.187   3.618 -0.5938 -0.3836  0.0157
   72SAPC  H16R 6321   5.671   7.262   3.701  0.6017  0.6082 -0.7722
   72SAPC  H16S 6322   5.761   7.214   3.551  0.6088  1.2655  2.0486
   72SAPC  C217 6323   5.699   7.049   3.683 -0.9956 -0.0451 -0.1967
   72SAPC  H17R 6324   5.801   7.058   3.726 -0.7637 -2.1611 -0.2028
   72SAPC  H17S 6325   5.711   6.972   3.604  1.0963  1.0901 -1.0479
   72SAPC  C218 6326   5.594   7.010   3.787 -0.1322  0.6673 -0.3813
   72SAPC  H18R 6327   5.498   6.988   3.736 -0.2903 -2.1634  0.9273
   72SAPC  H18S 6328   5.577   7.100   3.850 -0.5305  0.7628 -0.6260
   72SAPC  C219 6329   5.628   6.885   3.872 -0.2034 -0.4009  0.6649
   72SAPC  H19R 6330   5.655   6.801   3.804  1.1443  1.1671 -0.8325
   72SAPC  H19S 6331   5.540   6.860   3.935  0.6954 -2.2979  1.2217
   72SAPC  C220 6332   5.747   6.922   3.963  0.5035 -0.4197  0.1264
   72SAPC  H20R 6333   5.713   7.011   4.020  2.1219  0.7380 -0.6390
   72SAPC  H20S 6334   5.840   6.940   3.905  0.2936 -1.7834 -0.6840
   72SAPC  H20T 6335   5.766   6.840   4.035 -0.4481  0.2823  1.2177
   72SAPC   C33 6336   5.483   7.307   2.624  0.1082 -0.3684 -0.1176
   72SAPC   H3X 6337   5.574   7.262   2.668 -0.3598  1.6882  3.3505
   72SAPC   H3Y 6338   5.422   7.220   2.593  1.3166 -0.8747 -1.1313
   72SAPC   C34 6339   5.400   7.372   2.738 -0.6415 -0.1958  0.1466
   72SAPC   H4X 6340   5.310   7.412   2.687 -0.7720 -1.6880 -0.8633
   72SAPC   H4Y 6341   5.467   7.450   2.781  1.6579 -1.3637 -1.1041
   72SAPC   C35 6342   5.359   7.270   2.844 -0.0222 -0.3952  0.8078
   72SAPC   H5X 6343   5.444   7.199   2.846  0.4296  0.1094  0.1881
   72SAPC   H5Y 6344   5.278   7.207   2.801  0.2372  0.1985 -0.6428
   72SAPC   C36 6345   5.328   7.345   2.975 -0.1562 -0.1540 -0.7703
   72SAPC   H6X 6346   5.249   7.420   2.952  0.1713  0.0426 -1.2687
   72SAPC   H6Y 6347   5.415   7.390   3.027  0.1089 -4.1462  2.7792
   72SAPC   C37 6348   5.262   7.247   3.077 -0.5054 -0.8982 -0.7666
   72SAPC   H7X 6349   5.336   7.187   3.133 -0.7434  0.1144  0.6944
   72SAPC   H7Y 6350   5.212   7.171   3.013  0.7617  0.2313 -3.2526
   72SAPC   C38 6351   5.181   7.324   3.190  0.0610  0.2339 -0.6066
   72SAPC   H8X 6352   5.093   7.361   3.133 -0.0503 -0.7220 -1.0661
   72SAPC   H8Y 6353   5.245   7.406   3.230 -0.7974  0.0717  1.2274
   72SAPC   C39 6354   5.136   7.227   3.297  0.0367 -1.1838 -0.9617
   72SAPC   H9X 6355   5.218   7.166   3.339  0.1140  0.3196  1.2873
   72SAPC   H9Y 6356   5.068   7.160   3.241 -0.8958 -0.5992 -0.5640
   72SAPC  C310 6357   5.043   7.295   3.402  0.1127  0.2442  0.1310
   72SAPC  H10X 6358   4.964   7.346   3.343  0.0733  0.3429  0.2687
   72SAPC  H10Y 6359   5.102   7.374   3.452 -2.0059  2.4123 -0.5793
   72SAPC  C311 6360   4.973   7.203   3.501  0.1396  0.2422  1.1592
   72SAPC  H11X 6361   5.036   7.176   3.587  1.1667  0.3099  0.4475
   72SAPC  H11Y 6362   4.931   7.111   3.454 -3.1483  1.6798  0.9924
   72SAPC  C312 6363   4.850   7.262   3.582  0.1965 -0.2494 -0.0899
   72SAPC  H12X 6364   4.871   7.366   3.613 -2.5955  0.1711  0.6790
   72SAPC  H12Y 6365   4.834   7.205   3.676  0.6912  0.9381  0.7381
   72SAPC  C313 6366   4.716   7.266   3.503 -0.3261  0.2810  0.2744
   72SAPC  H13X 6367   4.687   7.159   3.499  1.5919 -0.5814  4.1848
   72SAPC  H13Y 6368   4.732   7.310   3.403  2.8007 -2.2145 -0.5179
   72SAPC  C314 6369   4.618   7.359   3.583 -0.0906  0.1816  0.9274
   72SAPC  H14X 6370   4.589   7.303   3.675  1.3704 -1.2777  0.5442
   72SAPC  H14Y 6371   4.523   7.359   3.525 -0.2625 -2.0868  1.1075
   72SAPC  C315 6372   4.663   7.506   3.602  0.1133 -0.1513 -0.3731
   72SAPC  H15X 6373   4.682   7.559   3.506 -1.7894  2.0127  0.3443
   72SAPC  H15Y 6374   4.746   7.503   3.676 -1.1242  2.9914  1.3476
   72SAPC  C316 6375   4.565   7.597   3.689  0.0459  0.2518  0.0119
   72SAPC  H16X 6376   4.480   7.631   3.627  1.6127  2.5713 -1.0040
   72SAPC  H16Y 6377   4.615   7.693   3.715 -1.4498  1.3669 -1.0680
   72SAPC  C317 6378   4.514   7.520   3.810  0.3238  0.1732 -0.2172
   72SAPC  H17X 6379   4.590   7.456   3.859 -1.7106 -1.7656  0.5891
   72SAPC  H17Y 6380   4.428   7.455   3.780 -0.8142  1.4284  0.1986
   72SAPC  C318 6381   4.456   7.602   3.925 -0.0922 -0.2143 -0.3383
   72SAPC  H18X 6382   4.388   7.548   3.994  1.5097 -0.9392  0.7281
   72SAPC  H18Y 6383   4.402   7.693   3.893  0.4642  0.6745  1.1483
   72SAPC  H18Z 6384   4.538   7.645   3.987 -0.8783  1.1149 -0.1875
   73SLPC     N 6385   4.018   3.587   6.063  0.3253 -0.1451 -0.0237
   73SLPC   C13 6386   4.054   3.489   6.172 -0.5108  0.1094  0.3159
   73SLPC  H13A 6387   4.031   3.392   6.131  2.2022 -0.1952 -0.6969
   73SLPC  H13B 6388   4.160   3.491   6.193 -0.4448 -2.8601  0.7213
   73SLPC  H13C 6389   3.999   3.508   6.263  0.3574  1.3528  0.6142
   73SLPC   C14 6390   4.022   3.725   6.118  0.4390  0.5504 -0.9188
   73SLPC  H14A 6391   3.967   3.742   6.209 -0.1030  3.7697 -1.7082
   73SLPC  H14B 6392   4.120   3.757   6.151 -0.0138  0.0661  0.9794
   73SLPC  H14C 6393   3.983   3.796   6.046 -0.0298  3.1616  1.7395
   73SLPC   C15 6394   3.873   3.559   6.023 -0.0259  0.3153 -0.1323
   73SLPC  H15A 6395   3.855   3.453   6.007 -2.4184  0.6914 -0.2750
   73SLPC  H15B 6396   3.811   3.579   6.108  1.3445 -2.2211  1.5879
   73SLPC  H15C 6397   3.846   3.622   5.939 -0.4749  0.8800  0.4377
   73SLPC   C12 6398   4.113   3.587   5.943  0.7029  0.3082 -0.7302
   73SLPC  H12A 6399   4.076   3.659   5.872  2.5424  0.6315 -1.4093
   73SLPC  H12B 6400   4.108   3.489   5.898  0.1171 -0.2304  0.4692
   73SLPC   C11 6401   4.262   3.628   5.960  0.2899  0.1614  0.2286
   73SLPC  H11A 6402   4.303   3.625   5.857 -3.0938 -1.1835 -1.2369
   73SLPC  H11B 6403   4.315   3.542   6.007 -0.2354 -1.0495 -1.2882
   73SLPC     P 6404   4.275   3.890   5.948 -0.5277  0.3224 -0.3293
   73SLPC   O13 6405   4.177   3.874   5.836  0.4197  0.5577  0.5321
   73SLPC   O14 6406   4.247   4.005   6.043  0.5615  0.8898  0.2152
   73SLPC   O12 6407   4.292   3.751   6.022 -0.2983  0.4191  0.0479
   73SLPC   O11 6408   4.415   3.926   5.885 -0.7175 -0.0607  0.1776
   73SLPC    C1 6409   4.459   3.872   5.760  0.0451 -0.2611  0.2310
   73SLPC    HA 6410   4.448   3.762   5.749 -0.5172 -0.1500 -0.3824
   73SLPC    HB 6411   4.400   3.916   5.676 -0.5351  1.8986  1.6933
   73SLPC    C2 6412   4.606   3.910   5.731 -0.1573 -0.5963 -0.1484
   73SLPC    HS 6413   4.658   3.867   5.819 -2.1511 -1.6773  0.5658
   73SLPC   O21 6414   4.627   4.045   5.732  0.1412 -0.3609  0.0175
   73SLPC   C21 6415   4.749   4.088   5.750  0.7603 -1.0052 -0.1059
   73SLPC   O22 6416   4.839   4.018   5.786  0.0210 -0.1346  0.2647
   73SLPC   C22 6417   4.749   4.244   5.731  0.3606  0.7485 -0.2029
   73SLPC   H2R 6418   4.681   4.277   5.813  1.8418  0.2380  1.2871
   73SLPC   H2S 6419   4.853   4.275   5.753 -0.0880  0.3504  2.9640
   73SLPC    C3 6420   4.642   3.843   5.595  0.1489 -0.0666  0.0517
   73SLPC    HX 6421   4.619   3.735   5.606  3.8838 -1.0284 -0.3881
   73SLPC    HY 6422   4.747   3.847   5.562 -0.2483 -1.1535 -1.4425
   73SLPC   O31 6423   4.552   3.884   5.489  0.0211 -0.1186 -0.3033
   73SLPC   C31 6424   4.603   3.894   5.363 -0.0668  0.5622 -0.6640
   73SLPC   O32 6425   4.718   3.878   5.332 -0.4462  0.5677  1.0652
   73SLPC   C32 6426   4.492   3.948   5.273  0.5623 -0.3710 -0.0700
   73SLPC   H2X 6427   4.437   4.026   5.329 -3.6346 -1.6366 -2.0264
   73SLPC   H2Y 6428   4.419   3.865   5.260 -1.8867  1.3269  1.8745
   73SLPC   C23 6429   4.727   4.299   5.589  0.1136  0.6630  0.6851
   73SLPC   H3R 6430   4.720   4.408   5.608  1.3521  0.7908  0.5413
   73SLPC   H3S 6431   4.637   4.261   5.535  1.3057 -1.8344  0.2863
   73SLPC   C24 6432   4.840   4.255   5.494  0.3334 -0.3357  0.1440
   73SLPC   H4R 6433   4.832   4.147   5.469 -2.5586 -0.4760  1.2506
   73SLPC   H4S 6434   4.938   4.279   5.541 -1.1267  1.9250  2.2874
   73SLPC   C25 6435   4.828   4.334   5.365 -0.1913  0.4466  0.4129
   73SLPC   H5R 6436   4.831   4.444   5.383 -0.1434  0.1362  2.5825
   73SLPC   H5S 6437   4.726   4.329   5.322 -0.2106  2.4896  0.1243
   73SLPC   C26 6438   4.928   4.281   5.255 -0.4070  0.0389  0.4076
   73SLPC   H6R 6439   4.896   4.181   5.220  2.2693 -1.6651  2.3994
   73SLPC   H6S 6440   5.023   4.249   5.302 -0.0160 -1.9461 -1.5846
   73SLPC   C27 6441   4.950   4.391   5.151 -0.5830 -0.0355 -0.2994
   73SLPC   H7R 6442   5.029   4.345   5.088  1.3512 -1.6712  3.0449
   73SLPC   H7S 6443   4.999   4.482   5.192  0.1188  0.0490 -1.3145
   73SLPC   C28 6444   4.823   4.439   5.082  0.4241 -0.0007 -0.0236
   73SLPC   H8R 6445   4.854   4.521   5.013  0.6278  0.4813  0.6220
   73SLPC   H8S 6446   4.761   4.492   5.157  0.7116 -0.1033  0.2900
   73SLPC   C29 6447   4.752   4.330   5.006 -0.0809 -0.2263 -0.1356
   73SLPC   H9R 6448   4.694   4.258   5.066  0.2716 -0.6634 -0.3079
   73SLPC  C210 6449   4.762   4.317   4.873 -0.5864 -0.3472 -0.3785
   73SLPC  H10R 6450   4.703   4.239   4.824 -0.5551 -0.0395 -0.9158
   73SLPC  C211 6451   4.821   4.410   4.771  0.0044  0.0341 -0.2929
   73SLPC  H11R 6452   4.893   4.370   4.696  0.1627 -0.8077  0.2974
   73SLPC  H11S 6453   4.881   4.480   4.833 -1.4012 -0.1183  1.2971
   73SLPC  C212 6454   4.706   4.490   4.714  0.2865 -1.0023  0.4969
   73SLPC  H12R 6455   4.661   4.561   4.785  0.7609 -0.7051  0.5067
   73SLPC  C213 6456   4.659   4.489   4.583  0.6372 -0.5290 -0.7867
   73SLPC  H13R 6457   4.584   4.558   4.543 -0.0325 -0.8369 -0.0981
   73SLPC  C214 6458   4.721   4.413   4.473 -0.2903  1.1309  0.4719
   73SLPC  H14R 6459   4.636   4.374   4.412 -0.9437  0.0586  1.9986
   73SLPC  H14S 6460   4.788   4.329   4.502 -0.2264  0.6838 -0.8819
   73SLPC  C215 6461   4.810   4.506   4.390  0.1748 -0.5322  0.0666
   73SLPC  H15R 6462   4.737   4.551   4.320 -0.9716 -0.3883  1.3011
   73SLPC  H15S 6463   4.872   4.437   4.329 -0.3940 -0.7865 -0.2306
   73SLPC  C216 6464   4.890   4.619   4.460  0.2285  0.8252 -0.5074
   73SLPC  H16R 6465   4.960   4.579   4.536 -0.5425 -0.1860 -0.3110
   73SLPC  H16S 6466   4.815   4.691   4.501 -1.5747 -0.1560 -1.9075
   73SLPC  C217 6467   4.977   4.706   4.362 -0.2031 -0.5682 -0.8993
   73SLPC  H17R 6468   4.909   4.768   4.299  0.2709 -0.8293 -1.6826
   73SLPC  H17S 6469   5.039   4.642   4.295 -0.2986 -2.1254  0.4404
   73SLPC  C218 6470   5.067   4.809   4.439 -0.7091 -0.7523  0.3495
   73SLPC  H18R 6471   4.997   4.858   4.510 -0.4729  0.6654 -0.3433
   73SLPC  H18S 6472   5.103   4.886   4.368 -1.2078 -0.3067  0.5752
   73SLPC  H18T 6473   5.154   4.757   4.486  2.0667  0.9611 -2.4478
   73SLPC   C33 6474   4.527   3.996   5.132  0.3354 -0.0010  0.2321
   73SLPC   H3X 6475   4.594   3.920   5.085 -0.8228 -2.0172  1.6943
   73SLPC   H3Y 6476   4.587   4.089   5.139 -0.9897  0.9036 -0.0358
   73SLPC   C34 6477   4.400   4.024   5.046 -0.2017 -0.7111  0.1172
   73SLPC   H4X 6478   4.325   4.085   5.101 -2.9207 -2.8340 -1.0400
   73SLPC   H4Y 6479   4.362   3.923   5.019  0.6381 -1.1074  0.3863
   73SLPC   C35 6480   4.441   4.096   4.910  0.3472 -0.8834 -0.4917
   73SLPC   H5X 6481   4.517   4.030   4.862  0.4432 -1.2521  0.1507
   73SLPC   H5Y 6482   4.475   4.196   4.943  1.8659 -1.2943 -0.7176
   73SLPC   C36 6483   4.318   4.101   4.817  0.4353  0.8623  0.0930
   73SLPC   H6X 6484   4.233   4.156   4.861 -0.0651  0.5254 -0.4472
   73SLPC   H6Y 6485   4.285   3.996   4.802  2.1045  0.3941 -0.6363
   73SLPC   C37 6486   4.343   4.165   4.676 -0.1173  0.0662  0.1265
   73SLPC   H7X 6487   4.411   4.106   4.611  1.0381  0.8416  0.5986
   73SLPC   H7Y 6488   4.388   4.265   4.694  1.9417 -0.8181  0.1408
   73SLPC   C38 6489   4.213   4.179   4.593 -0.4671 -0.9531  0.4334
   73SLPC   H8X 6490   4.141   4.241   4.651  0.3590 -0.4676  0.9631
   73SLPC   H8Y 6491   4.168   4.079   4.572 -0.0767 -1.1364  0.4758
   73SLPC   C39 6492   4.243   4.245   4.459  0.5696  0.1495 -0.6465
   73SLPC   H9X 6493   4.296   4.177   4.389  0.6752 -0.4022 -0.0466
   73SLPC   H9Y 6494   4.314   4.329   4.473 -0.7013  1.1568 -0.0292
   73SLPC  C310 6495   4.117   4.286   4.389 -0.0839  0.4718  0.6171
   73SLPC  H10X 6496   4.036   4.338   4.446 -2.4796 -2.3925  0.0962
   73SLPC  H10Y 6497   4.056   4.195   4.367  0.8940 -0.5786  2.0350
   73SLPC  C311 6498   4.147   4.369   4.264 -0.2112 -0.3482  0.7686
   73SLPC  H11X 6499   4.189   4.470   4.281 -0.0625 -0.5631  1.7796
   73SLPC  H11Y 6500   4.049   4.396   4.219  0.4792 -0.4777 -0.8748
   73SLPC  C312 6501   4.231   4.295   4.157  0.5334 -0.0694 -0.0122
   73SLPC  H12X 6502   4.219   4.186   4.170  0.6346 -0.2349 -1.1809
   73SLPC  H12Y 6503   4.340   4.318   4.166  0.1265  2.3562 -0.4155
   73SLPC  C313 6504   4.199   4.336   4.014  0.3082  0.0732  0.2647
   73SLPC  H13X 6505   4.286   4.300   3.955  2.0544 -0.5252  3.0656
   73SLPC  H13Y 6506   4.197   4.447   4.015 -1.3452  0.0828  2.6131
   73SLPC  C314 6507   4.067   4.283   3.967 -0.1842 -0.0501  0.8999
   73SLPC  H14X 6508   3.976   4.324   4.017 -1.8297 -1.4865 -0.7402
   73SLPC  H14Y 6509   4.063   4.176   3.996 -2.4558 -0.1626  0.3563
   73SLPC  C315 6510   4.041   4.271   3.811 -0.7075  0.6476 -0.6291
   73SLPC  H15X 6511   4.126   4.230   3.752 -3.1224 -1.1264 -3.1262
   73SLPC  H15Y 6512   4.025   4.375   3.775  0.3594 -0.3550 -4.4843
   73SLPC  C316 6513   3.920   4.179   3.788  0.0598  0.2975  0.0792
   73SLPC  H16X 6514   3.829   4.235   3.818 -0.5992 -0.1381 -1.0452
   73SLPC  H16Y 6515   3.925   4.088   3.851 -1.4172 -0.4002 -0.7600
   73SLPC  C317 6516   3.912   4.144   3.636 -0.4437 -0.6205 -0.1633
   73SLPC  H17X 6517   3.841   4.063   3.611 -0.1865 -0.3957 -1.7852
   73SLPC  H17Y 6518   4.008   4.114   3.589 -0.3556 -1.6780  0.6474
   73SLPC  C318 6519   3.851   4.262   3.557  0.1742  0.5648  0.0980
   73SLPC  H18X 6520   3.898   4.359   3.584  1.2303 -0.1777  0.9965
   73SLPC  H18Y 6521   3.745   4.262   3.591  0.0429  0.3475 -0.3098
   73SLPC  H18Z 6522   3.857   4.239   3.449 -0.1093 -0.4862  0.2905
   74SLPC     N 6523   2.649   3.789   6.119  0.1801 -0.1425 -0.0590
   74SLPC   C13 6524   2.787   3.838   6.119 -0.0618 -0.5891  0.3698
   74SLPC  H13A 6525   2.850   3.753   6.140 -0.2327 -1.5756 -2.5906
   74SLPC  H13B 6526   2.828   3.866   6.023  0.4413  0.1419  0.7895
   74SLPC  H13C 6527   2.818   3.924   6.177  3.2266  1.0326 -3.3363
   74SLPC   C14 6528   2.554   3.905   6.107  0.5473 -0.3414 -0.1834
   74SLPC  H14A 6529   2.455   3.865   6.123  0.9626 -0.6270  1.9570
   74SLPC  H14B 6530   2.580   3.986   6.174  1.4189 -0.9556  0.2306
   74SLPC  H14C 6531   2.555   3.941   6.005  2.0439  1.8046  0.5322
   74SLPC   C15 6532   2.641   3.718   6.253  0.5788 -0.1631  0.7306
   74SLPC  H15A 6533   2.708   3.633   6.258 -0.6458 -1.2938 -0.7108
   74SLPC  H15B 6534   2.662   3.793   6.327  3.2195  1.3503 -1.3722
   74SLPC  H15C 6535   2.540   3.683   6.271 -0.5778  1.4444 -2.1031
   74SLPC   C12 6536   2.630   3.692   6.001 -0.1048  0.0082 -0.9276
   74SLPC  H12A 6537   2.530   3.652   6.003 -0.1990  0.2544 -0.7117
   74SLPC  H12B 6538   2.708   3.617   6.005  0.6167  0.6975  4.0970
   74SLPC   C11 6539   2.636   3.760   5.867 -0.1575 -0.2681  0.7801
   74SLPC  H11A 6540   2.679   3.695   5.787 -0.4004 -0.3531  0.7191
   74SLPC  H11B 6541   2.706   3.847   5.865  1.9584 -1.8959 -0.5226
   74SLPC     P 6542   2.385   3.716   5.795 -0.2004  0.2731 -0.0749
   74SLPC   O13 6543   2.411   3.578   5.847  0.1432  0.1742 -0.6338
   74SLPC   O14 6544   2.270   3.796   5.845  0.0085 -0.5280 -0.6509
   74SLPC   O12 6545   2.509   3.808   5.831 -0.4161 -0.2682 -0.4363
   74SLPC   O11 6546   2.381   3.711   5.630 -0.3361 -0.2825  0.4945
   74SLPC    C1 6547   2.499   3.745   5.544  0.2320 -0.6510 -0.4700
   74SLPC    HA 6548   2.596   3.712   5.587  1.4543  2.6749 -0.3302
   74SLPC    HB 6549   2.479   3.705   5.442  2.0701  2.4638 -2.2242
   74SLPC    C2 6550   2.518   3.898   5.518 -0.9350  0.1937  0.1201
   74SLPC    HS 6551   2.576   3.937   5.604 -1.2857 -3.1086  2.0418
   74SLPC   O21 6552   2.396   3.964   5.496  0.1872  0.0053 -0.0590
   74SLPC   C21 6553   2.376   4.085   5.536 -0.0074  0.3879 -0.1972
   74SLPC   O22 6554   2.454   4.148   5.612 -0.6689  0.3766  0.6925
   74SLPC   C22 6555   2.248   4.129   5.472  0.8111 -0.4226 -0.1691
   74SLPC   H2R 6556   2.255   4.118   5.362  1.9177 -0.6527 -0.0845
   74SLPC   H2S 6557   2.171   4.067   5.521  2.8162 -1.1059  2.3033
   74SLPC    C3 6558   2.610   3.925   5.398 -0.5798  0.0787 -0.0411
   74SLPC    HX 6559   2.716   3.901   5.423 -0.8460  0.2873  1.3720
   74SLPC    HY 6560   2.608   4.034   5.377 -1.3494  0.1673  0.4790
   74SLPC   O31 6561   2.569   3.855   5.284  0.8617  0.5741  0.2596
   74SLPC   C31 6562   2.494   3.908   5.194  0.5849  0.4860 -0.0600
   74SLPC   O32 6563   2.445   4.021   5.200 -0.4595  0.2702  0.2575
   74SLPC   C32 6564   2.485   3.811   5.074 -0.9842  0.8569 -0.3632
   74SLPC   H2X 6565   2.500   3.712   5.123  0.2554  1.3676  0.3330
   74SLPC   H2Y 6566   2.569   3.825   5.002 -2.3310  3.2915 -1.5555
   74SLPC   C23 6567   2.218   4.285   5.479 -0.1432 -0.0992 -0.8843
   74SLPC   H3R 6568   2.255   4.323   5.577  2.9484 -0.7026 -1.6885
   74SLPC   H3S 6569   2.107   4.290   5.475 -0.1661 -1.2435 -1.9328
   74SLPC   C24 6570   2.285   4.376   5.374 -0.3852  0.5524  0.0397
   74SLPC   H4R 6571   2.284   4.321   5.277 -0.0557  1.0805 -0.2625
   74SLPC   H4S 6572   2.394   4.389   5.390 -0.1993 -0.0726 -0.6390
   74SLPC   C25 6573   2.208   4.504   5.360 -0.5280 -0.0158  0.8242
   74SLPC   H5R 6574   2.228   4.576   5.442 -1.2003  0.1565  0.8464
   74SLPC   H5S 6575   2.098   4.485   5.354 -0.4247 -1.2703  2.2235
   74SLPC   C26 6576   2.253   4.577   5.227 -0.0809 -0.0858 -0.0775
   74SLPC   H6R 6577   2.299   4.500   5.162  1.3652  1.7994 -1.3745
   74SLPC   H6S 6578   2.332   4.656   5.234 -0.0247 -0.0501 -1.0083
   74SLPC   C27 6579   2.127   4.637   5.158 -0.4868 -0.3049 -0.0471
   74SLPC   H7R 6580   2.076   4.714   5.220 -2.9865  0.6875 -3.0891
   74SLPC   H7S 6581   2.058   4.551   5.144  1.3627 -2.2227  1.8531
   74SLPC   C28 6582   2.172   4.703   5.026 -0.3194 -0.8580 -0.1740
   74SLPC   H8R 6583   2.272   4.745   5.052 -0.5039  0.8239 -1.9375
   74SLPC   H8S 6584   2.120   4.800   5.007  2.4604  1.0442  1.2676
   74SLPC   C29 6585   2.191   4.610   4.915  0.1541  0.3375  0.5077
   74SLPC   H9R 6586   2.239   4.516   4.947 -2.1547 -1.5677 -1.2181
   74SLPC  C210 6587   2.147   4.621   4.786  0.0613 -0.0937 -0.4387
   74SLPC  H10R 6588   2.155   4.535   4.718  0.7504 -0.9094  0.6407
   74SLPC  C211 6589   2.064   4.737   4.730 -0.2131  0.5173  0.8043
   74SLPC  H11R 6590   2.022   4.808   4.804 -3.0538 -0.3906  0.1646
   74SLPC  H11S 6591   1.974   4.703   4.675  0.5559  1.2712 -1.0004
   74SLPC  C212 6592   2.154   4.800   4.628 -0.3272  0.4153 -0.2092
   74SLPC  H12R 6593   2.242   4.844   4.677 -1.6865  1.0806  1.7762
   74SLPC  C213 6594   2.145   4.791   4.495  0.4862 -0.7622 -0.1804
   74SLPC  H13R 6595   2.223   4.840   4.436 -1.5454  0.6877 -1.7965
   74SLPC  C214 6596   2.039   4.721   4.415 -0.7024  0.3241 -0.0156
   74SLPC  H14R 6597   1.980   4.802   4.366  2.0969  2.1500 -0.6338
   74SLPC  H14S 6598   1.975   4.660   4.482  0.2693  0.6574  1.2482
   74SLPC  C215 6599   2.080   4.630   4.294  0.3604  0.3554 -0.0473
   74SLPC  H15R 6600   2.151   4.688   4.230  0.6208  1.3697  1.1341
   74SLPC  H15S 6601   1.985   4.599   4.246 -1.3482  1.2376  2.5686
   74SLPC  C216 6602   2.160   4.508   4.339  0.4726 -0.1348 -0.1998
   74SLPC  H16R 6603   2.233   4.541   4.416  0.7792 -0.6289 -0.2781
   74SLPC  H16S 6604   2.207   4.455   4.254  0.0026 -1.4420  0.3192
   74SLPC  C217 6605   2.063   4.408   4.407 -0.3964  0.8969  0.7303
   74SLPC  H17R 6606   1.975   4.380   4.345 -0.7031  3.1005  0.0629
   74SLPC  H17S 6607   2.019   4.450   4.500 -1.7224 -0.5994  0.8178
   74SLPC  C218 6608   2.138   4.278   4.446 -0.1901 -0.2329  0.7649
   74SLPC  H18R 6609   2.196   4.239   4.360 -0.3495  0.1957  0.4590
   74SLPC  H18S 6610   2.064   4.204   4.481 -1.2191  0.0410 -0.7567
   74SLPC  H18T 6611   2.210   4.304   4.527  0.4614  1.3153 -0.2561
   74SLPC   C33 6612   2.356   3.817   4.998  0.0944 -0.3178 -0.4413
   74SLPC   H3X 6613   2.345   3.923   4.966  1.5651 -0.0947 -0.2696
   74SLPC   H3Y 6614   2.268   3.797   5.064 -0.6565  0.8588 -1.0443
   74SLPC   C34 6615   2.352   3.739   4.871 -0.0103 -0.0507  0.9220
   74SLPC   H4X 6616   2.377   3.632   4.885 -0.5319 -0.4806 -1.1735
   74SLPC   H4Y 6617   2.440   3.770   4.810 -2.1550 -2.1975 -3.7664
   74SLPC   C35 6618   2.225   3.748   4.790  0.0076  0.6743  0.0599
   74SLPC   H5X 6619   2.144   3.751   4.866  2.8178  1.0668  3.2615
   74SLPC   H5Y 6620   2.226   3.655   4.729 -0.4470 -0.4963  1.7615
   74SLPC   C36 6621   2.221   3.857   4.689  0.0634 -0.3951  0.1273
   74SLPC   H6X 6622   2.220   3.954   4.744 -0.2033 -0.6995  0.6663
   74SLPC   H6Y 6623   2.121   3.854   4.640 -0.2375 -0.7415  0.7559
   74SLPC   C37 6624   2.317   3.853   4.568  0.7302  0.3951  0.6051
   74SLPC   H7X 6625   2.308   3.758   4.511  0.0282  1.1779 -0.6450
   74SLPC   H7Y 6626   2.424   3.853   4.599  1.2203  0.9705 -0.9885
   74SLPC   C38 6627   2.302   3.971   4.465  0.7497  0.3817 -0.4264
   74SLPC   H8X 6628   2.320   4.068   4.516 -1.9646  0.3625  0.7621
   74SLPC   H8Y 6629   2.197   3.977   4.427  0.7844  1.2784 -0.3983
   74SLPC   C39 6630   2.399   3.958   4.347  0.2525  0.0348  0.9635
   74SLPC   H9X 6631   2.393   3.859   4.297  1.5913  1.0089 -1.2845
   74SLPC   H9Y 6632   2.498   3.962   4.397  0.6103 -0.4471  0.3175
   74SLPC  C310 6633   2.368   4.061   4.237 -0.1349  0.7855 -0.6206
   74SLPC  H10X 6634   2.455   4.071   4.168  1.8409  1.4953  1.8027
   74SLPC  H10Y 6635   2.371   4.162   4.282  2.1522 -0.0914  1.4448
   74SLPC  C311 6636   2.235   4.040   4.156  0.7782 -0.2736 -0.0538
   74SLPC  H11X 6637   2.146   4.061   4.220  0.6067  2.2663 -1.0408
   74SLPC  H11Y 6638   2.225   3.938   4.111 -2.1366  0.0540 -0.3409
   74SLPC  C312 6639   2.229   4.144   4.042 -0.9553 -0.4891 -0.1797
   74SLPC  H12X 6640   2.235   4.252   4.071 -0.2966 -0.6064  0.1537
   74SLPC  H12Y 6641   2.128   4.132   3.999 -1.3316  0.6530  0.3197
   74SLPC  C313 6642   2.331   4.118   3.929 -0.5347 -0.3553 -0.8149
   74SLPC  H13X 6643   2.348   4.008   3.919 -1.1471 -0.4636 -0.7087
   74SLPC  H13Y 6644   2.423   4.163   3.971 -0.7231 -1.1629  0.5147
   74SLPC  C314 6645   2.284   4.184   3.789  0.3746  0.4908  0.2091
   74SLPC  H14X 6646   2.295   4.293   3.803  1.1317  0.2717  1.4925
   74SLPC  H14Y 6647   2.177   4.170   3.766  0.6854 -0.8232 -0.5220
   74SLPC  C315 6648   2.351   4.130   3.665  0.2132  0.2530 -0.1254
   74SLPC  H15X 6649   2.314   4.183   3.575  1.6048  0.4030 -0.6279
   74SLPC  H15Y 6650   2.325   4.024   3.641 -0.9061  0.6315 -0.6751
   74SLPC  C316 6651   2.506   4.127   3.668  0.3942  0.4821  0.4596
   74SLPC  H16X 6652   2.542   4.075   3.759 -0.6072 -0.7751  0.1804
   74SLPC  H16Y 6653   2.545   4.230   3.667  1.8640 -0.0545  0.2476
   74SLPC  C317 6654   2.551   4.045   3.546 -0.6471  0.6777  0.1602
   74SLPC  H17X 6655   2.507   3.943   3.544  0.2450  0.2898 -0.7739
   74SLPC  H17Y 6656   2.660   4.034   3.566 -0.3275  1.3722 -1.0654
   74SLPC  C318 6657   2.541   4.106   3.408  0.3965 -0.3694 -0.5898
   74SLPC  H18X 6658   2.619   4.071   3.336 -0.8258 -2.8330 -0.8063
   74SLPC  H18Y 6659   2.549   4.216   3.419 -0.8282 -0.2970 -0.2860
   74SLPC  H18Z 6660   2.441   4.092   3.361  0.8910 -1.2858 -1.4008
   75SLPC     N 6661   5.451   4.009   6.259 -0.0134  0.2612 -0.3579
   75SLPC   C13 6662   5.348   4.108   6.322 -0.1253 -1.2335  0.2534
   75SLPC  H13A 6663   5.246   4.075   6.309 -0.2204 -0.8221 -0.0471
   75SLPC  H13B 6664   5.364   4.131   6.426  0.1073 -2.1256  0.4226
   75SLPC  H13C 6665   5.357   4.204   6.273 -2.2835 -0.6303  0.9396
   75SLPC   C14 6666   5.397   3.874   6.300  0.0248  0.1854 -0.0767
   75SLPC  H14A 6667   5.448   3.805   6.236  3.5772  1.7645  0.8341
   75SLPC  H14B 6668   5.401   3.859   6.407 -0.0736 -1.4220 -0.2695
   75SLPC  H14C 6669   5.293   3.866   6.270 -0.5703 -0.7036  2.0325
   75SLPC   C15 6670   5.590   4.042   6.307 -0.0376  0.2625  0.4830
   75SLPC  H15A 6671   5.600   4.040   6.415  0.1601  2.7180  0.5598
   75SLPC  H15B 6672   5.663   3.978   6.260  1.4821  1.1763  1.5372
   75SLPC  H15C 6673   5.616   4.141   6.273 -0.7819  0.3226  0.0542
   75SLPC   C12 6674   5.453   4.033   6.114 -0.7976 -0.9257  0.3167
   75SLPC  H12A 6675   5.484   4.136   6.100 -1.5406 -0.6538  0.6327
   75SLPC  H12B 6676   5.353   4.030   6.072 -0.4412  1.5187 -0.8930
   75SLPC   C11 6677   5.535   3.931   6.022 -0.3140  0.0662 -0.1330
   75SLPC  H11A 6678   5.526   3.955   5.914 -1.7368 -2.2267 -0.5872
   75SLPC  H11B 6679   5.482   3.836   6.043  2.5448 -1.1790  2.1086
   75SLPC     P 6680   5.785   3.971   5.981 -0.1173 -0.0112 -0.1140
   75SLPC   O13 6681   5.771   4.115   5.998 -0.1641  0.1188 -0.0574
   75SLPC   O14 6682   5.917   3.923   6.020 -0.4610 -0.3092 -0.9394
   75SLPC   O12 6683   5.669   3.892   6.063 -0.4872 -0.2948 -0.1628
   75SLPC   O11 6684   5.752   3.941   5.835 -0.4084 -0.3507 -0.9840
   75SLPC    C1 6685   5.756   4.037   5.728 -0.1187  0.8913 -0.0834
   75SLPC    HA 6686   5.838   4.109   5.749 -0.7822  1.4413  0.7004
   75SLPC    HB 6687   5.780   3.994   5.629  1.7955 -2.1101  1.5480
   75SLPC    C2 6688   5.622   4.116   5.716 -0.0104  0.3324 -0.2410
   75SLPC    HS 6689   5.592   4.153   5.817  0.8812 -1.1447  0.5949
   75SLPC   O21 6690   5.522   4.034   5.656  0.4853 -0.2407  0.5140
   75SLPC   C21 6691   5.387   4.070   5.682  0.1692 -0.2763  0.0755
   75SLPC   O22 6692   5.350   4.177   5.734  0.3197 -0.0934  0.5059
   75SLPC   C22 6693   5.289   3.966   5.629  0.1871 -0.9291  0.4559
   75SLPC   H2R 6694   5.323   3.929   5.530 -1.3834 -1.2331 -0.0087
   75SLPC   H2S 6695   5.299   3.890   5.710  0.3725 -1.3756  0.0187
   75SLPC    C3 6696   5.640   4.250   5.635 -0.3691 -0.4249  0.0040
   75SLPC    HX 6697   5.684   4.317   5.712 -1.2130  0.6948 -0.4604
   75SLPC    HY 6698   5.539   4.281   5.600  1.0207  0.1535 -3.9071
   75SLPC   O31 6699   5.729   4.233   5.528 -0.0626  0.2089  0.0643
   75SLPC   C31 6700   5.731   4.340   5.441  0.8934 -0.2765 -0.4768
   75SLPC   O32 6701   5.655   4.436   5.458 -0.7091  0.2313 -0.3397
   75SLPC   C32 6702   5.836   4.327   5.336 -0.1194  0.3935 -0.3446
   75SLPC   H2X 6703   5.810   4.230   5.286 -1.8877 -0.2307  1.6407
   75SLPC   H2Y 6704   5.939   4.324   5.375  0.3439 -1.9224 -1.5254
   75SLPC   C23 6705   5.142   4.015   5.612  0.1682 -0.1878 -0.3387
   75SLPC   H3R 6706   5.142   4.103   5.544  1.4710 -0.8834 -1.2745
   75SLPC   H3S 6707   5.102   4.040   5.713  3.3598 -1.0109  1.2492
   75SLPC   C24 6708   5.060   3.901   5.553 -0.4049  0.1198 -0.0808
   75SLPC   H4R 6709   4.955   3.937   5.550 -0.3767  0.1770 -2.3404
   75SLPC   H4S 6710   5.050   3.811   5.617  1.1231 -1.6397 -2.1401
   75SLPC   C25 6711   5.088   3.853   5.408  0.3099 -0.7829  0.3809
   75SLPC   H5R 6712   5.014   3.776   5.375 -0.4320 -0.5376  1.4062
   75SLPC   H5S 6713   5.191   3.813   5.413  0.7370  0.3678  1.0799
   75SLPC   C26 6714   5.085   3.958   5.304 -0.1926  0.2068  0.5976
   75SLPC   H6R 6715   5.176   4.021   5.316  0.9707 -1.2028 -0.4807
   75SLPC   H6S 6716   4.998   4.027   5.312 -0.6625 -0.1848 -0.8558
   75SLPC   C27 6717   5.094   3.887   5.170 -0.3071  0.3013 -0.0005
   75SLPC   H7R 6718   5.010   3.814   5.167  0.9312 -1.1544 -0.6207
   75SLPC   H7S 6719   5.188   3.829   5.163  0.7996  1.9139  0.8270
   75SLPC   C28 6720   5.086   3.982   5.056 -0.1250 -0.2234 -0.3874
   75SLPC   H8R 6721   5.161   4.063   5.066  0.4590 -0.7504 -0.4703
   75SLPC   H8S 6722   4.991   4.038   5.068 -0.7878 -1.3694 -0.1599
   75SLPC   C29 6723   5.096   3.915   4.921 -0.1155  0.6401  0.1122
   75SLPC   H9R 6724   5.190   3.859   4.914  0.5688  1.8937 -1.1175
   75SLPC  C210 6725   5.015   3.923   4.813  0.0881  0.4810 -0.2804
   75SLPC  H10R 6726   5.035   3.842   4.740  0.4034 -0.1912  0.5386
   75SLPC  C211 6727   4.886   4.005   4.792  0.3777  0.6827  0.3598
   75SLPC  H11R 6728   4.914   4.089   4.725  1.9521  1.0337  1.3988
   75SLPC  H11S 6729   4.857   4.061   4.884 -1.3011  1.0669 -0.3735
   75SLPC  C212 6730   4.770   3.915   4.745 -0.8826 -0.1707 -0.6464
   75SLPC  H12R 6731   4.724   3.859   4.828 -0.7396 -2.1122 -1.8407
   75SLPC  C213 6732   4.737   3.886   4.616 -0.0119  0.3195  0.1174
   75SLPC  H13R 6733   4.649   3.822   4.597 -1.8181  1.9133  2.4509
   75SLPC  C214 6734   4.806   3.948   4.495 -0.2860 -0.4221  0.5312
   75SLPC  H14R 6735   4.874   3.866   4.463  0.9230  0.0020  1.9077
   75SLPC  H14S 6736   4.872   4.036   4.515 -2.1151  1.2707 -0.5323
   75SLPC  C215 6737   4.714   3.981   4.374  0.9468  0.6357  0.2194
   75SLPC  H15R 6738   4.615   4.024   4.401  1.4875  2.0025  0.0805
   75SLPC  H15S 6739   4.707   3.888   4.314  2.4835 -1.1738  2.6506
   75SLPC  C216 6740   4.769   4.082   4.279 -0.0174 -0.4758  0.0904
   75SLPC  H16R 6741   4.858   4.043   4.224 -0.2086 -2.2714  0.9991
   75SLPC  H16S 6742   4.807   4.163   4.345 -0.4879 -0.0888 -0.1077
   75SLPC  C217 6743   4.667   4.157   4.191 -0.0206 -0.1113  0.4212
   75SLPC  H17R 6744   4.717   4.243   4.141  1.1215 -1.3367 -0.6437
   75SLPC  H17S 6745   4.585   4.193   4.256 -0.6445 -1.7723  0.5935
   75SLPC  C218 6746   4.598   4.072   4.092  0.3673  0.3762  0.1993
   75SLPC  H18R 6747   4.524   4.000   4.132  0.7779  0.3493  0.9143
   75SLPC  H18S 6748   4.667   4.011   4.029 -1.0922  0.0457 -1.1675
   75SLPC  H18T 6749   4.538   4.133   4.021  3.1227  1.1765 -1.6282
   75SLPC   C33 6750   5.830   4.432   5.225  0.1747 -0.5387 -1.0377
   75SLPC   H3X 6751   5.819   4.538   5.257 -0.9826 -0.1495 -2.5512
   75SLPC   H3Y 6752   5.736   4.427   5.165  0.3233  4.3682 -2.1766
   75SLPC   C34 6753   5.945   4.417   5.134  0.3688 -0.8343  0.1616
   75SLPC   H4X 6754   5.988   4.315   5.136  1.9557 -0.2047 -0.5363
   75SLPC   H4Y 6755   6.026   4.481   5.174  0.1511 -0.4092 -0.0663
   75SLPC   C35 6756   5.919   4.461   4.986 -0.0289 -0.3061  0.6295
   75SLPC   H5X 6757   6.015   4.471   4.930  0.6870 -0.1128  1.8417
   75SLPC   H5Y 6758   5.873   4.562   4.984  2.8049  1.1971  2.9973
   75SLPC   C36 6759   5.840   4.356   4.908 -0.1306 -0.5499 -0.4394
   75SLPC   H6X 6760   5.737   4.343   4.947 -0.2807 -1.1077 -1.0179
   75SLPC   H6Y 6761   5.894   4.258   4.905  2.2168  0.5697  1.4703
   75SLPC   C37 6762   5.836   4.403   4.760  0.5944 -0.0257 -0.7850
   75SLPC   H7X 6763   5.934   4.431   4.716 -0.2975  2.1534 -1.5466
   75SLPC   H7Y 6764   5.770   4.493   4.757  1.9755  1.0459 -0.1972
   75SLPC   C38 6765   5.792   4.288   4.670 -0.1339  1.1860  0.4130
   75SLPC   H8X 6766   5.704   4.228   4.701 -0.9489  1.6786 -0.8508
   75SLPC   H8Y 6767   5.875   4.213   4.664  1.2611  2.7037  0.1396
   75SLPC   C39 6768   5.760   4.335   4.527  0.1539  0.3139  0.6521
   75SLPC   H9X 6769   5.850   4.386   4.486  0.9277 -1.1885  0.3929
   75SLPC   H9Y 6770   5.688   4.419   4.537 -0.0121  0.3772 -0.7992
   75SLPC  C310 6771   5.697   4.235   4.433  0.5369  0.1439  0.1997
   75SLPC  H10X 6772   5.603   4.189   4.471 -0.6218  1.0839 -1.4301
   75SLPC  H10Y 6773   5.758   4.141   4.432  0.5795  0.1729 -0.4651
   75SLPC  C311 6774   5.663   4.288   4.292 -0.4867  0.2986 -0.2438
   75SLPC  H11X 6775   5.752   4.323   4.235 -0.4900 -1.0497 -1.1298
   75SLPC  H11Y 6776   5.595   4.374   4.308  1.0392  1.7898 -1.3838
   75SLPC  C312 6777   5.593   4.184   4.203  0.3011 -0.0261  1.1013
   75SLPC  H12X 6778   5.504   4.136   4.248 -1.6823  0.0708 -2.4026
   75SLPC  H12Y 6779   5.663   4.105   4.168 -1.3687 -2.6632  3.3981
   75SLPC  C313 6780   5.529   4.249   4.077 -0.6888  0.1855 -0.0246
   75SLPC  H13X 6781   5.611   4.281   4.009 -0.7641  0.9989  0.2565
   75SLPC  H13Y 6782   5.485   4.347   4.103 -0.6981 -0.4354  2.5212
   75SLPC  C314 6783   5.429   4.151   4.002  0.1382 -0.2156 -0.1415
   75SLPC  H14X 6784   5.375   4.187   3.912 -0.9659 -1.3582  0.0270
   75SLPC  H14Y 6785   5.360   4.131   4.087  0.5470 -1.9301 -0.1814
   75SLPC  C315 6786   5.492   4.015   3.958 -0.5057 -0.2859 -0.3600
   75SLPC  H15X 6787   5.544   3.982   4.050  2.0734  1.8090 -0.9420
   75SLPC  H15Y 6788   5.568   4.031   3.878  1.8555 -1.1237  1.5976
   75SLPC  C316 6789   5.396   3.910   3.904  0.6984 -0.4700 -0.0330
   75SLPC  H16X 6790   5.361   3.951   3.807  0.5166  0.0157  0.2358
   75SLPC  H16Y 6791   5.316   3.894   3.979  0.0794 -2.8464 -1.1189
   75SLPC  C317 6792   5.471   3.786   3.876 -0.1497  0.2122  0.2474
   75SLPC  H17X 6793   5.572   3.816   3.840  0.4446 -2.6120 -0.6598
   75SLPC  H17Y 6794   5.443   3.734   3.782  1.4331 -0.4774  0.1193
   75SLPC  C318 6795   5.494   3.690   3.986 -0.0294 -0.2482 -0.3737
   75SLPC  H18X 6796   5.551   3.604   3.945 -0.2638 -0.5357 -0.0959
   75SLPC  H18Y 6797   5.412   3.644   4.045 -2.2134  1.1811 -2.1212
   75SLPC  H18Z 6798   5.558   3.742   4.060 -0.4155  0.0141 -0.2234
   76SLPC     N 6799   6.456   2.916   5.881  0.6465  0.3340 -0.4440
   76SLPC   C13 6800   6.528   2.960   5.757 -0.4033  0.8777  1.0705
   76SLPC  H13A 6801   6.480   3.048   5.718  0.2294  0.1820 -1.4674
   76SLPC  H13B 6802   6.630   2.984   5.786  0.5002 -2.4311  1.0946
   76SLPC  H13C 6803   6.524   2.899   5.668  1.5266  1.0544  0.8154
   76SLPC   C14 6804   6.518   2.799   5.932  0.2532  0.2974 -0.2176
   76SLPC  H14A 6805   6.497   2.714   5.869 -0.9602  0.8006 -0.5220
   76SLPC  H14B 6806   6.625   2.803   5.945  0.1193 -0.9393  1.5390
   76SLPC  H14C 6807   6.481   2.758   6.025  0.6338  1.1905  0.3490
   76SLPC   C15 6808   6.311   2.904   5.853 -0.1037  0.0680 -0.3849
   76SLPC  H15A 6809   6.259   2.881   5.944  0.0742  2.6224  0.4282
   76SLPC  H15B 6810   6.261   2.990   5.811 -0.1714 -0.1423 -0.7366
   76SLPC  H15C 6811   6.291   2.827   5.779 -0.7199  2.0346 -2.3843
   76SLPC   C12 6812   6.472   3.025   5.982  0.5547 -0.6906  0.4555
   76SLPC  H12A 6813   6.576   3.040   6.008  0.4472  0.5325  0.2371
   76SLPC  H12B 6814   6.432   2.996   6.078  1.7330 -0.5600  1.0095
   76SLPC   C11 6815   6.428   3.160   5.931  0.0123 -0.0749  0.6559
   76SLPC  H11A 6816   6.382   3.218   6.014  0.7340 -0.7155  1.5182
   76SLPC  H11B 6817   6.359   3.151   5.844 -0.5936  1.6977  0.9026
   76SLPC     P 6818   6.560   3.371   5.836  0.2696 -0.4462 -0.2275
   76SLPC   O13 6819   6.526   3.469   5.942  0.4332 -0.3249 -0.1582
   76SLPC   O14 6820   6.693   3.377   5.773  0.0856 -0.0203 -0.1491
   76SLPC   O12 6821   6.544   3.229   5.885 -0.5037  0.3705 -0.1585
   76SLPC   O11 6822   6.445   3.375   5.727 -0.1547 -0.1236 -0.5430
   76SLPC    C1 6823   6.445   3.293   5.612  0.0736 -0.3167 -0.1274
   76SLPC    HA 6824   6.509   3.203   5.615 -0.3562 -0.6880 -1.3139
   76SLPC    HB 6825   6.339   3.260   5.599 -0.0231  0.2147 -0.7803
   76SLPC    C2 6826   6.467   3.381   5.486  0.8355  0.1896 -0.0052
   76SLPC    HS 6827   6.445   3.308   5.405  1.3377 -0.5897  0.5469
   76SLPC   O21 6828   6.605   3.430   5.462  0.1875  0.9578  0.5437
   76SLPC   C21 6829   6.694   3.344   5.422  0.2994  1.1896 -0.6836
   76SLPC   O22 6830   6.671   3.224   5.412  0.0437  0.3573 -0.1479
   76SLPC   C22 6831   6.824   3.416   5.397 -0.7090 -0.0530  0.2340
   76SLPC   H2R 6832   6.847   3.476   5.488 -1.3935 -1.6262  1.4848
   76SLPC   H2S 6833   6.905   3.342   5.380 -0.2128  0.2369  1.2243
   76SLPC    C3 6834   6.374   3.496   5.490  0.0286 -0.6593 -0.3272
   76SLPC    HX 6835   6.412   3.569   5.565 -0.3171  0.1372 -0.9161
   76SLPC    HY 6836   6.269   3.469   5.517 -0.9657  0.6456 -2.6370
   76SLPC   O31 6837   6.346   3.553   5.356  0.0613  0.3977  0.4078
   76SLPC   C31 6838   6.412   3.672   5.341 -0.4078  0.5407 -0.2954
   76SLPC   O32 6839   6.485   3.726   5.422  0.1850  0.5815 -0.3698
   76SLPC   C32 6840   6.388   3.725   5.207 -0.0150 -0.4590 -0.0235
   76SLPC   H2X 6841   6.349   3.828   5.220 -0.5315 -0.6481 -0.0550
   76SLPC   H2Y 6842   6.295   3.683   5.162 -1.7008  0.4374  2.4159
   76SLPC   C23 6843   6.826   3.524   5.285  0.0511 -0.2610 -0.8508
   76SLPC   H3R 6844   6.917   3.586   5.298 -0.6592  0.9027 -1.2251
   76SLPC   H3S 6845   6.736   3.589   5.286  0.2650  0.0242  0.0859
   76SLPC   C24 6846   6.821   3.449   5.150  0.7994 -0.1291  0.0994
   76SLPC   H4R 6847   6.721   3.402   5.147  1.3745 -1.3378 -1.0675
   76SLPC   H4S 6848   6.908   3.380   5.146 -0.2620 -1.5230  0.3687
   76SLPC   C25 6849   6.854   3.544   5.043  0.8608 -0.7247  0.8942
   76SLPC   H5R 6850   6.963   3.564   5.052  0.6950 -0.2044  2.0010
   76SLPC   H5S 6851   6.793   3.636   5.060  1.8938  0.2488 -0.4153
   76SLPC   C26 6852   6.817   3.487   4.902  0.0194  0.1622 -0.4269
   76SLPC   H6R 6853   6.718   3.440   4.918 -0.8789  0.5439 -3.8973
   76SLPC   H6S 6854   6.887   3.407   4.868 -0.5013  0.0483 -1.2629
   76SLPC   C27 6855   6.803   3.594   4.785  0.4164  0.8690 -0.6010
   76SLPC   H7R 6856   6.904   3.640   4.775  0.5211  0.6019 -0.7751
   76SLPC   H7S 6857   6.737   3.678   4.816 -1.0379 -0.2092 -0.7244
   76SLPC   C28 6858   6.743   3.530   4.657 -0.2689  0.1867 -0.0510
   76SLPC   H8R 6859   6.711   3.606   4.581 -2.4602 -1.6624 -1.0952
   76SLPC   H8S 6860   6.654   3.471   4.686 -1.2877  2.4219  1.6845
   76SLPC   C29 6861   6.833   3.424   4.596 -0.4731 -0.0945  0.5218
   76SLPC   H9R 6862   6.864   3.343   4.664 -1.5094 -2.0998 -1.2619
   76SLPC  C210 6863   6.867   3.414   4.471  0.3330 -0.2460  0.2993
   76SLPC  H10R 6864   6.924   3.327   4.435 -1.0118 -1.4342  0.9873
   76SLPC  C211 6865   6.824   3.500   4.359 -0.4205 -0.8777 -0.4149
   76SLPC  H11R 6866   6.730   3.554   4.382  0.4668  0.3961  0.4282
   76SLPC  H11S 6867   6.788   3.434   4.278 -1.5039  1.4424 -1.9214
   76SLPC  C212 6868   6.930   3.593   4.302  0.1954  0.2935 -0.2822
   76SLPC  H12R 6869   6.983   3.662   4.369  0.3772  0.1853 -0.3138
   76SLPC  C213 6870   6.946   3.624   4.172 -0.0300 -0.2098  0.4921
   76SLPC  H13R 6871   7.030   3.691   4.145  0.5737 -1.0088  0.3537
   76SLPC  C214 6872   6.867   3.582   4.054 -0.0418 -0.7391  0.2531
   76SLPC  H14R 6873   6.810   3.670   4.016 -1.1435 -1.3289  0.4875
   76SLPC  H14S 6874   6.778   3.524   4.088 -1.4298  0.4037 -1.2264
   76SLPC  C215 6875   6.948   3.514   3.942  0.0545  0.1545 -0.4480
   76SLPC  H15R 6876   6.869   3.478   3.872 -3.2332 -0.2328  3.1531
   76SLPC  H15S 6877   7.001   3.422   3.975 -0.2321  0.4214  0.7918
   76SLPC  C216 6878   7.038   3.614   3.859 -0.0894 -0.3212  0.3248
   76SLPC  H16R 6879   7.090   3.686   3.926 -0.3251 -0.8395  1.0815
   76SLPC  H16S 6880   6.955   3.663   3.805 -1.1702 -1.8778  0.5044
   76SLPC  C217 6881   7.148   3.562   3.761  0.1782  0.2613 -0.2791
   76SLPC  H17R 6882   7.227   3.500   3.808  1.6906  0.8129 -1.9701
   76SLPC  H17S 6883   7.199   3.654   3.723 -1.6330  1.1504 -0.6784
   76SLPC  C218 6884   7.099   3.487   3.642 -0.2892 -0.4136 -0.1321
   76SLPC  H18R 6885   7.175   3.419   3.596  0.5362 -0.5069  1.3007
   76SLPC  H18S 6886   7.065   3.552   3.558  0.7956 -0.0682 -0.3232
   76SLPC  H18T 6887   7.010   3.429   3.674  1.9746 -1.6509  5.0082
   76SLPC   C33 6888   6.505   3.730   5.111 -0.4593  0.7036 -0.0147
   76SLPC   H3X 6889   6.542   3.626   5.092 -2.6591 -0.1460  0.0824
   76SLPC   H3Y 6890   6.586   3.789   5.159 -1.3751  0.4154  2.0182
   76SLPC   C34 6891   6.493   3.789   4.969  0.3382 -0.4292 -0.5867
   76SLPC   H4X 6892   6.589   3.832   4.933  0.6328  0.3956  1.0887
   76SLPC   H4Y 6893   6.427   3.878   4.970  0.6832 -0.1593 -1.3362
   76SLPC   C35 6894   6.437   3.697   4.862  0.7681 -0.5497  0.3926
   76SLPC   H5X 6895   6.336   3.668   4.898  0.5826 -0.1931  0.1697
   76SLPC   H5Y 6896   6.489   3.599   4.857 -0.3711 -1.1410 -0.1980
   76SLPC   C36 6897   6.435   3.768   4.727  0.0219  0.3924 -0.5588
   76SLPC   H6X 6898   6.541   3.788   4.701  0.1995 -0.2988 -0.4000
   76SLPC   H6Y 6899   6.390   3.869   4.730 -0.7120  0.0876  2.9617
   76SLPC   C37 6900   6.368   3.688   4.611  0.5303 -0.9193  0.9715
   76SLPC   H7X 6901   6.264   3.658   4.635 -0.2390 -0.0152 -0.9622
   76SLPC   H7Y 6902   6.416   3.588   4.615  1.8165 -0.2876  3.4396
   76SLPC   C38 6903   6.381   3.754   4.469  0.6864  0.2347  0.3532
   76SLPC   H8X 6904   6.306   3.833   4.450 -0.2080 -1.0827 -2.0162
   76SLPC   H8Y 6905   6.372   3.677   4.389  0.3687  1.1900 -0.5525
   76SLPC   C39 6906   6.519   3.826   4.432 -0.1432  0.1953  0.2622
   76SLPC   H9X 6907   6.603   3.756   4.451 -0.0486  0.5572  1.2474
   76SLPC   H9Y 6908   6.525   3.915   4.498 -0.6678 -0.5530  1.3572
   76SLPC  C310 6909   6.523   3.885   4.290 -0.2841 -0.6407 -0.0262
   76SLPC  H10X 6910   6.453   3.971   4.285  1.9760  1.3793  1.0198
   76SLPC  H10Y 6911   6.479   3.815   4.216 -0.0566 -0.1780 -0.6107
   76SLPC  C311 6912   6.657   3.927   4.226  0.3691 -0.0586  0.3446
   76SLPC  H11X 6913   6.716   3.838   4.258 -3.2785 -1.5550  3.7866
   76SLPC  H11Y 6914   6.698   4.010   4.287 -0.6589  1.0860 -0.4725
   76SLPC  C312 6915   6.652   3.955   4.080 -0.3020 -0.3168  0.5605
   76SLPC  H12X 6916   6.581   4.036   4.051  0.7216  0.4587  0.1725
   76SLPC  H12Y 6917   6.630   3.866   4.016 -1.8594  0.2267  0.2885
   76SLPC  C313 6918   6.793   4.015   4.048 -0.1002  0.5162 -0.2512
   76SLPC  H13X 6919   6.879   3.953   4.083  0.0544  0.9339  0.1225
   76SLPC  H13Y 6920   6.804   4.106   4.110  1.1377 -0.1733  0.6025
   76SLPC  C314 6921   6.809   4.050   3.900  0.9060  0.1631  0.1395
   76SLPC  H14X 6922   6.708   4.083   3.867  1.4350  0.8946 -0.8029
   76SLPC  H14Y 6923   6.824   3.956   3.844 -2.1979  0.5885 -1.6494
   76SLPC  C315 6924   6.915   4.154   3.865 -0.4995 -0.0644 -0.0333
   76SLPC  H15X 6925   6.912   4.233   3.944 -3.5198 -0.3933  0.3037
   76SLPC  H15Y 6926   6.892   4.205   3.769 -1.9008  0.2491  0.4508
   76SLPC  C316 6927   7.049   4.082   3.835  0.4514  0.2171  0.2526
   76SLPC  H16X 6928   7.039   4.025   3.740  2.3353  0.3898 -0.0802
   76SLPC  H16Y 6929   7.085   4.011   3.913 -0.6618 -0.8970 -0.1991
   76SLPC  C317 6930   7.162   4.176   3.789 -0.4298  0.4615 -0.4910
   76SLPC  H17X 6931   7.144   4.208   3.684 -0.8404 -1.0378 -0.9017
   76SLPC  H17Y 6932   7.263   4.129   3.786 -1.0623 -0.9826  0.2038
   76SLPC  C318 6933   7.182   4.287   3.894  0.4451 -0.7034 -0.4117
   76SLPC  H18X 6934   7.262   4.353   3.853  2.2589 -1.4323  1.7257
   76SLPC  H18Y 6935   7.221   4.244   3.989  1.0092  1.1492  0.2373
   76SLPC  H18Z 6936   7.093   4.345   3.922  0.6219 -0.3957 -0.4866
   77SLPC     N 6937   0.797   3.750   5.836 -0.4410  0.8338 -0.0881
   77SLPC   C13 6938   0.840   3.724   5.697 -0.5131 -0.6947 -0.3868
   77SLPC  H13A 6939   0.904   3.636   5.699 -3.1972 -2.7891 -0.3720
   77SLPC  H13B 6940   0.750   3.686   5.650 -0.5549 -2.2939  0.8815
   77SLPC  H13C 6941   0.880   3.809   5.644 -0.2279 -1.2111 -1.0130
   77SLPC   C14 6942   0.915   3.763   5.929 -0.6469 -0.2711  0.2208
   77SLPC  H14A 6943   0.982   3.679   5.915  0.4097  0.0307  2.9197
   77SLPC  H14B 6944   0.974   3.849   5.903 -3.0103  1.2266 -0.4006
   77SLPC  H14C 6945   0.873   3.765   6.029 -2.0327 -0.1432 -0.3464
   77SLPC   C15 6946   0.725   3.624   5.885  0.5903 -0.7846  0.1010
   77SLPC  H15A 6947   0.653   3.582   5.816  0.0087 -0.7951  0.7008
   77SLPC  H15B 6948   0.791   3.544   5.916  2.3304  0.7251  0.4196
   77SLPC  H15C 6949   0.660   3.646   5.969 -0.3562  0.1160 -0.8475
   77SLPC   C12 6950   0.704   3.875   5.844  0.4501 -0.0102 -0.0496
   77SLPC  H12A 6951   0.758   3.957   5.799 -2.2137  0.9876 -1.6050
   77SLPC  H12B 6952   0.703   3.901   5.949  2.3365  0.7917 -0.1980
   77SLPC   C11 6953   0.565   3.858   5.774 -0.1755  0.1079 -0.4002
   77SLPC  H11A 6954   0.575   3.814   5.673 -1.7291 -1.1507 -0.0538
   77SLPC  H11B 6955   0.528   3.962   5.763  2.4318  0.9662 -1.6000
   77SLPC     P 6956   0.332   3.751   5.827 -0.3971  0.0470 -0.0598
   77SLPC   O13 6957   0.302   3.631   5.752 -0.4256  0.3755 -0.3369
   77SLPC   O14 6958   0.266   3.754   5.959 -0.2844  0.3136 -0.2745
   77SLPC   O12 6959   0.480   3.776   5.860 -0.0432 -0.6688  1.1095
   77SLPC   O11 6960   0.284   3.880   5.753  0.6905 -0.3072  0.4264
   77SLPC    C1 6961   0.274   3.906   5.610  0.4178 -0.4063  0.6016
   77SLPC    HA 6962   0.271   4.016   5.592 -2.3201 -0.1173  2.2186
   77SLPC    HB 6963   0.364   3.864   5.561  0.8536 -0.6109  1.5539
   77SLPC    C2 6964   0.144   3.843   5.545  0.4782  0.5472 -0.2684
   77SLPC    HS 6965   0.069   3.842   5.627 -0.8234 -0.1035 -1.4191
   77SLPC   O21 6966   0.178   3.708   5.493 -0.1572  0.1385 -0.0106
   77SLPC   C21 6967   0.064   3.639   5.486  0.1154  0.1787 -0.4795
   77SLPC   O22 6968  -0.047   3.678   5.529 -0.6347  0.1971  0.3679
   77SLPC   C22 6969   0.088   3.510   5.408 -0.1374 -0.7023 -0.2866
   77SLPC   H2R 6970   0.162   3.450   5.466 -2.0539 -2.8728  0.0079
   77SLPC   H2S 6971   0.002   3.441   5.419 -0.2435 -0.5735 -0.3090
   77SLPC    C3 6972   0.088   3.933   5.433  0.6575 -0.3043  0.0094
   77SLPC    HX 6973   0.059   4.027   5.486 -0.1946  0.4634 -1.7559
   77SLPC    HY 6974  -0.003   3.886   5.391 -0.6631  0.8759  1.4025
   77SLPC   O31 6975   0.190   3.964   5.341 -0.1849  0.4040  0.0954
   77SLPC   C31 6976   0.182   3.914   5.220  0.9801  0.1563 -0.2531
   77SLPC   O32 6977   0.094   3.848   5.174  0.0215 -0.0840  0.3449
   77SLPC   C32 6978   0.294   3.982   5.144  0.0024  0.2492 -0.0796
   77SLPC   H2X 6979   0.379   3.911   5.150 -0.5274 -0.4068 -0.3168
   77SLPC   H2Y 6980   0.320   4.077   5.196 -0.7526 -0.8882  2.5585
   77SLPC   C23 6981   0.113   3.542   5.261  0.1756  0.3415 -0.1745
   77SLPC   H3R 6982   0.202   3.608   5.260 -0.0376  0.7326  1.8055
   77SLPC   H3S 6983   0.027   3.600   5.222 -0.6556 -0.4964  0.3554
   77SLPC   C24 6984   0.153   3.429   5.183 -0.6371  0.9364  0.8999
   77SLPC   H4R 6985   0.067   3.368   5.148 -0.9247  1.7676  0.1229
   77SLPC   H4S 6986   0.216   3.356   5.238 -0.9043  0.2736  0.3262
   77SLPC   C25 6987   0.247   3.467   5.063  0.7439  0.4859  0.4724
   77SLPC   H5R 6988   0.295   3.374   5.027 -0.4790 -0.3532  0.9579
   77SLPC   H5S 6989   0.323   3.538   5.102 -0.2545  1.7554  0.1637
   77SLPC   C26 6990   0.165   3.538   4.951 -0.1434  0.6610 -0.5835
   77SLPC   H6R 6991   0.239   3.577   4.878 -1.4515 -1.1137 -3.0188
   77SLPC   H6S 6992   0.119   3.630   4.993  0.9550  0.6422  0.7483
   77SLPC   C27 6993   0.073   3.445   4.861  0.3573 -0.7854 -0.3216
   77SLPC   H7R 6994   0.031   3.507   4.779  1.9000  0.5166 -0.1776
   77SLPC   H7S 6995  -0.014   3.412   4.921 -0.6562  0.0298 -1.3013
   77SLPC   C28 6996   0.141   3.326   4.790  0.1473  0.2480  0.4528
   77SLPC   H8R 6997   0.151   3.259   4.878 -0.0907  0.7811  0.8910
   77SLPC   H8S 6998   0.238   3.353   4.743 -0.0272 -2.2931 -1.6223
   77SLPC   C29 6999   0.057   3.246   4.696 -0.2725  0.1785 -0.4210
   77SLPC   H9R 7000  -0.028   3.193   4.742  0.9967 -0.0946  1.7967
   77SLPC  C210 7001   0.073   3.246   4.567 -0.2288 -0.9129 -0.4107
   77SLPC  H10R 7002   0.011   3.175   4.509 -0.9680  0.5760 -1.5155
   77SLPC  C211 7003   0.171   3.314   4.476  0.4204  0.1785 -0.5283
   77SLPC  H11R 7004   0.247   3.241   4.440 -1.2924 -0.7729 -2.4324
   77SLPC  H11S 7005   0.238   3.384   4.530 -2.6887  1.0714  2.4830
   77SLPC  C212 7006   0.105   3.389   4.359 -0.7497 -0.0561  0.4944
   77SLPC  H12R 7007   0.091   3.497   4.373 -0.0679  0.2917 -1.1709
   77SLPC  C213 7008   0.058   3.328   4.249  0.2470  0.3446  0.0926
   77SLPC  H13R 7009   0.011   3.391   4.172 -2.6849  1.2626  2.4492
   77SLPC  C214 7010   0.074   3.177   4.218 -0.0711 -0.6563  0.7860
   77SLPC  H14R 7011  -0.022   3.122   4.211  0.0648 -0.9288  1.0536
   77SLPC  H14S 7012   0.130   3.119   4.294  0.4742 -1.9612 -0.5367
   77SLPC  C215 7013   0.168   3.160   4.095 -0.1293 -0.2292 -0.4338
   77SLPC  H15R 7014   0.189   3.051   4.088 -1.7853 -0.7577  1.7153
   77SLPC  H15S 7015   0.265   3.211   4.113 -0.5442 -0.0601  1.6637
   77SLPC  C216 7016   0.117   3.202   3.957 -0.4570  0.3995  0.7458
   77SLPC  H16R 7017   0.167   3.289   3.909  0.2941  0.6072  1.8806
   77SLPC  H16S 7018   0.010   3.223   3.976 -1.4158 -2.7909 -0.4224
   77SLPC  C217 7019   0.107   3.087   3.850 -0.3307  0.1297 -0.0837
   77SLPC  H17R 7020   0.033   3.011   3.884  1.3199 -1.4249  0.1697
   77SLPC  H17S 7021   0.205   3.035   3.856  0.3002  1.4729  2.7908
   77SLPC  C218 7022   0.079   3.132   3.706 -0.0092  0.2984  0.2646
   77SLPC  H18R 7023   0.146   3.207   3.658  0.5272  0.1108  0.7098
   77SLPC  H18S 7024  -0.024   3.172   3.708  0.1657  1.0160 -1.7888
   77SLPC  H18T 7025   0.085   3.041   3.642 -0.2540  1.7038 -1.8533
   77SLPC   C33 7026   0.265   4.015   4.995  0.0320  0.2762  0.2152
   77SLPC   H3X 7027   0.311   4.115   4.980 -1.5657  0.8403 -1.3136
   77SLPC   H3Y 7028   0.156   4.021   4.975 -0.2443 -0.3305  1.4435
   77SLPC   C34 7029   0.336   3.920   4.903  0.1847  1.3585  0.5854
   77SLPC   H4X 7030   0.328   3.819   4.950 -0.8700  0.8890 -0.5383
   77SLPC   H4Y 7031   0.443   3.947   4.896  1.0490 -1.4338  1.7356
   77SLPC   C35 7032   0.253   3.907   4.776 -0.1851  0.6499 -0.6225
   77SLPC   H5X 7033   0.241   4.011   4.740  1.5483  0.8113 -0.7755
   77SLPC   H5Y 7034   0.154   3.857   4.791  0.5848 -0.2729  2.0357
   77SLPC   C36 7035   0.327   3.821   4.675 -0.3112  0.1843  0.0711
   77SLPC   H6X 7036   0.268   3.783   4.588 -0.0770 -0.1925  0.0753
   77SLPC   H6Y 7037   0.360   3.734   4.735 -2.8437 -1.6835 -1.0151
   77SLPC   C37 7038   0.444   3.901   4.614  0.1966  0.6298  0.0227
   77SLPC   H7X 7039   0.517   3.925   4.693  0.7503 -0.6563 -0.0772
   77SLPC   H7Y 7040   0.406   4.000   4.578 -2.3716 -1.0710 -2.3885
   77SLPC   C38 7041   0.503   3.826   4.494 -0.5222  0.3074  0.2227
   77SLPC   H8X 7042   0.431   3.789   4.418 -0.3139  0.8402 -0.2404
   77SLPC   H8Y 7043   0.550   3.737   4.541 -0.9000  0.7045  1.3918
   77SLPC   C39 7044   0.612   3.916   4.422 -0.1902  0.6792 -0.0748
   77SLPC   H9X 7045   0.679   3.959   4.498 -0.8524  1.9659 -0.1878
   77SLPC   H9Y 7046   0.556   4.004   4.383  0.3940  1.6054  1.1017
   77SLPC  C310 7047   0.690   3.834   4.321  0.1544 -0.3117 -0.2409
   77SLPC  H10X 7048   0.617   3.811   4.240 -0.2995 -1.7409  0.5254
   77SLPC  H10Y 7049   0.739   3.739   4.352  2.6237 -0.2263 -3.3903
   77SLPC  C311 7050   0.789   3.923   4.253  0.2336 -0.4638 -0.3472
   77SLPC  H11X 7051   0.888   3.935   4.302 -0.9738 -2.2560  2.7262
   77SLPC  H11Y 7052   0.742   4.023   4.241  1.9063  0.5046  0.7676
   77SLPC  C312 7053   0.815   3.863   4.107  0.8033 -0.1519  0.9764
   77SLPC  H12X 7054   0.900   3.918   4.060 -0.7784  0.9506 -0.7592
   77SLPC  H12Y 7055   0.732   3.887   4.037  3.8218 -0.2667 -2.9814
   77SLPC  C313 7056   0.855   3.717   4.109  0.0642  0.1092 -0.4259
   77SLPC  H13X 7057   0.768   3.651   4.132  0.6741 -1.0319 -1.2456
   77SLPC  H13Y 7058   0.935   3.697   4.183 -0.1572 -3.3000 -0.9480
   77SLPC  C314 7059   0.918   3.675   3.973 -0.0700 -0.0116  0.9100
   77SLPC  H14X 7060   1.003   3.742   3.950 -0.2772 -0.1463 -0.3631
   77SLPC  H14Y 7061   0.843   3.685   3.891 -0.1453 -1.2959  0.8030
   77SLPC  C315 7062   0.986   3.537   3.982  0.5047 -0.8226  0.0809
   77SLPC  H15X 7063   0.914   3.453   3.973 -0.6246  0.0868  0.4269
   77SLPC  H15Y 7064   1.044   3.543   4.077 -0.9029 -0.4510  0.9375
   77SLPC  C316 7065   1.073   3.520   3.851 -0.3264 -0.4960  0.1732
   77SLPC  H16X 7066   1.147   3.603   3.862 -0.2574 -0.5723  0.2816
   77SLPC  H16Y 7067   1.014   3.537   3.758 -0.9635 -2.9011  0.0893
   77SLPC  C317 7068   1.147   3.386   3.841  1.2768 -0.6005 -0.7407
   77SLPC  H17X 7069   1.188   3.382   3.737 -1.1010  3.5193 -2.0430
   77SLPC  H17Y 7070   1.067   3.310   3.856 -1.2317  2.1936  1.0900
   77SLPC  C318 7071   1.264   3.370   3.942  0.0713  0.1181  0.5565
   77SLPC  H18X 7072   1.226   3.407   4.040 -1.7723 -1.0975  0.3489
   77SLPC  H18Y 7073   1.347   3.436   3.908 -0.6319  1.3904  1.2184
   77SLPC  H18Z 7074   1.301   3.266   3.947  1.9208  0.7367  0.4657
   78SLPC     N 7075   2.828   0.075   6.268  0.0747  0.1123  0.3793
   78SLPC   C13 7076   2.770  -0.006   6.159  0.1011  0.1878  0.0325
   78SLPC  H13A 7077   2.664  -0.023   6.167 -0.2547  2.5726  1.0567
   78SLPC  H13B 7078   2.788   0.039   6.062 -0.4670  0.6382  0.1328
   78SLPC  H13C 7079   2.814  -0.105   6.160  0.6339  0.3805  2.7072
   78SLPC   C14 7080   2.945  -0.004   6.336 -0.5114 -0.1652 -0.7788
   78SLPC  H14A 7081   3.001   0.055   6.406  0.5453  0.7936 -2.3781
   78SLPC  H14B 7082   2.905  -0.092   6.385  0.2881 -0.4667 -0.6576
   78SLPC  H14C 7083   3.012  -0.043   6.261  1.3397 -1.1802  1.3154
   78SLPC   C15 7084   2.717   0.097   6.367  0.2191 -0.7525 -0.1982
   78SLPC  H15A 7085   2.757   0.156   6.448  1.4516 -1.0893 -0.5414
   78SLPC  H15B 7086   2.635   0.146   6.316 -1.7132 -0.6639  2.7053
   78SLPC  H15C 7087   2.676   0.009   6.415 -0.3121 -0.7994 -0.7188
   78SLPC   C12 7088   2.884   0.204   6.207  0.2743  0.5842 -0.6648
   78SLPC  H12A 7089   2.974   0.174   6.157  0.4944 -0.6950  0.4315
   78SLPC  H12B 7090   2.925   0.272   6.281 -0.9683  1.3439 -0.6323
   78SLPC   C11 7091   2.786   0.285   6.114 -0.0721  0.0405 -0.2556
   78SLPC  H11A 7092   2.795   0.238   6.014 -3.2191 -0.2290 -0.5229
   78SLPC  H11B 7093   2.833   0.385   6.104  0.7854 -0.2622  0.6177
   78SLPC     P 7094   2.526   0.237   6.091 -0.0050  0.1229 -0.0077
   78SLPC   O13 7095   2.567   0.153   5.977 -0.3543  0.7700 -0.0639
   78SLPC   O14 7096   2.445   0.167   6.200 -0.9574 -0.0200  0.2904
   78SLPC   O12 7097   2.653   0.302   6.162 -0.5111 -0.3431  0.3797
   78SLPC   O11 7098   2.436   0.351   6.039 -0.4851 -0.0725 -0.0499
   78SLPC    C1 7099   2.490   0.478   5.999 -0.2052  0.3600 -0.0344
   78SLPC    HA 7100   2.412   0.555   6.016  0.3675  1.0411 -0.4392
   78SLPC    HB 7101   2.570   0.509   6.069  0.4191 -0.1488 -0.5148
   78SLPC    C2 7102   2.519   0.476   5.840  0.4974  0.1373  0.1824
   78SLPC    HS 7103   2.462   0.388   5.802  0.4122  0.8506 -1.4341
   78SLPC   O21 7104   2.656   0.451   5.826 -0.3321 -0.0716  0.4144
   78SLPC   C21 7105   2.691   0.363   5.723  0.2556 -0.5685 -0.3237
   78SLPC   O22 7106   2.611   0.310   5.651  0.0853 -0.4662  0.3044
   78SLPC   C22 7107   2.837   0.374   5.701 -0.0064 -0.1852 -0.8217
   78SLPC   H2R 7108   2.857   0.483   5.697  2.3928 -0.5277  0.2455
   78SLPC   H2S 7109   2.883   0.325   5.789 -0.1716 -1.0748 -1.2180
   78SLPC    C3 7110   2.490   0.602   5.751 -0.6736  0.5338 -0.0871
   78SLPC    HX 7111   2.555   0.676   5.801  0.1721 -0.7124  0.7181
   78SLPC    HY 7112   2.382   0.621   5.772 -0.4936 -0.1656  1.6409
   78SLPC   O31 7113   2.520   0.592   5.610  0.1237 -0.3762  0.5099
   78SLPC   C31 7114   2.438   0.531   5.537  0.3072 -0.2919 -0.3340
   78SLPC   O32 7115   2.330   0.489   5.578  0.7229  0.1986  0.0429
   78SLPC   C32 7116   2.486   0.536   5.394 -0.2129 -0.1417 -0.3832
   78SLPC   H2X 7117   2.591   0.500   5.382  0.1218  1.5254 -3.5672
   78SLPC   H2Y 7118   2.478   0.632   5.340 -0.3436 -0.6231 -1.2395
   78SLPC   C23 7119   2.899   0.292   5.578  0.2346  0.0830 -0.2925
   78SLPC   H3R 7120   2.855   0.190   5.569 -0.3882  0.5200 -2.8981
   78SLPC   H3S 7121   3.009   0.280   5.583  0.1712 -4.0975 -3.5944
   78SLPC   C24 7122   2.873   0.366   5.445 -0.3580  0.6913 -0.4490
   78SLPC   H4R 7123   2.921   0.466   5.443  1.2889 -0.0222 -4.0956
   78SLPC   H4S 7124   2.763   0.365   5.433 -0.2988 -2.5757 -1.8878
   78SLPC   C25 7125   2.917   0.288   5.327  0.1084 -0.2006  0.2541
   78SLPC   H5R 7126   2.855   0.195   5.326  0.3334 -0.3553  0.4474
   78SLPC   H5S 7127   3.024   0.259   5.325  0.1464 -0.0172 -0.5563
   78SLPC   C26 7128   2.885   0.359   5.197  0.0584  0.1394  1.0090
   78SLPC   H6R 7129   2.947   0.449   5.177  0.4889 -0.7797 -2.4753
   78SLPC   H6S 7130   2.779   0.390   5.193 -0.0383 -0.2653 -0.1037
   78SLPC   C27 7131   2.903   0.283   5.061 -1.0316  0.1247 -0.1237
   78SLPC   H7R 7132   2.841   0.191   5.063  1.4686 -1.6883 -1.5818
   78SLPC   H7S 7133   3.006   0.247   5.040 -0.9952 -0.7417  1.3808
   78SLPC   C28 7134   2.852   0.363   4.941  0.0642  0.3228  0.0011
   78SLPC   H8R 7135   2.923   0.449   4.934  0.9221 -0.4040 -0.5705
   78SLPC   H8S 7136   2.749   0.401   4.958  0.0608 -0.0281  0.7679
   78SLPC   C29 7137   2.860   0.277   4.815 -0.1812 -0.3487  0.9313
   78SLPC   H9R 7138   2.829   0.174   4.835 -0.3352 -0.2265  1.3354
   78SLPC  C210 7139   2.919   0.307   4.700  0.1105 -0.1619  0.4240
   78SLPC  H10R 7140   2.916   0.232   4.620 -1.8455  0.3551 -0.0461
   78SLPC  C211 7141   2.977   0.439   4.666  0.0981  0.8960  0.3953
   78SLPC  H11R 7142   3.013   0.495   4.755  2.2457 -0.0599  0.1723
   78SLPC  H11S 7143   2.900   0.506   4.621 -0.3570  1.1372  1.4805
   78SLPC  C212 7144   3.087   0.429   4.565 -0.4827  0.1803 -0.5918
   78SLPC  H12R 7145   3.067   0.383   4.467  1.9390 -1.1851 -0.5182
   78SLPC  C213 7146   3.213   0.485   4.580  0.5335  0.3368 -0.2170
   78SLPC  H13R 7147   3.277   0.469   4.491  0.5686 -0.9953  0.0255
   78SLPC  C214 7148   3.273   0.556   4.703 -0.3681  0.4349 -0.1659
   78SLPC  H14R 7149   3.221   0.654   4.708 -0.0304  0.7145 -1.6748
   78SLPC  H14S 7150   3.377   0.588   4.680 -0.1131 -1.8135 -2.5480
   78SLPC  C215 7151   3.291   0.462   4.825 -0.3710 -0.1995  0.3987
   78SLPC  H15R 7152   3.378   0.398   4.798 -2.1207 -2.5009 -0.1696
   78SLPC  H15S 7153   3.213   0.385   4.844  0.2360 -1.2341 -1.1341
   78SLPC  C216 7154   3.318   0.531   4.956  0.1785  0.8465 -0.3328
   78SLPC  H16R 7155   3.227   0.594   4.967 -0.8357 -0.6179 -0.0833
   78SLPC  H16S 7156   3.409   0.595   4.953  1.3212 -0.7427 -1.8421
   78SLPC  C217 7157   3.335   0.432   5.076 -0.1325 -0.1415  0.4477
   78SLPC  H17R 7158   3.433   0.381   5.061  1.0574  2.6079 -2.3086
   78SLPC  H17S 7159   3.246   0.366   5.076  0.5547 -1.1040 -0.0587
   78SLPC  C218 7160   3.332   0.502   5.213 -0.6306  0.1953 -0.4581
   78SLPC  H18R 7161   3.234   0.545   5.245  1.0079  3.1708  1.0120
   78SLPC  H18S 7162   3.394   0.594   5.211  0.8524 -0.7492  0.4867
   78SLPC  H18T 7163   3.369   0.435   5.292  1.7043 -0.5819 -2.1100
   78SLPC   C33 7164   2.394   0.443   5.318 -0.9163 -0.0288 -0.5352
   78SLPC   H3X 7165   2.292   0.484   5.308 -0.1366  2.4113  0.8398
   78SLPC   H3Y 7166   2.386   0.342   5.365 -1.2261  0.8930  1.4716
   78SLPC   C34 7167   2.436   0.421   5.176 -0.1739  0.1074  0.1412
   78SLPC   H4X 7168   2.396   0.327   5.133  1.0107 -0.3417 -0.0302
   78SLPC   H4Y 7169   2.547   0.409   5.174 -0.0610  0.9731  0.7188
   78SLPC   C35 7170   2.403   0.535   5.082 -0.3459 -0.2147 -0.1643
   78SLPC   H5X 7171   2.460   0.624   5.117 -0.7739 -0.6930  1.8900
   78SLPC   H5Y 7172   2.295   0.560   5.084 -0.0805  1.0029  1.3555
   78SLPC   C36 7173   2.453   0.515   4.938  0.3039  0.8929 -0.2308
   78SLPC   H6X 7174   2.422   0.421   4.886  2.1522  0.5773 -0.8238
   78SLPC   H6Y 7175   2.562   0.504   4.953  0.3959  2.8013  0.7270
   78SLPC   C37 7176   2.426   0.615   4.834 -0.2702  0.3503  0.1208
   78SLPC   H7X 7177   2.408   0.719   4.869 -0.8450  0.6071 -0.8912
   78SLPC   H7Y 7178   2.334   0.593   4.776  0.9490  0.9086 -2.1378
   78SLPC   C38 7179   2.530   0.615   4.727 -0.6304 -0.5463  0.4183
   78SLPC   H8X 7180   2.554   0.510   4.699  0.8886 -0.3397  0.8530
   78SLPC   H8Y 7181   2.632   0.644   4.761 -0.5264 -0.1155 -0.2417
   78SLPC   C39 7182   2.483   0.709   4.612 -0.2322  0.1737  0.8808
   78SLPC   H9X 7183   2.436   0.802   4.650 -0.7485  0.6070 -0.7601
   78SLPC   H9Y 7184   2.414   0.648   4.550  1.4930 -0.5231 -0.4332
   78SLPC  C310 7185   2.591   0.750   4.514 -0.7474  0.4783 -1.1444
   78SLPC  H10X 7186   2.659   0.663   4.508 -0.6402  0.5655 -1.1824
   78SLPC  H10Y 7187   2.646   0.830   4.568 -0.1418 -0.5434 -0.2229
   78SLPC  C311 7188   2.546   0.807   4.373  0.4159  0.0045  0.4046
   78SLPC  H11X 7189   2.597   0.906   4.366  1.2882 -0.2934  2.0525
   78SLPC  H11Y 7190   2.436   0.811   4.388  0.0594  0.3881 -1.8512
   78SLPC  C312 7191   2.572   0.712   4.257 -0.3900 -0.3798 -0.2987
   78SLPC  H12X 7192   2.522   0.614   4.275 -0.3199 -0.3902 -0.1538
   78SLPC  H12Y 7193   2.681   0.690   4.250 -0.4292 -1.1070  0.9778
   78SLPC  C313 7194   2.535   0.767   4.116  0.2264  0.0543 -0.2285
   78SLPC  H13X 7195   2.614   0.844   4.105  0.3249  0.0878  0.6593
   78SLPC  H13Y 7196   2.439   0.822   4.119  0.7261  1.0263 -1.4191
   78SLPC  C314 7197   2.546   0.659   4.007 -0.7440  0.3604 -0.8348
   78SLPC  H14X 7198   2.471   0.671   3.926 -0.7346 -0.7698 -1.0322
   78SLPC  H14Y 7199   2.530   0.558   4.050  2.5432  0.4934  1.0436
   78SLPC  C315 7200   2.685   0.676   3.938 -0.2118  0.1293 -0.4627
   78SLPC  H15X 7201   2.756   0.715   4.014 -1.8043 -0.5319  1.4247
   78SLPC  H15Y 7202   2.672   0.747   3.853  0.0554 -0.6029 -1.1280
   78SLPC  C316 7203   2.754   0.549   3.876  0.7346  0.3418  0.7550
   78SLPC  H16X 7204   2.681   0.489   3.817  2.1728 -0.9590  0.2505
   78SLPC  H16Y 7205   2.783   0.490   3.965  0.3009 -0.2718  0.4951
   78SLPC  C317 7206   2.851   0.598   3.772 -0.3080 -0.3102  0.9772
   78SLPC  H17X 7207   2.931   0.661   3.816  0.3395  0.5134 -1.2326
   78SLPC  H17Y 7208   2.801   0.658   3.692 -1.3753 -3.8795 -1.2387
   78SLPC  C318 7209   2.932   0.490   3.700  0.6703 -0.1860  0.3848
   78SLPC  H18X 7210   3.022   0.527   3.647  2.0292  0.5262  3.0417
   78SLPC  H18Y 7211   2.855   0.444   3.634 -0.9176 -0.1031  2.1068
   78SLPC  H18Z 7212   2.961   0.411   3.771 -1.4412 -1.5229 -0.1409
   79SLPC     N 7213   6.749   3.766   5.719 -0.3702 -0.4910  0.2213
   79SLPC   C13 7214   6.888   3.727   5.754 -0.4146 -0.4713 -0.2399
   79SLPC  H13A 7215   6.897   3.620   5.761 -2.9465 -0.7496 -0.2393
   79SLPC  H13B 7216   6.961   3.765   5.684 -2.6723 -0.0312 -2.5031
   79SLPC  H13C 7217   6.918   3.777   5.845  0.7920  2.2262 -1.9770
   79SLPC   C14 7218   6.721   3.695   5.592 -0.7352  0.0355 -0.1728
   79SLPC  H14A 7219   6.729   3.589   5.611 -1.1297 -0.2883 -1.6875
   79SLPC  H14B 7220   6.623   3.712   5.548 -0.4730  0.8267 -0.4790
   79SLPC  H14C 7221   6.786   3.722   5.510  1.5624  0.0511  1.5741
   79SLPC   C15 7222   6.758   3.915   5.697  0.4083  0.2816 -0.4677
   79SLPC  H15A 7223   6.791   3.960   5.789 -2.2365 -1.1064  1.2783
   79SLPC  H15B 7224   6.819   3.944   5.613  1.2659  0.5966  0.2544
   79SLPC  H15C 7225   6.657   3.953   5.684  0.0641 -1.0336 -2.0645
   79SLPC   C12 7226   6.646   3.745   5.831  0.4646 -0.0660 -0.0668
   79SLPC  H12A 7227   6.685   3.786   5.923  1.7036 -0.7203 -0.2733
   79SLPC  H12B 7228   6.628   3.639   5.842 -1.1764  0.2647  0.7192
   79SLPC   C11 7229   6.499   3.797   5.809  0.3366 -0.2120 -0.3467
   79SLPC  H11A 7230   6.445   3.748   5.894  1.7026 -1.0530  0.0747
   79SLPC  H11B 7231   6.461   3.755   5.714 -1.8550 -1.4361  0.9756
   79SLPC     P 7232   6.475   4.024   5.942 -0.0455 -0.1261 -0.3258
   79SLPC   O13 7233   6.339   4.086   5.962  0.0489 -0.3376  0.0197
   79SLPC   O14 7234   6.527   3.943   6.051  0.5773  0.1283 -0.4757
   79SLPC   O12 7235   6.488   3.942   5.811 -0.3780  0.7536  0.5653
   79SLPC   O11 7236   6.585   4.140   5.928  0.2114  0.1214 -0.2297
   79SLPC    C1 7237   6.549   4.261   5.862 -0.3910 -0.7132 -0.0989
   79SLPC    HA 7238   6.439   4.272   5.856 -0.3783  0.8966  1.5715
   79SLPC    HB 7239   6.582   4.346   5.926 -0.2957 -0.3066 -0.6908
   79SLPC    C2 7240   6.597   4.282   5.719  0.0346 -0.0011 -0.0620
   79SLPC    HS 7241   6.559   4.377   5.674  3.3546  1.8675  0.7178
   79SLPC   O21 7242   6.576   4.165   5.636  0.8766 -0.1289 -0.5331
   79SLPC   C21 7243   6.454   4.158   5.586 -0.0003 -0.4703  0.6432
   79SLPC   O22 7244   6.358   4.228   5.613 -0.3671 -0.1346  0.1109
   79SLPC   C22 7245   6.459   4.046   5.481  0.2523  0.0635  0.0384
   79SLPC   H2R 7246   6.508   3.953   5.518 -0.1948 -0.3714 -0.4435
   79SLPC   H2S 7247   6.353   4.016   5.463  0.0768 -0.5926  1.9105
   79SLPC    C3 7248   6.749   4.304   5.731  0.2474  0.2460  1.7370
   79SLPC    HX 7249   6.794   4.208   5.764  1.3729  0.9105  2.2300
   79SLPC    HY 7250   6.770   4.378   5.812 -1.8119  3.9704 -0.8211
   79SLPC   O31 7251   6.791   4.357   5.603  0.1651 -0.4168  0.2647
   79SLPC   C31 7252   6.860   4.270   5.524  0.0414 -0.5419  0.3840
   79SLPC   O32 7253   6.888   4.157   5.556  0.4866  0.0304  0.4596
   79SLPC   C32 7254   6.876   4.331   5.386  0.2515  0.5716 -0.2685
   79SLPC   H2X 7255   6.947   4.416   5.398  1.6741 -0.1438 -2.7932
   79SLPC   H2Y 7256   6.777   4.364   5.350 -1.1033 -2.3990  0.3731
   79SLPC   C23 7257   6.519   4.095   5.349  0.0537  0.9004  0.2092
   79SLPC   H3R 7258   6.538   4.013   5.277 -0.3003  0.9992  0.0027
   79SLPC   H3S 7259   6.607   4.160   5.367 -0.4667  0.9769  3.1115
   79SLPC   C24 7260   6.434   4.184   5.258  0.0753 -0.4863  0.0523
   79SLPC   H4R 7261   6.364   4.244   5.319  0.4610 -0.9812  1.0052
   79SLPC   H4S 7262   6.362   4.121   5.201  0.5016 -0.6007 -0.3659
   79SLPC   C25 7263   6.518   4.255   5.156  1.1057 -0.3325 -0.1565
   79SLPC   H5R 7264   6.568   4.173   5.099  1.1830  0.9027 -1.9651
   79SLPC   H5S 7265   6.598   4.318   5.201  1.0148  0.0149 -0.4681
   79SLPC   C26 7266   6.429   4.356   5.072  0.2639 -0.2819  0.3580
   79SLPC   H6R 7267   6.388   4.424   5.149  1.8435 -0.8030  1.7110
   79SLPC   H6S 7268   6.348   4.311   5.010  1.4914 -0.0794 -1.4654
   79SLPC   C27 7269   6.515   4.444   4.978 -0.3200 -0.0460  0.7534
   79SLPC   H7R 7270   6.605   4.474   5.036 -0.3270  0.5889  0.4506
   79SLPC   H7S 7271   6.456   4.538   4.963 -0.2177 -0.0545  0.2714
   79SLPC   C28 7272   6.544   4.389   4.839 -0.2658 -0.2385  0.5203
   79SLPC   H8R 7273   6.453   4.346   4.793  0.0516  2.9684 -3.7914
   79SLPC   H8S 7274   6.611   4.303   4.858 -0.3739 -0.5542 -0.4793
   79SLPC   C29 7275   6.594   4.494   4.746 -0.0796  0.2281 -0.4324
   79SLPC   H9R 7276   6.523   4.578   4.742 -2.2314 -1.4996 -0.4374
   79SLPC  C210 7277   6.690   4.478   4.654  0.1601 -0.5584 -0.2854
   79SLPC  H10R 7278   6.720   4.570   4.601  0.1113 -0.2230  0.2615
   79SLPC  C211 7279   6.765   4.350   4.621  0.2966 -0.3843 -0.2359
   79SLPC  H11R 7280   6.775   4.287   4.711 -1.6709  0.6292  0.7709
   79SLPC  H11S 7281   6.869   4.373   4.589 -0.0054  1.9021  0.2363
   79SLPC  C212 7282   6.682   4.286   4.514  0.2333 -0.7525  0.9756
   79SLPC  H12R 7283   6.579   4.253   4.533 -0.6382  1.0029 -0.4108
   79SLPC  C213 7284   6.711   4.279   4.383 -0.6185 -0.0064 -0.0018
   79SLPC  H13R 7285   6.636   4.241   4.312 -2.0990  1.5931  0.6504
   79SLPC  C214 7286   6.842   4.321   4.324  0.0122 -0.2287  0.2924
   79SLPC  H14R 7287   6.897   4.236   4.276 -1.5906 -0.6745 -0.8369
   79SLPC  H14S 7288   6.917   4.351   4.400  0.4336 -0.4547 -0.0267
   79SLPC  C215 7289   6.844   4.440   4.225  0.7274  0.1203  0.6760
   79SLPC  H15R 7290   6.762   4.422   4.153  1.3142 -0.3273  0.1155
   79SLPC  H15S 7291   6.934   4.430   4.161 -1.5785 -4.2908 -2.3970
   79SLPC  C216 7292   6.817   4.570   4.296  0.0849 -0.3285  0.3234
   79SLPC  H16R 7293   6.726   4.560   4.358  0.5566  1.3370  1.3485
   79SLPC  H16S 7294   6.783   4.639   4.216  0.0006  0.7611  1.2736
   79SLPC  C217 7295   6.940   4.640   4.365  0.3192 -0.2086  0.7128
   79SLPC  H17R 7296   7.019   4.632   4.287 -1.1347 -1.7885 -0.6850
   79SLPC  H17S 7297   6.974   4.574   4.447  5.8419  1.5226  0.2471
   79SLPC  C218 7298   6.922   4.780   4.427 -0.0732 -0.0172  0.7555
   79SLPC  H18R 7299   6.822   4.801   4.472 -0.9463  0.4936 -1.3092
   79SLPC  H18S 7300   6.942   4.858   4.350 -1.7111  1.1399  1.4360
   79SLPC  H18T 7301   7.001   4.795   4.504  0.1072 -0.9511  0.7645
   79SLPC   C33 7302   6.940   4.242   5.275  1.1510  0.6143 -0.3241
   79SLPC   H3X 7303   7.034   4.196   5.312  0.7731 -0.9629 -1.2095
   79SLPC   H3Y 7304   6.969   4.303   5.186  1.6314  1.3451  0.3225
   79SLPC   C34 7305   6.846   4.135   5.225 -0.6037  0.0296 -0.1076
   79SLPC   H4X 7306   6.750   4.176   5.187 -0.7697  1.0806  1.3696
   79SLPC   H4Y 7307   6.817   4.061   5.302 -0.8535  1.3379  1.0967
   79SLPC   C35 7308   6.909   4.057   5.111 -0.7536 -0.3281  0.3041
   79SLPC   H5X 7309   6.878   3.950   5.106  1.0079 -0.8132 -1.3130
   79SLPC   H5Y 7310   7.017   4.049   5.133 -0.8453  0.7084  1.2078
   79SLPC   C36 7311   6.883   4.122   4.973  0.0529 -0.2895 -0.1938
   79SLPC   H6X 7312   6.914   4.228   4.984 -0.3472 -0.4476  4.8097
   79SLPC   H6Y 7313   6.774   4.117   4.950  0.0914 -0.7865 -0.2936
   79SLPC   C37 7314   6.967   4.056   4.860 -0.8909 -0.0035 -0.8250
   79SLPC   H7X 7315   7.061   4.006   4.893  0.1573  1.4523 -1.4644
   79SLPC   H7Y 7316   7.009   4.138   4.798 -0.5029  1.6284  1.4852
   79SLPC   C38 7317   6.879   3.973   4.773  0.1924  0.0050  0.2764
   79SLPC   H8X 7318   6.807   4.041   4.722  1.2080 -0.2990 -1.6232
   79SLPC   H8Y 7319   6.826   3.900   4.838 -2.3299  1.2304 -0.2707
   79SLPC   C39 7320   6.943   3.899   4.653  0.1082  0.3571  0.2889
   79SLPC   H9X 7321   6.865   3.848   4.593  0.9687 -1.7348  0.8327
   79SLPC   H9Y 7322   7.003   3.817   4.699 -0.4325 -0.6766 -0.8041
   79SLPC  C310 7323   7.024   3.991   4.564  0.3457 -0.1023 -0.3213
   79SLPC  H10X 7324   7.115   4.025   4.618  1.1388 -2.7506  0.1741
   79SLPC  H10Y 7325   6.973   4.089   4.556 -0.6788 -0.6326 -0.4382
   79SLPC  C311 7326   7.042   3.939   4.421  0.5346 -0.2749 -0.5394
   79SLPC  H11X 7327   6.969   3.974   4.345  0.5281  1.6920  0.3075
   79SLPC  H11Y 7328   7.041   3.828   4.426  0.6175 -0.2127  2.8154
   79SLPC  C312 7329   7.180   3.974   4.367  0.5787 -0.1607 -0.1329
   79SLPC  H12X 7330   7.271   3.964   4.430  1.7539  1.3270 -1.4895
   79SLPC  H12Y 7331   7.164   4.081   4.338 -0.7017  0.0944  1.3967
   79SLPC  C313 7332   7.210   3.892   4.236  0.4863 -0.1937 -0.1354
   79SLPC  H13X 7333   7.116   3.856   4.189 -0.4250 -1.6573  2.6108
   79SLPC  H13Y 7334   7.266   3.804   4.273 -0.7659 -0.6006  0.8275
   79SLPC  C314 7335   7.299   3.972   4.139 -0.5104 -0.2853 -0.1604
   79SLPC  H14X 7336   7.278   4.081   4.148 -1.9446 -0.6942  2.4616
   79SLPC  H14Y 7337   7.288   3.924   4.040  0.6498  0.2958 -0.5850
   79SLPC  C315 7338   7.454   3.959   4.163  0.2698  0.6815  0.5099
   79SLPC  H15X 7339   7.464   3.851   4.188 -0.5262 -0.3309 -3.0187
   79SLPC  H15Y 7340   7.494   4.016   4.250 -0.7097 -1.5783  2.5440
   79SLPC  C316 7341   7.538   3.971   4.036  0.1852  0.1868  0.1607
   79SLPC  H16X 7342   7.488   3.919   3.952  2.5291  0.5634 -1.5702
   79SLPC  H16Y 7343   7.627   3.906   4.052 -1.3183 -2.3160 -0.9854
   79SLPC  C317 7344   7.577   4.109   3.994  0.3009 -0.2950  0.1455
   79SLPC  H17X 7345   7.628   4.174   4.069  1.0667 -0.4224 -0.2492
   79SLPC  H17Y 7346   7.484   4.167   3.978 -0.6419 -2.0839 -1.2385
   79SLPC  C318 7347   7.663   4.124   3.867  0.4148 -0.3867  0.2669
   79SLPC  H18X 7348   7.604   4.099   3.775  2.9870 -2.6483 -0.9011
   79SLPC  H18Y 7349   7.749   4.055   3.861  0.6876  0.0103 -0.5557
   79SLPC  H18Z 7350   7.697   4.230   3.862  1.6260 -0.8107 -1.1856
   80SLPC     N 7351   6.066   0.148   6.574  0.1965 -0.5696  0.0590
   80SLPC   C13 7352   5.968   0.222   6.658 -0.4559  0.2634 -0.1624
   80SLPC  H13A 7353   5.994   0.326   6.667 -0.4067  0.2953 -0.6973
   80SLPC  H13B 7354   5.864   0.215   6.629 -0.1832  1.3251 -1.4902
   80SLPC  H13C 7355   5.983   0.182   6.758  0.0152 -0.1509 -0.3935
   80SLPC   C14 7356   6.019   0.006   6.571  0.8196  0.6250  0.5440
   80SLPC  H14A 7357   6.077  -0.049   6.497  0.3345  1.4191 -0.4470
   80SLPC  H14B 7358   6.025  -0.045   6.666 -1.3949  0.6446  0.7480
   80SLPC  H14C 7359   5.921  -0.016   6.531  1.3167  0.4687 -0.6425
   80SLPC   C15 7360   6.204   0.151   6.628 -0.2571 -0.6033  0.4823
   80SLPC  H15A 7361   6.238   0.253   6.645  1.1110 -1.1560  1.2394
   80SLPC  H15B 7362   6.223   0.091   6.716 -1.8267 -1.1007  0.5043
   80SLPC  H15C 7363   6.271   0.110   6.555  1.1912  1.7970  0.3349
   80SLPC   C12 7364   6.065   0.212   6.433 -0.0959  0.3374  0.1122
   80SLPC  H12A 7365   6.142   0.169   6.370  0.4566  2.2627 -0.6360
   80SLPC  H12B 7366   6.101   0.312   6.455 -2.2670  1.5731 -1.5410
   80SLPC   C11 7367   5.928   0.228   6.367  0.0613 -0.4222 -0.0462
   80SLPC  H11A 7368   5.874   0.133   6.387  1.1406 -0.6248  2.2296
   80SLPC  H11B 7369   5.931   0.233   6.256 -2.2458 -0.9445 -0.1848
   80SLPC     P 7370   5.879   0.484   6.378 -0.1048  0.0114 -0.1088
   80SLPC   O13 7371   5.786   0.576   6.448 -0.3421  0.4608  0.8015
   80SLPC   O14 7372   6.020   0.524   6.380 -0.3170 -0.4441  0.0604
   80SLPC   O12 7373   5.847   0.336   6.422 -0.2333  0.1561  0.7726
   80SLPC   O11 7374   5.851   0.460   6.220 -0.0527 -0.2438 -0.3351
   80SLPC    C1 7375   5.718   0.423   6.188 -0.2368 -0.0955  0.7878
   80SLPC    HA 7376   5.688   0.325   6.233  0.2691 -1.1697 -1.1118
   80SLPC    HB 7377   5.656   0.503   6.233  1.8974  0.0538  3.7946
   80SLPC    C2 7378   5.698   0.401   6.038 -0.5058 -0.2212  0.4340
   80SLPC    HS 7379   5.601   0.349   6.024 -0.6910 -0.0045  0.8809
   80SLPC   O21 7380   5.808   0.318   5.982  0.5115  0.1517  0.1896
   80SLPC   C21 7381   5.815   0.191   6.010  0.2694 -0.0535  0.0618
   80SLPC   O22 7382   5.743   0.135   6.089 -0.3074  0.1566  0.1684
   80SLPC   C22 7383   5.925   0.127   5.917  0.4065  0.0198 -0.0630
   80SLPC   H2R 7384   5.979   0.212   5.870 -0.5007  0.7761  0.2159
   80SLPC   H2S 7385   5.993   0.082   5.992  1.6919  0.4646 -0.9299
   80SLPC    C3 7386   5.701   0.541   5.966 -0.6202 -0.3023  0.6107
   80SLPC    HX 7387   5.794   0.592   6.001  1.0791 -2.3767 -0.6433
   80SLPC    HY 7388   5.625   0.612   6.005 -0.0540  0.9886 -0.5390
   80SLPC   O31 7389   5.701   0.546   5.825 -0.2233  0.3294 -0.7484
   80SLPC   C31 7390   5.603   0.502   5.758  0.3020 -0.2125 -0.4197
   80SLPC   O32 7391   5.497   0.458   5.807 -0.6406 -0.2622  0.1966
   80SLPC   C32 7392   5.630   0.521   5.611  0.1380 -0.7115  0.2237
   80SLPC   H2X 7393   5.694   0.438   5.574  1.0803 -0.3482  0.9957
   80SLPC   H2Y 7394   5.693   0.611   5.597 -0.5556  0.0034  1.5172
   80SLPC   C23 7395   5.872   0.024   5.810 -0.8911 -0.3169 -0.0841
   80SLPC   H3R 7396   5.802  -0.045   5.862 -2.0061  0.6599 -0.2284
   80SLPC   H3S 7397   5.959  -0.038   5.781 -0.4701  0.0527  0.3701
   80SLPC   C24 7398   5.811   0.077   5.684  0.4264  0.1014 -0.6054
   80SLPC   H4R 7399   5.795  -0.008   5.615 -0.6805 -1.3535  1.3221
   80SLPC   H4S 7400   5.864   0.165   5.642 -0.5913  0.4095 -1.2650
   80SLPC   C25 7401   5.656   0.110   5.710  0.0889  0.7929  0.9037
   80SLPC   H5R 7402   5.643   0.211   5.755  2.6928  0.9600  1.4181
   80SLPC   H5S 7403   5.614   0.037   5.783  3.9032 -0.3517  2.1579
   80SLPC   C26 7404   5.575   0.105   5.578  0.2972  0.2200 -0.4527
   80SLPC   H6R 7405   5.607   0.029   5.504  2.8166 -0.2626  1.0165
   80SLPC   H6S 7406   5.591   0.204   5.528  0.4381  0.5286  0.1960
   80SLPC   C27 7407   5.420   0.096   5.609  0.1470  0.4376 -0.3932
   80SLPC   H7R 7408   5.403   0.151   5.704  3.6179  0.8567  0.1252
   80SLPC   H7S 7409   5.403  -0.012   5.629 -0.6790  0.8961  1.6669
   80SLPC   C28 7410   5.335   0.163   5.499  0.2193  0.9477  0.2568
   80SLPC   H8R 7411   5.363   0.109   5.406 -0.5689  0.7988  0.0962
   80SLPC   H8S 7412   5.369   0.266   5.475 -0.0412  0.3634 -3.0210
   80SLPC   C29 7413   5.187   0.165   5.508  0.5566 -0.6691 -0.3145
   80SLPC   H9R 7414   5.155   0.210   5.603 -1.8450 -1.9142 -0.4597
   80SLPC  C210 7415   5.090   0.118   5.428 -0.1787  0.9505 -0.0887
   80SLPC  H10R 7416   4.989   0.121   5.471  0.2561 -0.0143  1.0564
   80SLPC  C211 7417   5.111   0.034   5.301  0.1464 -0.0147 -0.3353
   80SLPC  H11R 7418   5.206  -0.021   5.317 -0.3980 -0.4698  1.4892
   80SLPC  H11S 7419   5.131   0.108   5.220  1.3563 -1.3533 -1.2981
   80SLPC  C212 7420   5.002  -0.051   5.252  0.4039 -0.1250 -0.3079
   80SLPC  H12R 7421   5.013  -0.154   5.286 -2.6374  0.1038  1.8051
   80SLPC  C213 7422   4.898  -0.016   5.175 -0.7423 -0.4414  0.4186
   80SLPC  H13R 7423   4.823  -0.095   5.159 -0.3212 -0.9250  0.8240
   80SLPC  C214 7424   4.867   0.118   5.131 -0.1236  0.2395  0.6228
   80SLPC  H14R 7425   4.930   0.188   5.190 -1.1004 -0.7360  2.9334
   80SLPC  H14S 7426   4.762   0.144   5.155 -1.2440 -3.7587  0.7966
   80SLPC  C215 7427   4.889   0.135   4.982 -0.1505 -0.4835 -0.3989
   80SLPC  H15R 7428   4.993   0.115   4.947  0.3534 -0.6758  1.1173
   80SLPC  H15S 7429   4.878   0.243   4.958  1.3838 -0.2408 -0.1727
   80SLPC  C216 7430   4.800   0.056   4.890 -0.1542 -0.2146 -0.2435
   80SLPC  H16R 7431   4.692   0.084   4.895 -0.6818 -2.0487 -0.6172
   80SLPC  H16S 7432   4.803  -0.054   4.907  1.4072 -0.5386 -2.2970
   80SLPC  C217 7433   4.826   0.060   4.746  0.4238  0.2186  0.0208
   80SLPC  H17R 7434   4.928   0.023   4.724  0.4759  0.8426 -0.8491
   80SLPC  H17S 7435   4.828   0.166   4.712 -0.0381 -0.4563 -2.2632
   80SLPC  C218 7436   4.723  -0.017   4.654 -0.1381 -0.4709  0.3034
   80SLPC  H18R 7437   4.747   0.002   4.548 -0.1821  0.0659  0.3855
   80SLPC  H18S 7438   4.622   0.029   4.668  1.1215  2.5598  0.1336
   80SLPC  H18T 7439   4.732  -0.126   4.674  1.4699 -0.3930  0.1377
   80SLPC   C33 7440   5.506   0.534   5.521  0.4913 -0.0125 -0.0947
   80SLPC   H3X 7441   5.435   0.612   5.556  0.3686  0.0494 -0.4714
   80SLPC   H3Y 7442   5.451   0.438   5.528 -0.9574  0.6038 -1.9764
   80SLPC   C34 7443   5.541   0.569   5.368 -0.0945  0.5154 -0.4049
   80SLPC   H4X 7444   5.616   0.650   5.365  1.3261 -0.7915 -2.0977
   80SLPC   H4Y 7445   5.448   0.606   5.319  0.1768  1.0238 -0.5337
   80SLPC   C35 7446   5.604   0.448   5.291  0.4706  0.5023 -0.6711
   80SLPC   H5X 7447   5.529   0.366   5.293 -0.0691  0.9132 -2.2402
   80SLPC   H5Y 7448   5.699   0.420   5.341 -0.9593 -0.6193  1.5997
   80SLPC   C36 7449   5.623   0.463   5.140  0.8011  0.2678 -0.0461
   80SLPC   H6X 7450   5.670   0.369   5.105 -0.2895 -0.3505  0.1243
   80SLPC   H6Y 7451   5.685   0.553   5.117  0.6127  0.4670  0.2050
   80SLPC   C37 7452   5.486   0.476   5.066  0.6548 -0.2595 -0.2531
   80SLPC   H7X 7453   5.415   0.544   5.118  0.6213  0.1090 -0.7680
   80SLPC   H7Y 7454   5.448   0.371   5.063  2.2771 -0.8789 -3.3050
   80SLPC   C38 7455   5.505   0.520   4.923 -0.4457 -0.2369  0.1039
   80SLPC   H8X 7456   5.596   0.478   4.877 -1.7658 -1.8224 -1.1411
   80SLPC   H8Y 7457   5.522   0.630   4.933 -1.9627  0.0197  0.1385
   80SLPC   C39 7458   5.381   0.501   4.833 -0.2558 -0.1863  0.1468
   80SLPC   H9X 7459   5.291   0.560   4.859  0.2467  0.4153  0.5438
   80SLPC   H9Y 7460   5.346   0.398   4.853  1.4098 -0.7902  0.1110
   80SLPC  C310 7461   5.422   0.511   4.687  0.2859  0.2454 -0.2262
   80SLPC  H10X 7462   5.475   0.416   4.665  1.3293  0.6452  0.4999
   80SLPC  H10Y 7463   5.499   0.590   4.676  0.1746  0.3141 -0.5248
   80SLPC  C311 7464   5.303   0.561   4.593 -0.2551  0.0612  0.5207
   80SLPC  H11X 7465   5.288   0.669   4.613 -0.2695  0.3732 -1.1168
   80SLPC  H11Y 7466   5.208   0.514   4.625  0.7229 -0.0678  3.6143
   80SLPC  C312 7467   5.334   0.546   4.445 -0.2644  0.3044  0.0596
   80SLPC  H12X 7468   5.387   0.450   4.429  0.5035  0.7036  0.1865
   80SLPC  H12Y 7469   5.408   0.624   4.417  2.1918 -1.6825  0.6648
   80SLPC  C313 7470   5.214   0.564   4.360  0.0723 -0.0049 -0.4687
   80SLPC  H13X 7471   5.178   0.668   4.378  2.0031  0.7006 -0.3551
   80SLPC  H13Y 7472   5.134   0.497   4.397 -0.8205  1.2723  0.0094
   80SLPC  C314 7473   5.243   0.554   4.216  0.5113 -0.1725  0.4439
   80SLPC  H14X 7474   5.260   0.446   4.193 -0.9517 -0.1471 -0.9686
   80SLPC  H14Y 7475   5.334   0.607   4.183  1.6245 -1.6820  0.9546
   80SLPC  C315 7476   5.118   0.599   4.133  0.1211 -0.2820  0.3029
   80SLPC  H15X 7477   5.136   0.706   4.107 -1.3825  0.2354  1.2646
   80SLPC  H15Y 7478   5.033   0.601   4.205  0.6798  2.1077  0.9867
   80SLPC  C316 7479   5.090   0.505   4.016 -0.2347 -0.0623 -0.8609
   80SLPC  H16X 7480   5.079   0.402   4.057  0.5783 -0.0002 -0.4679
   80SLPC  H16Y 7481   5.171   0.497   3.939  0.6459 -1.5299  0.1776
   80SLPC  C317 7482   4.956   0.545   3.953 -0.0084 -0.8928  0.5010
   80SLPC  H17X 7483   4.884   0.560   4.035  0.0951 -0.5328  0.5289
   80SLPC  H17Y 7484   4.918   0.468   3.883 -2.0233  0.4741  0.0134
   80SLPC  C318 7485   4.975   0.667   3.865 -0.1692  0.3360  0.7567
   80SLPC  H18X 7486   5.016   0.751   3.924 -0.7488  0.3023  1.2106
   80SLPC  H18Y 7487   4.876   0.702   3.831 -1.1307 -2.2807  0.6414
   80SLPC  H18Z 7488   5.045   0.646   3.781 -2.8905 -1.1662 -1.3127
   81SLPC     N 7489   3.928   4.369   1.464  0.2292  0.2573 -0.1766
   81SLPC   C13 7490   4.075   4.352   1.466 -0.2044 -0.3863  0.5208
   81SLPC  H13A 7491   4.099   4.250   1.492 -0.8816 -0.8170 -0.4525
   81SLPC  H13B 7492   4.114   4.358   1.365  2.4822 -4.2445  1.1087
   81SLPC  H13C 7493   4.128   4.424   1.527  0.0613  1.6787 -1.9222
   81SLPC   C14 7494   3.886   4.280   1.354  0.5941 -0.1312  0.2482
   81SLPC  H14A 7495   3.901   4.178   1.386 -0.9585  0.0257  1.6533
   81SLPC  H14B 7496   3.781   4.297   1.332  0.5701  0.8904  1.0677
   81SLPC  H14C 7497   3.942   4.298   1.264  1.4381  0.3035  0.8406
   81SLPC   C15 7498   3.900   4.512   1.431  0.3704  0.3371 -0.2638
   81SLPC  H15A 7499   3.796   4.543   1.434  0.3016  0.1464 -0.5561
   81SLPC  H15B 7500   3.947   4.577   1.502  0.1568  1.3472 -1.0188
   81SLPC  H15C 7501   3.946   4.537   1.336  1.8239  1.9588  0.8271
   81SLPC   C12 7502   3.861   4.333   1.596 -0.1383 -0.9294 -0.2230
   81SLPC  H12A 7503   3.756   4.358   1.600 -0.7567 -2.8509 -2.1126
   81SLPC  H12B 7504   3.913   4.381   1.677  1.6907 -0.1118 -1.8029
   81SLPC   C11 7505   3.867   4.185   1.631 -0.4921  0.1919  0.1719
   81SLPC  H11A 7506   3.832   4.113   1.553 -2.2094 -1.2562  2.1691
   81SLPC  H11B 7507   3.802   4.163   1.718  1.2392  0.7161  1.6716
   81SLPC     P 7508   4.061   4.216   1.800 -0.1872  0.1283  0.0258
   81SLPC   O13 7509   4.196   4.274   1.765  0.3276 -0.1538  0.1682
   81SLPC   O14 7510   3.967   4.313   1.859  0.3589  0.0473  0.1264
   81SLPC   O12 7511   3.997   4.148   1.675 -0.2487 -0.2537  0.3811
   81SLPC   O11 7512   4.085   4.097   1.897 -0.4698 -0.2007  0.0393
   81SLPC    C1 7513   4.007   3.979   1.898  0.7727  0.2369 -0.5216
   81SLPC    HA 7514   3.979   3.937   1.799 -1.5070  0.7799 -0.1686
   81SLPC    HB 7515   4.070   3.906   1.953  0.7179 -0.2789 -1.1382
   81SLPC    C2 7516   3.883   4.002   1.988  0.4357 -0.0456 -0.7943
   81SLPC    HS 7517   3.822   4.068   1.922  1.2303  2.2337  0.6126
   81SLPC   O21 7518   3.914   4.070   2.115 -0.4395  0.1294  0.3869
   81SLPC   C21 7519   3.813   4.109   2.194  0.5983  0.0742  0.1370
   81SLPC   O22 7520   3.697   4.106   2.163  0.7756 -0.2500  0.3715
   81SLPC   C22 7521   3.876   4.151   2.326 -0.5341  0.4524  0.2973
   81SLPC   H2R 7522   3.947   4.069   2.348 -1.1905 -0.0261  0.6796
   81SLPC   H2S 7523   3.936   4.243   2.309  0.6343 -0.5390 -1.2571
   81SLPC    C3 7524   3.810   3.862   2.003  1.0251 -0.4556 -0.0258
   81SLPC    HX 7525   3.782   3.831   1.900  0.3947  0.9629 -0.3137
   81SLPC    HY 7526   3.710   3.877   2.048  0.2199  0.7547 -2.0792
   81SLPC   O31 7527   3.886   3.756   2.063 -0.0371  0.4357 -0.3819
   81SLPC   C31 7528   3.862   3.740   2.187 -0.3573 -0.1964 -0.1200
   81SLPC   O32 7529   3.771   3.790   2.251 -0.6816 -1.0374  0.0669
   81SLPC   C32 7530   3.971   3.649   2.241  0.6351  0.4655  0.2259
   81SLPC   H2X 7531   4.074   3.686   2.223  0.2098  1.5457 -0.0673
   81SLPC   H2Y 7532   3.977   3.553   2.184  2.5482  1.7747 -1.9744
   81SLPC   C23 7533   3.775   4.185   2.436 -0.4025  0.6472  0.1165
   81SLPC   H3R 7534   3.702   4.102   2.444 -0.8902  1.0752  0.1329
   81SLPC   H3S 7535   3.726   4.284   2.422 -1.6999  0.1553  0.9821
   81SLPC   C24 7536   3.838   4.186   2.575  1.1706  0.0297  0.2982
   81SLPC   H4R 7537   3.896   4.095   2.603 -0.6842 -0.6539  2.2195
   81SLPC   H4S 7538   3.751   4.175   2.644 -0.1561 -1.3683 -1.4922
   81SLPC   C25 7539   3.921   4.304   2.618  0.5467 -0.5381 -0.9257
   81SLPC   H5R 7540   3.874   4.403   2.601 -0.2354 -0.3055  1.9649
   81SLPC   H5S 7541   4.010   4.300   2.552  0.5655  2.3166 -1.1994
   81SLPC   C26 7542   3.960   4.295   2.775 -0.2481  0.7321  0.2465
   81SLPC   H6R 7543   3.876   4.290   2.847 -0.1293  1.5275  0.4582
   81SLPC   H6S 7544   4.015   4.388   2.803 -0.9953  0.6599  2.0849
   81SLPC   C27 7545   4.054   4.177   2.803  0.5101  0.5625  0.6599
   81SLPC   H7R 7546   4.148   4.186   2.744  1.3353 -3.2760  1.1336
   81SLPC   H7S 7547   3.999   4.092   2.759  2.9085 -0.3054 -0.8926
   81SLPC   C28 7548   4.082   4.136   2.943 -0.1684  0.4347 -0.6577
   81SLPC   H8R 7549   4.146   4.045   2.939 -0.3475  0.2659  0.0538
   81SLPC   H8S 7550   3.983   4.124   2.993 -1.5647  1.0934 -3.1104
   81SLPC   C29 7551   4.162   4.236   3.023  0.2172 -0.5882 -0.8316
   81SLPC   H9R 7552   4.166   4.337   2.979 -0.6513 -1.3274 -2.7150
   81SLPC  C210 7553   4.212   4.214   3.144  0.2089 -0.9101  0.0682
   81SLPC  H10R 7554   4.271   4.291   3.196 -1.2565  0.1912  0.1731
   81SLPC  C211 7555   4.197   4.098   3.228  0.3420 -0.3764  0.1420
   81SLPC  H11R 7556   4.159   4.010   3.171  0.7520  0.1051 -0.8976
   81SLPC  H11S 7557   4.119   4.115   3.306  1.0623  1.4177  0.5124
   81SLPC  C212 7558   4.327   4.052   3.288 -0.0340 -0.1822  0.0117
   81SLPC  H12R 7559   4.374   3.977   3.222 -1.1189 -0.7832 -0.1110
   81SLPC  C213 7560   4.369   4.061   3.420  0.4177 -0.7098 -0.3511
   81SLPC  H13R 7561   4.472   4.026   3.434  0.2429 -0.4135  2.2452
   81SLPC  C214 7562   4.298   4.124   3.535  0.0778  0.3567  0.1636
   81SLPC  H14R 7563   4.276   4.045   3.610 -2.3151 -0.7284 -1.5608
   81SLPC  H14S 7564   4.206   4.177   3.502 -1.1299  0.8305  3.7742
   81SLPC  C215 7565   4.393   4.228   3.590  0.1309 -0.4932  0.0198
   81SLPC  H15R 7566   4.331   4.287   3.661 -0.8919 -2.1258  0.5336
   81SLPC  H15S 7567   4.407   4.299   3.506 -0.8221  0.0688  0.3148
   81SLPC  C216 7568   4.529   4.174   3.637 -0.8976  0.0337 -0.0760
   81SLPC  H16R 7569   4.595   4.137   3.556  0.7818  0.7822  0.8905
   81SLPC  H16S 7570   4.504   4.091   3.707 -2.1035 -1.6528 -2.3876
   81SLPC  C217 7571   4.615   4.288   3.706 -0.0472  0.0995 -0.1168
   81SLPC  H17R 7572   4.686   4.231   3.769 -0.6339  1.3705  1.7671
   81SLPC  H17S 7573   4.538   4.337   3.769  0.6627  2.0012 -0.6416
   81SLPC  C218 7574   4.679   4.394   3.615  0.1926  0.1595 -1.1633
   81SLPC  H18R 7575   4.758   4.450   3.670  1.6130 -1.1614 -1.7978
   81SLPC  H18S 7576   4.599   4.467   3.588 -2.2080 -2.0229 -0.3238
   81SLPC  H18T 7577   4.734   4.342   3.534  1.2560 -2.5202  1.1305
   81SLPC   C33 7578   3.958   3.619   2.394 -0.7693  0.2995 -0.1484
   81SLPC   H3X 7579   3.856   3.579   2.416 -0.6547  0.0243 -0.1088
   81SLPC   H3Y 7580   3.965   3.717   2.445 -1.8121  0.8841 -1.0828
   81SLPC   C34 7581   4.053   3.515   2.452  0.1913  0.6370  0.0323
   81SLPC   H4X 7582   4.154   3.561   2.455  0.2902  0.4722  4.2569
   81SLPC   H4Y 7583   4.048   3.424   2.388  1.2052  0.0423  0.7705
   81SLPC   C35 7584   4.015   3.471   2.589 -0.1591  0.5666 -0.1766
   81SLPC   H5X 7585   4.094   3.404   2.630  1.2449  2.3602  0.1728
   81SLPC   H5Y 7586   3.921   3.412   2.599  2.3103 -3.9535 -0.9393
   81SLPC   C36 7587   4.001   3.588   2.691  0.2933 -0.0896  0.0428
   81SLPC   H6X 7588   3.902   3.633   2.667 -1.1708 -1.8197  2.3761
   81SLPC   H6Y 7589   4.077   3.666   2.671  1.0443 -0.8136  0.0324
   81SLPC   C37 7590   4.019   3.555   2.836  0.6129 -0.5365 -0.5859
   81SLPC   H7X 7591   4.016   3.644   2.903 -0.1395 -0.7393 -0.3445
   81SLPC   H7Y 7592   4.115   3.500   2.846  0.6352 -0.4861 -0.5226
   81SLPC   C38 7593   3.909   3.470   2.891  0.5025  0.1107  0.6256
   81SLPC   H8X 7594   3.887   3.386   2.821  0.0467  0.9762 -0.2981
   81SLPC   H8Y 7595   3.808   3.517   2.884  0.8453  0.7903  0.1147
   81SLPC   C39 7596   3.938   3.431   3.031 -0.8703 -0.1245  0.7345
   81SLPC   H9X 7597   3.944   3.524   3.091 -0.2958 -0.3243  0.9907
   81SLPC   H9Y 7598   4.035   3.378   3.026 -0.3964  0.6163  1.8758
   81SLPC  C310 7599   3.837   3.336   3.099  0.2036  0.6335 -0.2657
   81SLPC  H10X 7600   3.878   3.238   3.066 -0.2972  0.3309 -0.0016
   81SLPC  H10Y 7601   3.733   3.343   3.062  0.8108  3.6346 -1.6394
   81SLPC  C311 7602   3.843   3.353   3.255  0.3722 -0.6373 -0.1456
   81SLPC  H11X 7603   3.804   3.456   3.268 -1.4805 -1.2299 -0.7155
   81SLPC  H11Y 7604   3.951   3.352   3.281  0.0587 -0.8386  1.2263
   81SLPC  C312 7605   3.756   3.259   3.340 -0.2038 -0.4134  0.8107
   81SLPC  H12X 7606   3.758   3.156   3.298 -0.2702 -1.1558  2.5159
   81SLPC  H12Y 7607   3.666   3.316   3.308  1.8370  1.8719 -1.3304
   81SLPC  C313 7608   3.774   3.273   3.492  0.1253  0.1416 -0.3869
   81SLPC  H13X 7609   3.754   3.375   3.530  2.7480  0.3168  0.7212
   81SLPC  H13Y 7610   3.883   3.251   3.501 -0.0070  0.2422  2.1760
   81SLPC  C314 7611   3.688   3.177   3.583 -0.2254 -0.0397  1.1070
   81SLPC  H14X 7612   3.682   3.081   3.528  0.0712  1.3803 -1.5886
   81SLPC  H14Y 7613   3.588   3.226   3.583  0.6807  2.0602 -1.0486
   81SLPC  C315 7614   3.742   3.142   3.721 -0.7258 -0.4910  0.2179
   81SLPC  H15X 7615   3.769   3.233   3.778  0.6193 -0.9719  0.3889
   81SLPC  H15Y 7616   3.840   3.089   3.723  0.0482  0.8588 -0.3656
   81SLPC  C316 7617   3.649   3.055   3.812  0.3530  0.0707  0.3584
   81SLPC  H16X 7618   3.696   3.068   3.912 -0.3426  2.7271  0.4242
   81SLPC  H16Y 7619   3.681   2.952   3.785  1.6873  0.1061  1.6653
   81SLPC  C317 7620   3.499   3.080   3.818  0.7197 -0.1887  0.2975
   81SLPC  H17X 7621   3.450   2.998   3.874  0.0308  0.5887  0.8595
   81SLPC  H17Y 7622   3.463   3.067   3.714  0.4304  1.2198  0.1987
   81SLPC  C318 7623   3.447   3.214   3.883  0.1052 -0.8403  0.0829
   81SLPC  H18X 7624   3.482   3.219   3.988 -2.8378  1.5101  1.0985
   81SLPC  H18Y 7625   3.336   3.220   3.882 -0.2292 -4.3917  0.3474
   81SLPC  H18Z 7626   3.487   3.301   3.827  1.5312 -1.1135  0.6367
   82SLPC     N 7627   3.039   3.319   1.843  0.5084 -0.9110  0.1744
   82SLPC   C13 7628   2.934   3.251   1.759  0.1321  0.1821 -0.6000
   82SLPC  H13A 7629   2.839   3.297   1.781  1.6678  2.5090  1.7753
   82SLPC  H13B 7630   2.941   3.265   1.652 -0.3371 -0.0189 -0.6587
   82SLPC  H13C 7631   2.933   3.145   1.779  1.3147  0.2845  0.0634
   82SLPC   C14 7632   3.034   3.464   1.840 -1.0476  0.6069 -0.3529
   82SLPC  H14A 7633   3.053   3.504   1.742  0.4576  1.5986  0.3072
   82SLPC  H14B 7634   2.939   3.503   1.874 -1.1831  0.8304 -0.9685
   82SLPC  H14C 7635   3.108   3.511   1.903  0.2158  0.7803 -1.9171
   82SLPC   C15 7636   3.170   3.280   1.780 -0.6438  0.0715 -0.6571
   82SLPC  H15A 7637   3.170   3.322   1.680 -1.2225 -0.9048 -1.0742
   82SLPC  H15B 7638   3.252   3.321   1.837  0.1373 -1.1102 -0.8968
   82SLPC  H15C 7639   3.173   3.173   1.774 -0.2189  0.0803 -0.6533
   82SLPC   C12 7640   3.026   3.278   1.989 -0.2222 -0.4278  0.1255
   82SLPC  H12A 7641   3.007   3.172   1.985 -1.9365 -0.1214 -1.2511
   82SLPC  H12B 7642   2.937   3.315   2.038 -0.2484  0.7415 -0.7501
   82SLPC   C11 7643   3.137   3.317   2.081 -0.2325  0.2147 -0.7409
   82SLPC  H11A 7644   3.232   3.288   2.031 -0.3432  0.5868 -1.1818
   82SLPC  H11B 7645   3.130   3.254   2.172  1.0393 -0.2496 -0.9498
   82SLPC     P 7646   3.058   3.519   2.232 -0.2590  0.3517  0.1605
   82SLPC   O13 7647   3.120   3.653   2.272 -0.2484  0.0057  0.7888
   82SLPC   O14 7648   2.917   3.517   2.194 -0.4705  0.4292 -0.0873
   82SLPC   O12 7649   3.145   3.456   2.112 -0.0157  0.1959 -0.3119
   82SLPC   O11 7650   3.079   3.412   2.342 -0.3843  0.0266 -0.1405
   82SLPC    C1 7651   2.981   3.388   2.445  0.1141  0.4148  0.2149
   82SLPC    HA 7652   2.926   3.481   2.471  0.1800  0.6729 -0.5444
   82SLPC    HB 7653   2.911   3.310   2.407  1.8384 -1.1778  0.1244
   82SLPC    C2 7654   3.044   3.348   2.582  0.0575 -0.0722  0.2943
   82SLPC    HS 7655   3.114   3.262   2.575  1.1941  0.5414  2.8861
   82SLPC   O21 7656   2.938   3.328   2.682 -0.0576  0.0170  0.1487
   82SLPC   C21 7657   2.979   3.261   2.788  0.1831 -0.2534  0.2452
   82SLPC   O22 7658   3.093   3.237   2.818  0.2784  0.1074 -0.3070
   82SLPC   C22 7659   2.859   3.225   2.878  0.8261  0.0015  0.4210
   82SLPC   H2R 7660   2.788   3.176   2.807 -1.7299  1.9697  1.4620
   82SLPC   H2S 7661   2.897   3.157   2.957  2.5864  0.1824 -0.2207
   82SLPC    C3 7662   3.127   3.474   2.618 -0.4711 -0.7423  0.0347
   82SLPC    HX 7663   3.193   3.494   2.531  0.2149 -0.7634  0.5423
   82SLPC    HY 7664   3.195   3.458   2.704  0.2425 -0.2136 -0.4161
   82SLPC   O31 7665   3.042   3.589   2.635  0.1319 -0.2053  0.2143
   82SLPC   C31 7666   3.018   3.623   2.767 -0.8411 -0.4747  0.2952
   82SLPC   O32 7667   3.076   3.568   2.860  0.2818  0.5088  0.1618
   82SLPC   C32 7668   2.905   3.729   2.780 -0.3450 -0.2720 -0.3532
   82SLPC   H2X 7669   2.822   3.674   2.828  1.2162 -0.2215  2.6338
   82SLPC   H2Y 7670   2.869   3.752   2.677 -0.3559 -0.1397 -0.3194
   82SLPC   C23 7671   2.796   3.354   2.937  0.0409  0.2340  0.1250
   82SLPC   H3R 7672   2.750   3.417   2.858  0.1132  1.4036  0.9914
   82SLPC   H3S 7673   2.866   3.426   2.984  0.2780  2.0463 -2.7173
   82SLPC   C24 7674   2.692   3.310   3.037 -0.2373  0.1676 -0.2695
   82SLPC   H4R 7675   2.725   3.225   3.100 -2.0748 -0.7424 -0.4385
   82SLPC   H4S 7676   2.602   3.271   2.984 -0.8981  1.5672 -0.2168
   82SLPC   C25 7677   2.650   3.420   3.131 -0.0169  0.1794 -0.3705
   82SLPC   H5R 7678   2.558   3.392   3.187  0.9562  1.0566  1.7879
   82SLPC   H5S 7679   2.620   3.505   3.066 -1.7363 -0.2062 -0.1412
   82SLPC   C26 7680   2.751   3.459   3.239  0.1790 -0.7227 -0.1247
   82SLPC   H6R 7681   2.854   3.481   3.205 -0.0676  2.5964  0.9529
   82SLPC   H6S 7682   2.771   3.369   3.301  2.9881 -1.1398 -1.5263
   82SLPC   C27 7683   2.715   3.580   3.330 -0.6723 -0.8558  0.6736
   82SLPC   H7R 7684   2.697   3.668   3.264  3.1252  0.0405  0.6326
   82SLPC   H7S 7685   2.804   3.605   3.392 -2.5020  0.9489  2.7616
   82SLPC   C28 7686   2.594   3.542   3.424 -0.0258 -0.2758 -0.8429
   82SLPC   H8R 7687   2.524   3.472   3.375  1.1870 -1.0515 -1.5345
   82SLPC   H8S 7688   2.543   3.634   3.459  0.3605 -0.4916  0.3200
   82SLPC   C29 7689   2.655   3.476   3.539  0.6204 -0.0423  0.3594
   82SLPC   H9R 7690   2.709   3.546   3.604 -0.9470  0.8079  0.7950
   82SLPC  C210 7691   2.646   3.347   3.584  0.8149 -0.1774 -0.4583
   82SLPC  H10R 7692   2.675   3.326   3.688  0.8308 -1.8464 -0.7718
   82SLPC  C211 7693   2.571   3.237   3.515  0.0391  0.2360  0.7163
   82SLPC  H11R 7694   2.645   3.175   3.460 -2.6084 -3.4470  0.9653
   82SLPC  H11S 7695   2.510   3.281   3.433  0.5021  0.3518  0.4319
   82SLPC  C212 7696   2.497   3.134   3.597  0.7694 -0.0917 -0.1612
   82SLPC  H12R 7697   2.400   3.168   3.635  0.6097  1.8178 -2.1112
   82SLPC  C213 7698   2.524   3.001   3.622 -0.0390 -0.7911 -0.1878
   82SLPC  H13R 7699   2.471   2.949   3.703  0.6056 -0.8054  0.2343
   82SLPC  C214 7700   2.636   2.919   3.572 -0.3409 -0.2527  0.0321
   82SLPC  H14R 7701   2.666   2.942   3.468 -0.7458  1.2191  0.2201
   82SLPC  H14S 7702   2.612   2.811   3.582  0.2766 -0.6561 -2.3402
   82SLPC  C215 7703   2.760   2.945   3.657 -0.1170 -0.0893 -0.4316
   82SLPC  H15R 7704   2.796   3.048   3.637 -2.7223  1.3798  1.7295
   82SLPC  H15S 7705   2.834   2.871   3.622 -0.7938 -0.5247 -0.9665
   82SLPC  C216 7706   2.753   2.933   3.804 -0.3618  0.2940 -0.5556
   82SLPC  H16R 7707   2.694   3.019   3.842  0.4475  0.1932  1.0151
   82SLPC  H16S 7708   2.850   2.949   3.855 -0.7372  0.6009  0.0711
   82SLPC  C217 7709   2.696   2.795   3.852 -0.4097  0.4826  0.7271
   82SLPC  H17R 7710   2.770   2.716   3.827  1.9112  2.9718 -0.9156
   82SLPC  H17S 7711   2.599   2.778   3.800 -0.3050 -0.3597  0.8005
   82SLPC  C218 7712   2.666   2.790   4.003  0.4559  0.3579 -0.6419
   82SLPC  H18R 7713   2.599   2.705   4.026  1.5561 -0.2278  0.5198
   82SLPC  H18S 7714   2.602   2.877   4.030  1.9004  1.1321  0.4457
   82SLPC  H18T 7715   2.758   2.790   4.066  0.2072 -0.9849 -0.2682
   82SLPC   C33 7716   2.948   3.861   2.846 -0.6138 -0.0969 -0.0885
   82SLPC   H3X 7717   2.879   3.946   2.826  2.0709  2.1697 -0.2074
   82SLPC   H3Y 7718   3.045   3.905   2.817 -0.5448  1.0108  1.6841
   82SLPC   C34 7719   2.947   3.853   2.998  0.1848  0.4940 -0.2766
   82SLPC   H4X 7720   3.027   3.790   3.044 -0.1478  0.5327  0.3608
   82SLPC   H4Y 7721   2.857   3.804   3.039  1.4690 -1.5594  0.2355
   82SLPC   C35 7722   2.947   3.983   3.068  0.5866  0.1563 -0.1521
   82SLPC   H5X 7723   2.874   4.045   3.011  1.0223 -0.5628 -1.5328
   82SLPC   H5Y 7724   3.048   4.028   3.067  0.7464 -0.1777 -1.3470
   82SLPC   C36 7725   2.891   3.960   3.210  0.0798 -0.3194  0.2508
   82SLPC   H6X 7726   2.785   3.936   3.187  0.4618 -1.3187 -0.5523
   82SLPC   H6Y 7727   2.884   4.055   3.268 -1.9947  0.2148 -0.7786
   82SLPC   C37 7728   2.974   3.864   3.300  0.5307  0.1924 -0.4298
   82SLPC   H7X 7729   3.079   3.899   3.303  0.5324  0.2176 -0.7169
   82SLPC   H7Y 7730   2.972   3.754   3.281  0.8519  0.0525  0.3521
   82SLPC   C38 7731   2.912   3.860   3.444 -0.0659 -0.9686  0.3797
   82SLPC   H8X 7732   2.820   3.800   3.455 -0.2706 -0.3102  2.6366
   82SLPC   H8Y 7733   2.897   3.968   3.465  0.3942 -0.1082 -2.9858
   82SLPC   C39 7734   3.009   3.795   3.540  0.7542  0.4909  0.0022
   82SLPC   H9X 7735   3.102   3.857   3.548  0.9884  1.1406 -4.7454
   82SLPC   H9Y 7736   3.049   3.701   3.496 -2.6096 -0.8463 -0.4373
   82SLPC  C310 7737   2.946   3.762   3.672  0.0869 -0.0364 -0.8351
   82SLPC  H10X 7738   3.005   3.686   3.728 -1.5456  0.6671  2.0611
   82SLPC  H10Y 7739   2.849   3.709   3.662 -0.3299  0.8743 -1.8048
   82SLPC  C311 7740   2.922   3.884   3.758  0.1595  0.2050 -0.0338
   82SLPC  H11X 7741   2.855   3.952   3.700  0.1533 -0.5940 -0.9922
   82SLPC  H11Y 7742   3.020   3.932   3.776  0.9546 -1.4794  0.2318
   82SLPC  C312 7743   2.854   3.864   3.899  0.1976  0.1369  1.2727
   82SLPC  H12X 7744   2.891   3.762   3.925  0.3297 -1.5158 -4.1726
   82SLPC  H12Y 7745   2.748   3.837   3.882  0.6893 -0.9982 -0.3738
   82SLPC  C313 7746   2.887   3.974   3.991  0.9032 -0.5221  0.9507
   82SLPC  H13X 7747   2.865   4.080   3.964  0.5691 -0.1995  2.4273
   82SLPC  H13Y 7748   2.995   3.969   4.018  0.9182 -2.2885  0.6917
   82SLPC  C314 7749   2.814   3.936   4.125 -0.3021  0.3958 -0.3783
   82SLPC  H14X 7750   2.857   3.839   4.158 -0.9981 -0.4620 -1.8587
   82SLPC  H14Y 7751   2.708   3.914   4.098 -0.6180  0.0017  1.0746
   82SLPC  C315 7752   2.814   4.036   4.246 -0.2028 -0.1370  0.3499
   82SLPC  H15X 7753   2.743   3.990   4.318  0.0643 -3.0975 -1.1181
   82SLPC  H15Y 7754   2.765   4.131   4.215  1.7720  1.2938  1.4486
   82SLPC  C316 7755   2.948   4.073   4.312  0.1364 -0.2198  0.0488
   82SLPC  H16X 7756   2.944   4.162   4.378  1.8189 -0.2683  0.2429
   82SLPC  H16Y 7757   3.012   4.111   4.230 -0.6681  1.0520 -0.0235
   82SLPC  C317 7758   3.023   3.955   4.378 -0.3651  0.1902  0.2330
   82SLPC  H17X 7759   3.038   3.878   4.299 -0.3470 -0.2733  0.6849
   82SLPC  H17Y 7760   2.972   3.906   4.464  1.9127 -0.7408  1.1338
   82SLPC  C318 7761   3.165   4.000   4.425 -0.1843  0.1397  0.9853
   82SLPC  H18X 7762   3.168   4.067   4.513  0.9749  1.9447 -0.3388
   82SLPC  H18Y 7763   3.195   4.053   4.331  0.6558 -1.6517  0.1991
   82SLPC  H18Z 7764   3.236   3.915   4.435 -2.4314 -2.1984 -1.2205
   83SLPC     N 7765   3.038   5.233   1.602  0.5720 -0.2630 -0.1519
   83SLPC   C13 7766   3.072   5.377   1.590 -0.5691 -1.1703 -1.0796
   83SLPC  H13A 7767   3.126   5.399   1.499  0.9382  3.0056  0.6085
   83SLPC  H13B 7768   2.986   5.440   1.573 -0.2849  0.2122  2.0145
   83SLPC  H13C 7769   3.131   5.422   1.667 -0.9455 -3.2172  0.5001
   83SLPC   C14 7770   3.150   5.142   1.568 -0.0810  0.3359  0.3645
   83SLPC  H14A 7771   3.191   5.147   1.469  1.8490  2.4578  1.1933
   83SLPC  H14B 7772   3.229   5.157   1.640 -0.8086  2.7827  0.7674
   83SLPC  H14C 7773   3.106   5.046   1.589 -0.9964  0.8099  0.7322
   83SLPC   C15 7774   2.924   5.197   1.504 -0.1015  0.0388 -0.4553
   83SLPC  H15A 7775   2.834   5.256   1.517 -0.0804  0.5600 -2.3751
   83SLPC  H15B 7776   2.965   5.220   1.407 -1.5374  2.3153 -0.6017
   83SLPC  H15C 7777   2.895   5.094   1.518 -1.6906  0.6688  1.2727
   83SLPC   C12 7778   2.993   5.207   1.743  0.2542  0.0837  0.1270
   83SLPC  H12A 7779   2.970   5.103   1.758 -0.5486 -0.1252 -2.1545
   83SLPC  H12B 7780   2.894   5.243   1.769 -0.5965 -2.2611  0.3786
   83SLPC   C11 7781   3.091   5.236   1.858 -0.3331 -0.2848 -0.0966
   83SLPC  H11A 7782   3.038   5.228   1.955  1.0007  0.3862  0.7248
   83SLPC  H11B 7783   3.117   5.344   1.860 -0.3156 -0.2871 -0.1996
   83SLPC     P 7784   3.244   5.037   1.938  0.1915  0.1226  0.6795
   83SLPC   O13 7785   3.135   4.948   1.903 -0.3858  0.3022 -0.0356
   83SLPC   O14 7786   3.386   4.997   1.904 -0.0294 -0.4585 -0.3631
   83SLPC   O12 7787   3.217   5.165   1.852  0.6472 -0.2228  0.1937
   83SLPC   O11 7788   3.227   5.090   2.082 -0.4744 -0.3996  0.1729
   83SLPC    C1 7789   3.332   5.177   2.123 -1.0435  0.1243 -0.5284
   83SLPC    HA 7790   3.434   5.133   2.113 -0.4585  1.2936  0.0844
   83SLPC    HB 7791   3.331   5.275   2.071  0.4596  1.7392  2.2372
   83SLPC    C2 7792   3.328   5.200   2.275 -0.0766 -0.3776 -0.1452
   83SLPC    HS 7793   3.421   5.258   2.297  1.5234 -1.5579 -3.2049
   83SLPC   O21 7794   3.315   5.073   2.344 -0.8323  0.0512  0.5960
   83SLPC   C21 7795   3.422   5.039   2.423 -0.5829 -0.3086  0.1897
   83SLPC   O22 7796   3.524   5.104   2.431 -0.2631  0.1080 -0.5341
   83SLPC   C22 7797   3.395   4.909   2.472 -0.0091  0.3676 -0.6372
   83SLPC   H2R 7798   3.291   4.897   2.508  1.2391  1.1191  3.9609
   83SLPC   H2S 7799   3.416   4.832   2.395  2.4966  2.2774 -2.0344
   83SLPC    C3 7800   3.202   5.277   2.315 -0.2370 -0.2160 -0.1608
   83SLPC    HX 7801   3.114   5.213   2.294  0.6917 -2.1980  1.5623
   83SLPC    HY 7802   3.195   5.372   2.259 -0.5568 -0.5414 -0.6832
   83SLPC   O31 7803   3.198   5.303   2.458 -0.0330  0.2238  0.0194
   83SLPC   C31 7804   3.281   5.384   2.499 -0.2339 -0.0727 -0.6143
   83SLPC   O32 7805   3.357   5.461   2.437 -0.4675  0.4674  0.0102
   83SLPC   C32 7806   3.286   5.379   2.651  0.0978  0.9452 -0.3965
   83SLPC   H2X 7807   3.183   5.374   2.693  1.0094  0.5105  2.0017
   83SLPC   H2Y 7808   3.327   5.477   2.683  1.5146  0.1917  0.2064
   83SLPC   C23 7809   3.477   4.853   2.586  0.0900  0.3368 -0.3918
   83SLPC   H3R 7810   3.570   4.912   2.595 -0.1002  0.7917 -1.2636
   83SLPC   H3S 7811   3.502   4.748   2.557  0.3503  0.2247  0.2246
   83SLPC   C24 7812   3.421   4.883   2.723  0.1242  0.6349 -0.0917
   83SLPC   H4R 7813   3.320   4.836   2.719  0.0565  0.8502 -1.2395
   83SLPC   H4S 7814   3.396   4.990   2.742 -1.1916  0.5655 -1.2346
   83SLPC   C25 7815   3.497   4.819   2.838  0.3343 -0.2848  1.0411
   83SLPC   H5R 7816   3.583   4.880   2.871  0.3073 -0.8229  2.1518
   83SLPC   H5S 7817   3.528   4.715   2.815  1.8366  0.6754 -1.6819
   83SLPC   C26 7818   3.409   4.814   2.958 -0.5774  0.3630  0.1910
   83SLPC   H6R 7819   3.317   4.758   2.932  0.7243 -2.1837  0.7200
   83SLPC   H6S 7820   3.382   4.912   3.002 -0.7524  0.2750  0.2782
   83SLPC   C27 7821   3.459   4.717   3.065 -0.5811  0.0176  0.3700
   83SLPC   H7R 7822   3.540   4.655   3.021 -0.0705  1.4377 -0.7417
   83SLPC   H7S 7823   3.379   4.653   3.108 -0.7749  1.5285  2.3831
   83SLPC   C28 7824   3.535   4.781   3.185  0.9199 -0.3419  0.1461
   83SLPC   H8R 7825   3.460   4.829   3.252 -0.4675  1.0868 -2.2951
   83SLPC   H8S 7826   3.604   4.860   3.148  2.5842 -1.0526  1.5950
   83SLPC   C29 7827   3.607   4.668   3.261 -0.5522  0.4366 -0.5397
   83SLPC   H9R 7828   3.601   4.566   3.220  1.1612  0.3252 -0.5808
   83SLPC  C210 7829   3.699   4.681   3.358  0.7943 -0.2940  0.1583
   83SLPC  H10R 7830   3.738   4.593   3.410  0.2224 -1.3485 -1.1524
   83SLPC  C211 7831   3.754   4.816   3.396 -0.3119  0.4201  0.0639
   83SLPC  H11R 7832   3.687   4.902   3.373  0.9888  0.9375 -2.1271
   83SLPC  H11S 7833   3.838   4.835   3.326 -0.3503 -2.7972 -1.0219
   83SLPC  C212 7834   3.804   4.818   3.538  0.4830 -0.1402 -0.6106
   83SLPC  H12R 7835   3.913   4.821   3.552  0.9679 -2.1691 -3.2055
   83SLPC  C213 7836   3.721   4.830   3.643  0.7961  0.1587 -0.7283
   83SLPC  H13R 7837   3.770   4.832   3.742 -0.0108 -1.3043 -0.2697
   83SLPC  C214 7838   3.568   4.832   3.647  0.1941 -0.5027  0.5760
   83SLPC  H14R 7839   3.525   4.831   3.545  2.1585  0.2722 -0.3085
   83SLPC  H14S 7840   3.534   4.929   3.688  1.9049  0.8003 -0.9739
   83SLPC  C215 7841   3.487   4.720   3.728 -1.0627  0.3215  0.1275
   83SLPC  H15R 7842   3.509   4.626   3.674  2.4787  2.1363 -1.9904
   83SLPC  H15S 7843   3.377   4.734   3.733 -1.1462  0.1352 -0.8928
   83SLPC  C216 7844   3.537   4.713   3.877 -0.2605 -0.2207  0.4657
   83SLPC  H16R 7845   3.459   4.676   3.946  0.0650 -0.7337  0.5683
   83SLPC  H16S 7846   3.563   4.815   3.913 -1.2533  0.0702  0.3869
   83SLPC  C217 7847   3.651   4.616   3.890 -0.0661  0.5647  0.0567
   83SLPC  H17R 7848   3.714   4.638   3.979 -0.2652 -1.1968  0.6748
   83SLPC  H17S 7849   3.729   4.626   3.811 -0.1912  1.3591  0.0265
   83SLPC  C218 7850   3.599   4.469   3.897 -0.4462  0.0734  0.6107
   83SLPC  H18R 7851   3.548   4.438   3.803 -1.1852 -1.0467  1.3644
   83SLPC  H18S 7852   3.524   4.459   3.978 -0.2286  2.1294  1.1163
   83SLPC  H18T 7853   3.683   4.400   3.916 -0.6100  0.4589  3.0031
   83SLPC   C33 7854   3.365   5.268   2.715 -0.0861 -1.0821  0.3210
   83SLPC   H3X 7855   3.351   5.173   2.659  0.6830  0.0758 -1.9346
   83SLPC   H3Y 7856   3.314   5.260   2.814 -2.4225  0.5649 -0.6493
   83SLPC   C34 7857   3.514   5.307   2.721 -0.6105  0.3636 -0.0001
   83SLPC   H4X 7858   3.543   5.405   2.765  0.2904  0.8894 -1.6822
   83SLPC   H4Y 7859   3.538   5.316   2.613  2.4718  0.8696  0.6137
   83SLPC   C35 7860   3.607   5.204   2.787 -0.3211  0.3050  0.0819
   83SLPC   H5X 7861   3.602   5.110   2.728 -0.1153  0.1747  0.2701
   83SLPC   H5Y 7862   3.556   5.181   2.883 -1.1672 -0.0320 -0.4428
   83SLPC   C36 7863   3.752   5.256   2.796 -0.3153 -0.7259 -0.7282
   83SLPC   H6X 7864   3.785   5.318   2.710  1.7932 -2.5909 -1.3415
   83SLPC   H6Y 7865   3.815   5.167   2.816 -2.4771 -1.7713  2.0322
   83SLPC   C37 7866   3.756   5.330   2.928 -0.2908 -0.1449  0.0408
   83SLPC   H7X 7867   3.715   5.270   3.012 -0.7071  0.3870  0.2253
   83SLPC   H7Y 7868   3.694   5.422   2.914 -0.8173 -0.6108 -0.7913
   83SLPC   C38 7869   3.906   5.366   2.960 -0.1659 -0.4370  0.1448
   83SLPC   H8X 7870   3.936   5.421   2.868 -0.5204 -0.2952  0.1096
   83SLPC   H8Y 7871   3.964   5.272   2.949  1.9597  0.9957 -1.7625
   83SLPC   C39 7872   3.933   5.461   3.071  0.1155  0.3173 -0.0690
   83SLPC   H9X 7873   3.849   5.530   3.093  0.2086 -0.2091  2.2263
   83SLPC   H9Y 7874   4.023   5.522   3.047  1.0727 -1.1237 -0.2795
   83SLPC  C310 7875   3.969   5.395   3.207  0.4940  0.1108  0.1610
   83SLPC  H10X 7876   4.059   5.335   3.186  0.3782  0.7525 -2.5288
   83SLPC  H10Y 7877   3.893   5.326   3.250 -0.3783  1.7188  1.3021
   83SLPC  C311 7878   4.011   5.484   3.320  0.7369 -0.4942  0.6674
   83SLPC  H11X 7879   3.929   5.557   3.339  1.1066 -0.1346  0.9064
   83SLPC  H11Y 7880   4.104   5.539   3.295  0.9742 -2.0869 -2.2511
   83SLPC  C312 7881   4.047   5.403   3.445 -0.4405 -0.0188 -0.0747
   83SLPC  H12X 7882   4.123   5.327   3.418 -2.0609 -0.6044 -3.4856
   83SLPC  H12Y 7883   3.970   5.336   3.489  0.7533 -1.1696  0.3169
   83SLPC  C313 7884   4.111   5.496   3.545  0.5475 -0.1399  0.1979
   83SLPC  H13X 7885   4.148   5.585   3.490 -2.0138  0.3366 -0.9264
   83SLPC  H13Y 7886   4.196   5.457   3.604  4.4236  1.0268 -4.0713
   83SLPC  C314 7887   4.004   5.556   3.644 -0.3601 -0.0870 -0.4025
   83SLPC  H14X 7888   3.903   5.518   3.620 -0.8405  1.0695 -0.2686
   83SLPC  H14Y 7889   3.997   5.667   3.649  0.5609 -0.0648  1.2620
   83SLPC  C315 7890   4.020   5.511   3.790  0.0951 -0.4331  0.2130
   83SLPC  H15X 7891   4.113   5.561   3.826  0.2854  0.4452 -1.3956
   83SLPC  H15Y 7892   4.038   5.402   3.803 -1.5955 -0.6308  1.2349
   83SLPC  C316 7893   3.897   5.539   3.881 -0.5930 -0.3902 -0.1390
   83SLPC  H16X 7894   3.913   5.500   3.984  1.4862 -2.3655 -1.1050
   83SLPC  H16Y 7895   3.812   5.492   3.826  1.1584 -1.9012 -1.6848
   83SLPC  C317 7896   3.864   5.688   3.908 -0.1908  0.3677 -0.5789
   83SLPC  H17X 7897   3.769   5.669   3.962 -0.0202 -1.3540 -0.8214
   83SLPC  H17Y 7898   3.846   5.742   3.812  0.2423  0.6172 -0.5265
   83SLPC  C318 7899   3.949   5.767   4.016  1.0153 -0.4573 -0.1243
   83SLPC  H18X 7900   3.926   5.708   4.108 -0.3706  1.1557  0.6166
   83SLPC  H18Y 7901   3.906   5.869   4.025  3.6827  0.8047 -0.7724
   83SLPC  H18Z 7902   4.056   5.784   3.991  0.5669  0.9615 -1.1731
   84SLPC     N 7903   0.461   2.111   1.870 -0.3317  0.0719  0.0022
   84SLPC   C13 7904   0.481   2.259   1.881  1.1150  0.1172 -0.4771
   84SLPC  H13A 7905   0.561   2.289   1.815  2.0889 -3.2973 -1.0313
   84SLPC  H13B 7906   0.398   2.318   1.844  1.9355  0.9436 -1.0246
   84SLPC  H13C 7907   0.497   2.275   1.987 -3.5436  1.5550  0.2732
   84SLPC   C14 7908   0.469   2.083   1.722  1.0358 -0.3946 -0.2018
   84SLPC  H14A 7909   0.572   2.097   1.695  0.5678  0.8635 -1.4821
   84SLPC  H14B 7910   0.449   1.978   1.704  3.4881 -0.6917 -1.6601
   84SLPC  H14C 7911   0.433   2.150   1.645 -0.1168 -1.7306 -0.8672
   84SLPC   C15 7912   0.316   2.084   1.902 -0.2056  0.8478  0.3905
   84SLPC  H15A 7913   0.257   2.152   1.843  0.4522  0.8004 -0.3366
   84SLPC  H15B 7914   0.292   1.982   1.875  0.7140  1.2837 -2.4603
   84SLPC  H15C 7915   0.295   2.102   2.006 -1.2644  0.0082  0.3481
   84SLPC   C12 7916   0.554   2.027   1.952  0.1869 -0.4768  0.1203
   84SLPC  H12A 7917   0.654   2.049   1.918 -0.9982  1.1762 -2.6376
   84SLPC  H12B 7918   0.533   1.922   1.935 -2.1232  0.1307 -1.2416
   84SLPC   C11 7919   0.552   2.031   2.109 -0.2522  0.5518 -0.3714
   84SLPC  H11A 7920   0.606   1.941   2.143 -2.6040 -0.7542  0.1484
   84SLPC  H11B 7921   0.448   2.022   2.148 -0.3420 -0.1984 -0.7693
   84SLPC     P 7922   0.752   2.191   2.160  0.1651 -0.1162  0.5321
   84SLPC   O13 7923   0.822   2.120   2.050 -1.3510  0.0975  0.0540
   84SLPC   O14 7924   0.770   2.338   2.172 -0.1194  0.1165 -0.0155
   84SLPC   O12 7925   0.594   2.158   2.148  0.2228 -0.6945 -0.1777
   84SLPC   O11 7926   0.791   2.126   2.298  0.1836 -0.2729 -0.4909
   84SLPC    C1 7927   0.697   2.149   2.408  0.4481  0.0899  0.0344
   84SLPC    HA 7928   0.592   2.152   2.372  0.5448  1.1870 -0.1971
   84SLPC    HB 7929   0.709   2.074   2.489 -1.4530  0.1528  0.4097
   84SLPC    C2 7930   0.715   2.285   2.486  0.1744 -0.3735 -0.3042
   84SLPC    HS 7931   0.712   2.366   2.410 -0.2416 -0.2494 -0.1590
   84SLPC   O21 7932   0.845   2.285   2.551  0.3433 -0.5875  0.3125
   84SLPC   C21 7933   0.880   2.399   2.603  0.7686  0.2171  0.3676
   84SLPC   O22 7934   0.849   2.510   2.566  0.2577  0.1026  0.6607
   84SLPC   C22 7935   0.966   2.376   2.727  0.7488  0.0481 -0.0597
   84SLPC   H2R 7936   0.931   2.281   2.772  2.2130 -0.4891 -0.0106
   84SLPC   H2S 7937   1.073   2.363   2.700  0.6056  0.1088 -0.6911
   84SLPC    C3 7938   0.590   2.311   2.572 -0.6795  0.0630 -0.2711
   84SLPC    HX 7939   0.505   2.316   2.500  0.9323 -0.0493 -2.2768
   84SLPC    HY 7940   0.601   2.412   2.616  0.3221  0.1784 -0.7683
   84SLPC   O31 7941   0.561   2.208   2.666 -0.1935 -0.1458  0.3209
   84SLPC   C31 7942   0.639   2.200   2.776  0.0230  0.0700 -0.5741
   84SLPC   O32 7943   0.697   2.293   2.827  0.0680 -0.2089  0.6984
   84SLPC   C32 7944   0.644   2.066   2.839  0.4641  0.6793 -0.1267
   84SLPC   H2X 7945   0.712   1.999   2.782  0.2301  1.0753 -0.8711
   84SLPC   H2Y 7946   0.542   2.024   2.844  1.4494 -1.8455  4.4614
   84SLPC   C23 7947   0.962   2.496   2.826 -0.3982  0.1961  0.3705
   84SLPC   H3R 7948   0.856   2.514   2.854 -1.2679 -1.8744 -1.2928
   84SLPC   H3S 7949   1.008   2.582   2.772 -1.1197  0.2292 -0.2051
   84SLPC   C24 7950   1.030   2.448   2.953  0.4071  0.0108 -0.8049
   84SLPC   H4R 7951   1.061   2.543   3.002 -0.0756 -0.8062  1.1759
   84SLPC   H4S 7952   1.115   2.383   2.925  0.1560 -0.9995  0.6951
   84SLPC   C25 7953   0.942   2.360   3.046  0.1685  0.5132  0.0674
   84SLPC   H5R 7954   0.916   2.264   2.996 -1.2970  1.2899 -0.7465
   84SLPC   H5S 7955   0.842   2.405   3.066 -0.5191 -0.6984 -0.5012
   84SLPC   C26 7956   1.006   2.326   3.179 -0.2316  0.5384 -0.0608
   84SLPC   H6R 7957   1.047   2.418   3.226  0.2128 -0.4349  1.5476
   84SLPC   H6S 7958   1.102   2.272   3.163 -0.5638 -0.3482  0.8366
   84SLPC   C27 7959   0.920   2.270   3.296 -0.2467  0.2854  0.0065
   84SLPC   H7R 7960   0.883   2.176   3.250 -0.6004  0.0977  0.6538
   84SLPC   H7S 7961   0.839   2.344   3.317  1.3723  1.0790  4.8935
   84SLPC   C28 7962   1.002   2.231   3.422  1.2380 -0.1499  0.9437
   84SLPC   H8R 7963   1.060   2.324   3.442  1.3270 -0.1058  0.4921
   84SLPC   H8S 7964   1.077   2.153   3.397  0.3121 -0.3357 -1.5011
   84SLPC   C29 7965   0.919   2.178   3.538 -0.0448  0.2564  0.2033
   84SLPC   H9R 7966   0.838   2.108   3.511 -0.4795 -0.0098  2.0711
   84SLPC  C210 7967   0.941   2.204   3.665 -0.0719  0.3701  0.0542
   84SLPC  H10R 7968   0.875   2.172   3.747 -1.5034 -0.5169 -1.3731
   84SLPC  C211 7969   1.055   2.291   3.705  0.0635  0.0728 -0.1944
   84SLPC  H11R 7970   1.035   2.352   3.796 -2.6157 -0.1576 -0.5526
   84SLPC  H11S 7971   1.075   2.366   3.625 -1.4268 -0.9411 -1.5624
   84SLPC  C212 7972   1.178   2.209   3.726  0.4953  0.6152  0.8583
   84SLPC  H12R 7973   1.175   2.105   3.691 -4.2428 -0.4275  3.3889
   84SLPC  C213 7974   1.278   2.246   3.795  0.1228 -0.2095 -0.2829
   84SLPC  H13R 7975   1.372   2.189   3.798  0.9150  0.8649 -2.2800
   84SLPC  C214 7976   1.295   2.378   3.867 -0.1096 -0.0844  0.1337
   84SLPC  H14R 7977   1.243   2.458   3.811  0.6882  0.4876  0.1943
   84SLPC  H14S 7978   1.400   2.413   3.859 -0.1884  0.1720  0.2118
   84SLPC  C215 7979   1.235   2.394   4.017 -0.2196  0.0394  0.2222
   84SLPC  H15R 7980   1.126   2.397   3.996 -0.3555 -1.4279  0.5521
   84SLPC  H15S 7981   1.259   2.489   4.069 -2.0323  0.9244 -0.4775
   84SLPC  C216 7982   1.272   2.281   4.108  0.2362  0.4729  0.2228
   84SLPC  H16R 7983   1.250   2.188   4.052 -0.9841  2.3573 -2.6134
   84SLPC  H16S 7984   1.217   2.290   4.204  1.4307 -1.6890  1.1825
   84SLPC  C217 7985   1.423   2.275   4.149 -0.5341  0.1822  0.1838
   84SLPC  H17R 7986   1.451   2.379   4.176  1.6394 -0.1210 -0.6857
   84SLPC  H17S 7987   1.488   2.264   4.059  1.1860 -0.4441  1.4469
   84SLPC  C218 7988   1.451   2.170   4.257 -0.5621  0.4408 -0.0278
   84SLPC  H18R 7989   1.391   2.079   4.239  2.3573 -2.0391  1.7244
   84SLPC  H18S 7990   1.420   2.195   4.361 -2.4761 -2.8272  0.3220
   84SLPC  H18T 7991   1.559   2.146   4.266 -0.9086 -1.0063  0.5351
   84SLPC   C33 7992   0.696   2.054   2.987  0.0049 -0.4312 -0.0183
   84SLPC   H3X 7993   0.798   2.099   2.993  0.0497 -0.4604 -0.5380
   84SLPC   H3Y 7994   0.704   1.948   3.019 -1.5028 -0.8994 -1.1196
   84SLPC   C34 7995   0.609   2.122   3.098  0.2005  0.3844  0.3463
   84SLPC   H4X 7996   0.503   2.115   3.065  0.0785  0.8493  0.6313
   84SLPC   H4Y 7997   0.636   2.229   3.099  0.9254  0.2206 -0.3524
   84SLPC   C35 7998   0.628   2.054   3.233  0.2059 -0.3555 -0.5787
   84SLPC   H5X 7999   0.739   2.049   3.243  0.1369  0.2666  0.7045
   84SLPC   H5Y 8000   0.594   1.950   3.216 -1.3402 -0.1101  0.7330
   84SLPC   C36 8001   0.546   2.121   3.342  0.7185 -0.0329 -0.0721
   84SLPC   H6X 8002   0.456   2.165   3.293 -0.5576 -0.4965  1.7415
   84SLPC   H6Y 8003   0.606   2.202   3.388 -2.4450  0.2102  4.1933
   84SLPC   C37 8004   0.490   2.029   3.453  0.1361 -0.3205  0.5424
   84SLPC   H7X 8005   0.571   1.966   3.494  0.4119  0.5973  1.4557
   84SLPC   H7Y 8006   0.403   1.970   3.418  1.2241 -1.0736 -1.0278
   84SLPC   C38 8007   0.447   2.109   3.581 -0.0801 -0.0726  0.0687
   84SLPC   H8X 8008   0.528   2.157   3.640 -0.0598 -2.2447  1.9447
   84SLPC   H8Y 8009   0.413   2.027   3.648  1.8065  0.1723  1.4029
   84SLPC   C39 8010   0.329   2.200   3.563  0.2704  0.3245 -0.7119
   84SLPC   H9X 8011   0.241   2.146   3.523 -0.0401  0.0287  0.3237
   84SLPC   H9Y 8012   0.347   2.289   3.499  0.0313  0.3529 -0.7408
   84SLPC  C310 8013   0.290   2.245   3.714 -0.0092  0.2934 -0.0122
   84SLPC  H10X 8014   0.378   2.280   3.770  1.9818 -0.8868 -2.2165
   84SLPC  H10Y 8015   0.260   2.144   3.751  3.1074 -1.0570 -0.8450
   84SLPC  C311 8016   0.174   2.341   3.728 -0.5166 -0.5265  0.0246
   84SLPC  H11X 8017   0.171   2.365   3.836 -1.0314 -0.6084  0.0326
   84SLPC  H11Y 8018   0.075   2.304   3.695 -0.0728 -0.2995 -1.6651
   84SLPC  C312 8019   0.209   2.472   3.654 -0.0580  0.5588 -0.7309
   84SLPC  H12X 8020   0.185   2.464   3.546 -0.2764 -1.3128 -0.5922
   84SLPC  H12Y 8021   0.316   2.497   3.668 -0.6548  3.6689 -1.1941
   84SLPC  C313 8022   0.144   2.603   3.704 -0.1426  0.9148 -0.2948
   84SLPC  H13X 8023   0.186   2.678   3.633  0.5137  1.8674  1.0408
   84SLPC  H13Y 8024   0.181   2.643   3.801 -1.4913  0.6267  0.3498
   84SLPC  C314 8025  -0.008   2.593   3.713 -0.6429 -0.5938 -0.3109
   84SLPC  H14X 8026  -0.044   2.522   3.790 -0.4685 -2.5835 -1.9766
   84SLPC  H14Y 8027  -0.054   2.572   3.614 -2.3763 -0.1160  0.3630
   84SLPC  C315 8028  -0.081   2.725   3.747  0.3364  0.1183 -0.5448
   84SLPC  H15X 8029  -0.071   2.792   3.659 -0.3806  0.4660 -0.3652
   84SLPC  H15Y 8030  -0.028   2.762   3.837  1.6562 -2.1647 -0.3095
   84SLPC  C316 8031  -0.219   2.706   3.802  0.0938  0.1474 -0.3241
   84SLPC  H16X 8032  -0.273   2.795   3.841 -2.4821 -1.3590 -0.2103
   84SLPC  H16Y 8033  -0.206   2.647   3.896  4.4734  0.8764 -0.2497
   84SLPC  C317 8034  -0.315   2.651   3.694  0.0817  0.0401 -0.3978
   84SLPC  H17X 8035  -0.325   2.541   3.682  0.3417 -0.1222  0.7383
   84SLPC  H17Y 8036  -0.285   2.689   3.594  2.9153 -2.3629 -0.5789
   84SLPC  C318 8037  -0.457   2.699   3.722  0.1199  0.2726  0.2230
   84SLPC  H18X 8038  -0.467   2.809   3.705 -1.3305  0.1977  0.4559
   84SLPC  H18Y 8039  -0.498   2.661   3.818 -2.1203  0.1704 -0.7135
   84SLPC  H18Z 8040  -0.519   2.660   3.638  2.3934  0.8083 -1.8331
   85SLPC     N 8041   6.815   4.442   1.908  0.0599 -0.1923  0.1982
   85SLPC   C13 8042   6.779   4.565   1.835 -0.0923 -0.0120 -0.6201
   85SLPC  H13A 8043   6.728   4.535   1.744  0.2775 -0.6193 -0.6344
   85SLPC  H13B 8044   6.709   4.623   1.893  1.3790  0.0675  1.1642
   85SLPC  H13C 8045   6.857   4.637   1.816 -2.4706  2.5023 -1.5247
   85SLPC   C14 8046   6.936   4.374   1.853 -0.0703  0.0453  0.6555
   85SLPC  H14A 8047   6.931   4.279   1.906  1.3614 -0.3354  0.1304
   85SLPC  H14B 8048   6.936   4.368   1.745  2.5995  2.6195  0.3977
   85SLPC  H14C 8049   7.028   4.418   1.887  0.1943 -0.5191  0.6844
   85SLPC   C15 8050   6.699   4.353   1.886 -0.0212 -0.2548  0.0493
   85SLPC  H15A 8051   6.700   4.264   1.948  1.5022  0.4801  1.1419
   85SLPC  H15B 8052   6.610   4.408   1.909  0.5385  0.7845 -0.2148
   85SLPC  H15C 8053   6.699   4.326   1.781 -0.4973  1.9305 -0.5572
   85SLPC   C12 8054   6.830   4.469   2.063 -0.0579 -0.0459  0.3284
   85SLPC  H12A 8055   6.932   4.502   2.076 -0.1835  0.3487  0.3380
   85SLPC  H12B 8056   6.815   4.378   2.118  0.7104 -0.3512  0.0443
   85SLPC   C11 8057   6.751   4.585   2.127 -0.3777  0.0406 -0.0342
   85SLPC  H11A 8058   6.742   4.564   2.236  1.0204 -1.2208 -0.1283
   85SLPC  H11B 8059   6.651   4.594   2.079  0.3987 -0.1910 -1.7818
   85SLPC     P 8060   6.738   4.842   2.082  0.3167 -0.3604  0.1884
   85SLPC   O13 8061   6.835   4.952   2.086  0.3487  0.2884  0.0274
   85SLPC   O14 8062   6.657   4.825   1.959  0.3576 -0.2884 -0.2638
   85SLPC   O12 8063   6.824   4.706   2.105  0.0138 -0.0167 -0.5012
   85SLPC   O11 8064   6.639   4.849   2.205  0.0825 -1.0536  0.4508
   85SLPC    C1 8065   6.682   4.818   2.337 -0.0416 -1.0249  0.8066
   85SLPC    HA 8066   6.600   4.846   2.406 -0.1338  1.6786 -0.2497
   85SLPC    HB 8067   6.699   4.709   2.349 -0.4455 -1.2194 -0.2702
   85SLPC    C2 8068   6.808   4.891   2.395 -0.3498  0.0039 -0.2251
   85SLPC    HS 8069   6.889   4.891   2.319 -0.8272 -0.6955 -0.7425
   85SLPC   O21 8070   6.841   4.803   2.504  0.2124  0.0006  0.0420
   85SLPC   C21 8071   6.964   4.826   2.556  0.9764  0.4023  0.3088
   85SLPC   O22 8072   7.047   4.894   2.501 -0.1611  0.3400 -0.6823
   85SLPC   C22 8073   6.991   4.740   2.668  0.1243  0.1410 -0.1812
   85SLPC   H2R 8074   6.890   4.714   2.706 -0.7660  0.3565 -2.2886
   85SLPC   H2S 8075   7.047   4.651   2.633  0.2635 -0.0854  0.5891
   85SLPC    C3 8076   6.790   5.047   2.441 -0.4809  1.2157  0.1590
   85SLPC    HX 8077   6.763   5.099   2.346  1.7263 -1.4521 -2.1094
   85SLPC    HY 8078   6.891   5.081   2.471  1.0665 -3.4650  1.1160
   85SLPC   O31 8079   6.682   5.066   2.543 -0.1573 -0.0193  0.3866
   85SLPC   C31 8080   6.724   5.062   2.668 -0.4703  0.3821  0.0355
   85SLPC   O32 8081   6.840   5.047   2.698  0.1173 -0.6627  0.2003
   85SLPC   C32 8082   6.605   5.082   2.761 -0.8151  0.4794  0.6176
   85SLPC   H2X 8083   6.546   4.988   2.757 -0.7277  0.4344  0.3340
   85SLPC   H2Y 8084   6.539   5.158   2.714  0.4820  0.0219 -2.1058
   85SLPC   C23 8085   7.068   4.815   2.768 -0.7811  0.2664  0.1592
   85SLPC   H3R 8086   7.000   4.881   2.825 -1.0151  0.5825 -0.4798
   85SLPC   H3S 8087   7.136   4.892   2.726 -1.8337  1.0451 -0.1589
   85SLPC   C24 8088   7.145   4.724   2.854 -0.7288 -0.3005 -0.4309
   85SLPC   H4R 8089   7.226   4.670   2.801  2.1266  2.1521  1.0950
   85SLPC   H4S 8090   7.079   4.649   2.901  1.2616 -1.9449 -0.1138
   85SLPC   C25 8091   7.221   4.798   2.959 -0.2389 -0.4122  0.0907
   85SLPC   H5R 8092   7.303   4.856   2.911 -1.0758  3.1188  2.5635
   85SLPC   H5S 8093   7.161   4.884   2.996  1.6318  2.1995 -2.3994
   85SLPC   C26 8094   7.266   4.712   3.079 -0.4183 -0.0654 -0.2344
   85SLPC   H6R 8095   7.304   4.620   3.030  1.7544  0.8700 -0.3819
   85SLPC   H6S 8096   7.177   4.674   3.135 -1.2009  0.6296 -0.9655
   85SLPC   C27 8097   7.376   4.791   3.161 -0.2963  0.8743  0.4408
   85SLPC   H7R 8098   7.344   4.895   3.185  2.5862  2.2919 -1.3051
   85SLPC   H7S 8099   7.470   4.802   3.103  1.3931  0.6171  2.9584
   85SLPC   C28 8100   7.408   4.728   3.295 -0.0594 -0.0461  0.5641
   85SLPC   H8R 8101   7.423   4.622   3.267  2.8732 -0.4335  3.0306
   85SLPC   H8S 8102   7.327   4.738   3.370 -0.8653  1.9088 -0.4810
   85SLPC   C29 8103   7.538   4.766   3.352  0.5463  0.1179  0.2128
   85SLPC   H9R 8104   7.615   4.785   3.275 -0.0049  0.5461 -0.2455
   85SLPC  C210 8105   7.570   4.783   3.482  0.3804  0.6609  0.0711
   85SLPC  H10R 8106   7.671   4.816   3.507  0.6732 -0.5142  0.4663
   85SLPC  C211 8107   7.485   4.746   3.605  0.3013  1.1210  0.2118
   85SLPC  H11R 8108   7.375   4.750   3.594  0.3170 -0.5438 -0.8451
   85SLPC  H11S 8109   7.495   4.822   3.686 -1.8891  1.9634 -0.2530
   85SLPC  C212 8110   7.519   4.601   3.643 -0.3377 -0.5051 -0.9743
   85SLPC  H12R 8111   7.527   4.532   3.557  1.4812  0.4528 -1.6330
   85SLPC  C213 8112   7.559   4.562   3.770  0.1791  0.3711  0.3557
   85SLPC  H13R 8113   7.591   4.457   3.777  2.1915  0.8366 -0.9885
   85SLPC  C214 8114   7.586   4.650   3.892  0.5532  0.5588  0.8679
   85SLPC  H14R 8115   7.524   4.603   3.971 -0.7009  0.6629 -0.0340
   85SLPC  H14S 8116   7.544   4.753   3.887  3.1491  1.6866  0.8450
   85SLPC  C215 8117   7.723   4.660   3.939  0.0682 -0.7724 -0.0165
   85SLPC  H15R 8118   7.737   4.738   4.016  0.9144  0.4060 -1.3284
   85SLPC  H15S 8119   7.790   4.678   3.853 -2.3852 -2.1418 -2.3537
   85SLPC  C216 8120   7.754   4.531   4.010  0.0084  0.4215 -0.2515
   85SLPC  H16R 8121   7.743   4.449   3.936 -1.1762  1.2221 -0.9919
   85SLPC  H16S 8122   7.684   4.520   4.096  2.1297 -0.9545  1.4221
   85SLPC  C217 8123   7.892   4.539   4.076 -0.6411  0.0134 -0.1801
   85SLPC  H17R 8124   7.899   4.635   4.131  1.8193 -0.5052  0.5413
   85SLPC  H17S 8125   7.965   4.540   3.992  0.0632 -0.0085  0.4173
   85SLPC  C218 8126   7.942   4.421   4.166  0.1324  0.1245  0.3155
   85SLPC  H18R 8127   8.046   4.451   4.190 -0.4920  1.5116  1.4365
   85SLPC  H18S 8128   7.941   4.326   4.108  1.2178 -0.4627  1.2360
   85SLPC  H18T 8129   7.881   4.415   4.258 -0.1482  1.3039  0.2251
   85SLPC   C33 8130   6.639   5.133   2.905  0.3044 -0.1248 -0.0408
   85SLPC   H3X 8131   6.548   5.186   2.939  0.7082  1.1064 -0.8003
   85SLPC   H3Y 8132   6.716   5.210   2.883 -0.2202  0.3849 -0.1221
   85SLPC   C34 8133   6.679   5.025   3.002  0.3249 -0.8130 -0.2965
   85SLPC   H4X 8134   6.759   4.966   2.951  0.6022 -0.8201  0.1398
   85SLPC   H4Y 8135   6.601   4.946   3.004  1.3604 -1.9138 -1.5891
   85SLPC   C35 8136   6.736   5.082   3.134  0.3982 -0.0882 -0.0002
   85SLPC   H5X 8137   6.648   5.117   3.192 -0.5551 -0.2029 -1.3354
   85SLPC   H5Y 8138   6.805   5.167   3.113  1.6677 -1.0704  0.0300
   85SLPC   C36 8139   6.823   4.989   3.216 -0.2628 -0.5644 -0.4254
   85SLPC   H6X 8140   6.918   4.975   3.160 -0.1435  1.1285 -0.6936
   85SLPC   H6Y 8141   6.771   4.893   3.237  1.1927 -1.2699  0.1134
   85SLPC   C37 8142   6.844   5.053   3.352 -0.4978  0.0566  0.1861
   85SLPC   H7X 8143   6.739   5.053   3.390 -0.8201 -0.9403 -0.6743
   85SLPC   H7Y 8144   6.883   5.157   3.354  3.6907 -1.3169  0.3999
   85SLPC   C38 8145   6.933   4.958   3.428 -0.1965  0.5273 -0.2241
   85SLPC   H8X 8146   7.036   4.963   3.385 -0.1142  0.1095 -0.0802
   85SLPC   H8Y 8147   6.896   4.854   3.418  2.2526 -0.8727  3.1297
   85SLPC   C39 8148   6.941   4.993   3.579 -0.4548  0.0926  0.4797
   85SLPC   H9X 8149   6.839   4.972   3.616 -0.3170  0.4837  1.0950
   85SLPC   H9Y 8150   6.976   5.098   3.586  2.9632 -1.0095  2.3606
   85SLPC  C310 8151   7.055   4.917   3.656  0.0177 -0.3035  0.3201
   85SLPC  H10X 8152   7.148   4.977   3.645  1.1168 -2.1666 -1.2451
   85SLPC  H10Y 8153   7.069   4.825   3.595  0.3192 -0.2208  0.2659
   85SLPC  C311 8154   7.028   4.897   3.806 -0.5657  0.4103 -0.1120
   85SLPC  H11X 8155   7.126   4.860   3.842 -0.5560  1.2981  0.8095
   85SLPC  H11Y 8156   6.950   4.822   3.832 -1.9377  2.0076  0.6184
   85SLPC  C312 8157   6.996   5.030   3.877  0.3083 -0.4240  0.3943
   85SLPC  H12X 8158   6.896   5.071   3.852  0.1674 -1.2975 -0.5348
   85SLPC  H12Y 8159   7.065   5.108   3.840 -1.5737  1.9001  1.4779
   85SLPC  C313 8160   7.011   5.031   4.034  0.0038 -0.1661  0.1632
   85SLPC  H13X 8161   7.113   4.989   4.049 -0.0102 -0.9814 -1.7168
   85SLPC  H13Y 8162   6.936   4.956   4.067 -1.5968  1.2843 -0.0160
   85SLPC  C314 8163   6.973   5.162   4.103  0.7789 -0.2200  0.1781
   85SLPC  H14X 8164   6.978   5.242   4.027  0.9180  0.0739  0.4947
   85SLPC  H14Y 8165   7.051   5.178   4.181 -0.0823  0.4780  0.9256
   85SLPC  C315 8166   6.839   5.163   4.170  0.3843 -0.1728 -0.3396
   85SLPC  H15X 8167   6.835   5.089   4.253 -0.2931 -0.3875 -0.5548
   85SLPC  H15Y 8168   6.757   5.129   4.104  0.7219 -0.8689 -0.4167
   85SLPC  C316 8169   6.814   5.299   4.233  0.7304 -0.0249  0.3562
   85SLPC  H16X 8170   6.707   5.317   4.255  0.0324 -2.1943 -0.9234
   85SLPC  H16Y 8171   6.849   5.380   4.165  0.6556  0.3049  0.7069
   85SLPC  C317 8172   6.885   5.335   4.362  0.1018 -0.3592 -0.1379
   85SLPC  H17X 8173   6.995   5.332   4.348 -0.1901  0.9730 -3.6534
   85SLPC  H17Y 8174   6.853   5.258   4.435  1.0332 -1.0679 -0.4729
   85SLPC  C318 8175   6.838   5.475   4.417 -0.0298  0.1963 -0.3213
   85SLPC  H18X 8176   6.735   5.459   4.454 -0.2733  1.5152 -0.3745
   85SLPC  H18Y 8177   6.826   5.551   4.337 -1.0555 -1.6882 -2.0334
   85SLPC  H18Z 8178   6.900   5.506   4.504  1.7527 -1.8628 -0.7459
   86SLPC     N 8179   0.518   3.575   2.133 -0.2668  0.2836 -1.0074
   86SLPC   C13 8180   0.551   3.630   1.999  0.2004 -0.0983  0.1767
   86SLPC  H13A 8181   0.631   3.579   1.950  0.0997 -0.0979  0.0121
   86SLPC  H13B 8182   0.464   3.635   1.935  1.0005 -0.2125 -0.9381
   86SLPC  H13C 8183   0.583   3.732   2.019 -1.6495  0.5133  0.2162
   86SLPC   C14 8184   0.607   3.640   2.242  0.2530  0.0286  0.0156
   86SLPC  H14A 8185   0.574   3.740   2.262  1.0750  0.2244  0.4265
   86SLPC  H14B 8186   0.605   3.587   2.336 -0.2671  0.5810  0.3207
   86SLPC  H14C 8187   0.708   3.650   2.205 -0.3303  0.0393 -1.6943
   86SLPC   C15 8188   0.550   3.427   2.128 -0.2393 -0.0186 -0.1227
   86SLPC  H15A 8189   0.505   3.376   2.212  1.7391  0.1416  1.0942
   86SLPC  H15B 8190   0.499   3.389   2.040 -2.0297  2.5158 -0.2891
   86SLPC  H15C 8191   0.657   3.412   2.125 -0.2299  0.0821 -0.3605
   86SLPC   C12 8192   0.372   3.595   2.161 -0.5242 -0.4238  0.2238
   86SLPC  H12A 8193   0.315   3.545   2.084  1.4871 -1.5387 -0.6135
   86SLPC  H12B 8194   0.346   3.700   2.165  1.2569  0.1025 -1.0255
   86SLPC   C11 8195   0.308   3.540   2.288  0.1473 -0.9415 -0.1908
   86SLPC  H11A 8196   0.205   3.582   2.288  0.1477 -0.9406 -0.4976
   86SLPC  H11B 8197   0.355   3.583   2.380 -0.1910  0.1197 -0.4942
   86SLPC     P 8198   0.196   3.309   2.217  0.3079 -0.1372  0.5292
   86SLPC   O13 8199   0.183   3.347   2.079  0.2057 -0.1172 -0.5829
   86SLPC   O14 8200   0.228   3.165   2.232  0.4656  0.1278 -0.1191
   86SLPC   O12 8201   0.300   3.397   2.293 -0.5488 -0.8651  0.2981
   86SLPC   O11 8202   0.051   3.337   2.276 -0.0381  0.0674  0.3921
   86SLPC    C1 8203   0.022   3.357   2.417  0.8187  0.1344 -0.3618
   86SLPC    HA 8204   0.120   3.351   2.469  1.2689 -1.7130 -1.3357
   86SLPC    HB 8205  -0.013   3.461   2.436  1.6667  0.9029 -2.6772
   86SLPC    C2 8206  -0.079   3.243   2.457 -0.1708 -0.1040  0.5372
   86SLPC    HS 8207  -0.163   3.226   2.385 -0.9097 -3.9847  2.0591
   86SLPC   O21 8208  -0.119   3.274   2.589 -0.0932 -0.1493  0.3273
   86SLPC   C21 8209  -0.218   3.365   2.588 -0.4393 -1.1157  0.3678
   86SLPC   O22 8210  -0.264   3.417   2.488  0.2935  0.0908 -0.0130
   86SLPC   C22 8211  -0.279   3.371   2.731  0.2332  0.8492  0.0077
   86SLPC   H2R 8212  -0.219   3.305   2.798 -2.5342 -0.4359  1.3908
   86SLPC   H2S 8213  -0.266   3.476   2.764 -0.2601  1.4596 -1.6658
   86SLPC    C3 8214  -0.010   3.099   2.473  0.1152 -0.3361  0.0784
   86SLPC    HX 8215   0.090   3.102   2.522  0.6199 -0.3063 -0.9257
   86SLPC    HY 8216   0.009   3.061   2.370  1.0619 -1.2896  0.5902
   86SLPC   O31 8217  -0.082   2.998   2.544  0.0879 -0.6810 -0.2027
   86SLPC   C31 8218  -0.059   2.872   2.520 -0.1076 -0.3425 -0.1031
   86SLPC   O32 8219   0.029   2.830   2.449 -0.1260  0.5077  0.3928
   86SLPC   C32 8220  -0.178   2.790   2.573 -0.1479 -0.7457  0.7649
   86SLPC   H2X 8221  -0.220   2.734   2.487  4.4634 -1.0239 -1.5697
   86SLPC   H2Y 8222  -0.259   2.860   2.604 -0.8506 -1.4283  0.5053
   86SLPC   C23 8223  -0.434   3.339   2.743  0.0843  0.6409  0.0580
   86SLPC   H3R 8224  -0.442   3.228   2.745 -0.8161  0.6410 -1.6315
   86SLPC   H3S 8225  -0.492   3.376   2.655  0.4390  0.1999 -0.3678
   86SLPC   C24 8226  -0.486   3.390   2.879 -0.7878  0.2526 -0.3839
   86SLPC   H4R 8227  -0.481   3.501   2.889  2.2662  0.2403 -0.6761
   86SLPC   H4S 8228  -0.411   3.348   2.949  1.3698  0.1839 -2.5833
   86SLPC   C25 8229  -0.626   3.335   2.905  0.3482  0.2538  0.1273
   86SLPC   H5R 8230  -0.619   3.224   2.906  0.7315  0.2198 -1.8569
   86SLPC   H5S 8231  -0.705   3.363   2.831  2.3036  0.6349 -1.9274
   86SLPC   C26 8232  -0.670   3.394   3.042 -0.2043 -0.0244  0.3870
   86SLPC   H6R 8233  -0.683   3.503   3.025  0.9805  0.2980  1.4613
   86SLPC   H6S 8234  -0.591   3.372   3.116 -0.6269 -1.0074  0.5648
   86SLPC   C27 8235  -0.800   3.331   3.096 -0.1642 -0.2440 -0.0117
   86SLPC   H7R 8236  -0.801   3.224   3.066  0.6126 -0.2432 -0.0401
   86SLPC   H7S 8237  -0.888   3.384   3.052 -1.2983 -0.6869  1.6217
   86SLPC   C28 8238  -0.812   3.352   3.250  0.2841 -0.3889 -0.4324
   86SLPC   H8R 8239  -0.720   3.313   3.299  0.1585 -2.2116 -1.5668
   86SLPC   H8S 8240  -0.872   3.267   3.289  0.8285 -0.6561 -0.1698
   86SLPC   C29 8241  -0.859   3.492   3.288  0.2922 -1.1515 -0.1816
   86SLPC   H9R 8242  -0.964   3.508   3.259  0.8758  0.2530 -1.7157
   86SLPC  C210 8243  -0.787   3.580   3.364  0.1046  0.8721  0.5903
   86SLPC  H10R 8244  -0.822   3.681   3.388  1.0453  1.4311 -0.3508
   86SLPC  C211 8245  -0.644   3.553   3.400 -0.0174 -0.0188  0.3529
   86SLPC  H11R 8246  -0.597   3.472   3.340  1.6515  0.6262  0.7169
   86SLPC  H11S 8247  -0.647   3.516   3.505  2.5726  0.2624  0.6026
   86SLPC  C212 8248  -0.562   3.667   3.362 -0.0639  0.7307 -0.3420
   86SLPC  H12R 8249  -0.548   3.693   3.257  2.3351 -1.6885 -0.7354
   86SLPC  C213 8250  -0.488   3.741   3.446  0.3923 -0.1753  0.7022
   86SLPC  H13R 8251  -0.442   3.832   3.404  0.7762 -0.7695 -0.1955
   86SLPC  C214 8252  -0.465   3.730   3.593 -0.5308 -0.1506  0.0116
   86SLPC  H14R 8253  -0.355   3.732   3.609  0.1082  2.1095 -3.5588
   86SLPC  H14S 8254  -0.509   3.636   3.633  1.8892 -1.2027  0.3438
   86SLPC  C215 8255  -0.507   3.840   3.680 -0.0090  0.0931  0.0053
   86SLPC  H15R 8256  -0.467   3.937   3.642 -0.2956  0.0534 -0.4037
   86SLPC  H15S 8257  -0.480   3.833   3.787 -1.5389 -0.8320  0.3646
   86SLPC  C216 8258  -0.658   3.872   3.679 -0.3341  0.6813  0.0121
   86SLPC  H16R 8259  -0.697   3.844   3.579  0.8850 -2.6529  0.3246
   86SLPC  H16S 8260  -0.675   3.979   3.704  0.9186  0.5068  1.8154
   86SLPC  C217 8261  -0.735   3.802   3.792 -0.2439 -0.6292 -0.2500
   86SLPC  H17R 8262  -0.722   3.853   3.890  1.0247 -0.4035 -0.5228
   86SLPC  H17S 8263  -0.689   3.701   3.797 -0.0904 -0.7263 -2.7735
   86SLPC  C218 8264  -0.882   3.780   3.761 -0.2877 -0.6474 -0.1643
   86SLPC  H18R 8265  -0.884   3.700   3.684 -3.0355  0.4044 -1.3040
   86SLPC  H18S 8266  -0.932   3.872   3.723 -2.8113 -1.8382  0.1017
   86SLPC  H18T 8267  -0.928   3.739   3.854 -0.2642 -0.8853 -0.2566
   86SLPC   C33 8268  -0.140   2.707   2.699 -0.7662  0.6276  0.5720
   86SLPC   H3X 8269  -0.105   2.761   2.789 -0.7871 -0.5409  1.2945
   86SLPC   H3Y 8270  -0.057   2.639   2.672 -1.0636  0.7360 -0.6919
   86SLPC   C34 8271  -0.248   2.613   2.745  0.5017  0.1968  0.1160
   86SLPC   H4X 8272  -0.301   2.571   2.657  0.6176  1.6479 -0.6868
   86SLPC   H4Y 8273  -0.323   2.673   2.800  0.6934 -0.9718  1.7198
   86SLPC   C35 8274  -0.199   2.509   2.848  0.2758  0.5372  0.5241
   86SLPC   H5X 8275  -0.129   2.548   2.925  0.6550  0.2528  0.3282
   86SLPC   H5Y 8276  -0.155   2.425   2.790 -2.4565 -1.3194  0.9606
   86SLPC   C36 8277  -0.307   2.432   2.935  0.3162 -0.3030 -0.0060
   86SLPC   H6X 8278  -0.242   2.364   2.993  1.2775  1.4670  1.0653
   86SLPC   H6Y 8279  -0.376   2.376   2.868 -1.6252  1.9566 -0.0419
   86SLPC   C37 8280  -0.387   2.516   3.037 -0.1208  0.2612  0.1054
   86SLPC   H7X 8281  -0.455   2.453   3.098  0.5300 -0.2698  0.3012
   86SLPC   H7Y 8282  -0.459   2.577   2.979 -0.0511  1.5689  1.3219
   86SLPC   C38 8283  -0.307   2.607   3.131 -0.3402 -0.0478  0.4088
   86SLPC   H8X 8284  -0.241   2.687   3.090 -1.2251  0.2627 -0.4485
   86SLPC   H8Y 8285  -0.234   2.563   3.202 -2.7736 -0.4525  2.8171
   86SLPC   C39 8286  -0.402   2.672   3.235 -0.1621  0.1171  0.5542
   86SLPC   H9X 8287  -0.415   2.585   3.303  1.9551 -0.3447  0.4357
   86SLPC   H9Y 8288  -0.500   2.691   3.185 -0.7327  1.3017  2.0122
   86SLPC  C310 8289  -0.354   2.793   3.323 -0.2574 -0.2367 -0.2355
   86SLPC  H10X 8290  -0.247   2.776   3.348 -0.5037 -0.7244  0.5386
   86SLPC  H10Y 8291  -0.406   2.807   3.420  0.1530  0.9693 -0.1814
   86SLPC  C311 8292  -0.367   2.927   3.253  0.1086  0.4620 -0.0856
   86SLPC  H11X 8293  -0.470   2.958   3.226  0.3808  1.9949  0.5468
   86SLPC  H11Y 8294  -0.308   2.942   3.160 -0.0879  3.8365  0.2046
   86SLPC  C312 8295  -0.339   3.044   3.345  0.5493 -0.0224  0.0583
   86SLPC  H12X 8296  -0.322   3.124   3.270  0.9165 -1.0176 -0.9611
   86SLPC  H12Y 8297  -0.241   3.016   3.391  0.9332  1.8042  0.4569
   86SLPC  C313 8298  -0.440   3.101   3.451  0.3234 -0.8299  0.4900
   86SLPC  H13X 8299  -0.463   3.026   3.530 -1.8929  0.7448  1.4268
   86SLPC  H13Y 8300  -0.536   3.133   3.406  1.2911 -0.5412 -1.4461
   86SLPC  C314 8301  -0.383   3.229   3.521  0.2137  0.2164  0.4435
   86SLPC  H14X 8302  -0.350   3.300   3.442 -2.5163  0.6326 -0.4312
   86SLPC  H14Y 8303  -0.294   3.205   3.583 -0.2781 -1.4782  0.5467
   86SLPC  C315 8304  -0.485   3.292   3.611  0.0087  0.2490 -0.5375
   86SLPC  H15X 8305  -0.558   3.342   3.543  0.9814  0.7721 -1.2088
   86SLPC  H15Y 8306  -0.431   3.369   3.670  2.8754 -0.1760 -2.4309
   86SLPC  C316 8307  -0.570   3.197   3.698 -0.5762 -0.3301 -0.6158
   86SLPC  H16X 8308  -0.498   3.124   3.739 -0.3829 -0.3437 -0.9779
   86SLPC  H16Y 8309  -0.625   3.125   3.633  0.3706 -1.7679  0.1346
   86SLPC  C317 8310  -0.652   3.261   3.809  0.2552  0.2068 -0.1162
   86SLPC  H17X 8311  -0.585   3.325   3.871  0.8697  0.7973 -1.3662
   86SLPC  H17Y 8312  -0.697   3.182   3.872 -0.4124  0.5165 -0.1872
   86SLPC  C318 8313  -0.774   3.341   3.770  0.3432 -0.0795  0.4276
   86SLPC  H18X 8314  -0.846   3.277   3.716  0.9203  0.5892 -1.2198
   86SLPC  H18Y 8315  -0.747   3.425   3.701  0.1442 -0.3871 -0.0329
   86SLPC  H18Z 8316  -0.829   3.388   3.854 -0.5527  0.8545 -0.6405
   87SLPC     N 8317   6.761   1.643   1.808  0.0458  0.1708 -1.0519
   87SLPC   C13 8318   6.680   1.766   1.803  0.8242 -0.8970 -0.0547
   87SLPC  H13A 8319   6.663   1.794   1.700  0.2383  1.9113  0.7135
   87SLPC  H13B 8320   6.583   1.752   1.849  0.5996  0.9847  0.1250
   87SLPC  H13C 8321   6.733   1.843   1.856  0.7451 -1.6290  1.1276
   87SLPC   C14 8322   6.895   1.667   1.753 -0.0385 -0.0975  1.0590
   87SLPC  H14A 8323   6.960   1.737   1.804 -2.3837  2.0294  1.3109
   87SLPC  H14B 8324   6.956   1.578   1.761  2.0139  1.1776  0.4279
   87SLPC  H14C 8325   6.877   1.691   1.649 -2.1093  1.8401  1.7919
   87SLPC   C15 8326   6.698   1.537   1.724 -0.4516  0.4605 -0.6457
   87SLPC  H15A 8327   6.602   1.503   1.758 -0.1350 -0.1654 -0.3686
   87SLPC  H15B 8328   6.674   1.570   1.624  0.4712  1.0478 -0.6849
   87SLPC  H15C 8329   6.763   1.452   1.717 -1.7926 -0.4727 -2.2450
   87SLPC   C12 8330   6.782   1.604   1.956 -0.5784 -0.0553 -0.5307
   87SLPC  H12A 8331   6.827   1.686   2.010  2.0701 -1.0854 -1.0316
   87SLPC  H12B 8332   6.847   1.518   1.962  1.3440  1.3473 -0.3387
   87SLPC   C11 8333   6.661   1.569   2.052 -0.4063  0.4641 -0.0891
   87SLPC  H11A 8334   6.698   1.531   2.150  0.9002  0.4758 -0.5673
   87SLPC  H11B 8335   6.601   1.480   2.024 -1.2910  1.0514 -0.1005
   87SLPC     P 8336   6.421   1.671   2.087  0.4566 -0.0927  0.2208
   87SLPC   O13 8337   6.368   1.786   2.164  0.2933  0.2850 -0.3225
   87SLPC   O14 8338   6.372   1.637   1.952  0.0377 -0.8455  0.0268
   87SLPC   O12 8339   6.575   1.688   2.081 -0.0135  0.0446 -0.0863
   87SLPC   O11 8340   6.405   1.541   2.182  0.1216  0.1541  0.3858
   87SLPC    C1 8341   6.457   1.540   2.312 -0.0434 -0.1080 -0.7647
   87SLPC    HA 8342   6.549   1.601   2.326 -1.9724  2.7542  0.5020
   87SLPC    HB 8343   6.378   1.581   2.379  1.0590 -0.1102  0.5949
   87SLPC    C2 8344   6.487   1.395   2.361 -0.1009 -0.3337  0.1901
   87SLPC    HS 8345   6.548   1.338   2.288 -2.3344 -2.3062 -0.2885
   87SLPC   O21 8346   6.364   1.331   2.382 -0.0380  0.9072 -0.7971
   87SLPC   C21 8347   6.369   1.204   2.404  0.9076 -0.0548  0.3903
   87SLPC   O22 8348   6.462   1.128   2.385 -0.1339  0.0385  0.5038
   87SLPC   C22 8349   6.226   1.153   2.455  0.2342 -0.4495 -0.4617
   87SLPC   H2R 8350   6.146   1.230   2.444 -1.1482 -2.0116 -1.7414
   87SLPC   H2S 8351   6.183   1.082   2.381  0.8306 -1.4122  0.1002
   87SLPC    C3 8352   6.561   1.407   2.499 -0.2121 -0.4236 -0.3401
   87SLPC    HX 8353   6.663   1.447   2.479 -0.0933 -0.1967  0.6395
   87SLPC    HY 8354   6.562   1.306   2.544  0.1430  0.8111  2.6561
   87SLPC   O31 8355   6.488   1.492   2.594  0.1114  0.1389  0.1969
   87SLPC   C31 8356   6.533   1.619   2.602 -0.0411 -0.1208 -0.2527
   87SLPC   O32 8357   6.610   1.676   2.531  0.0302 -0.2054  0.5889
   87SLPC   C32 8358   6.453   1.680   2.718 -0.5345  0.4174 -0.2244
   87SLPC   H2X 8359   6.348   1.687   2.682 -0.4325 -2.7150 -1.4224
   87SLPC   H2Y 8360   6.496   1.783   2.718 -1.6770  1.0250  3.1112
   87SLPC   C23 8361   6.223   1.086   2.592  0.6767  0.3463  0.1312
   87SLPC   H3R 8362   6.316   1.030   2.616  0.0562 -0.7104  0.1108
   87SLPC   H3S 8363   6.139   1.013   2.589  1.1767 -0.2667 -3.5189
   87SLPC   C24 8364   6.206   1.186   2.709  0.2061 -0.6271  0.1583
   87SLPC   H4R 8365   6.105   1.231   2.714  1.7969  3.4597 -0.0848
   87SLPC   H4S 8366   6.275   1.270   2.683 -1.0097 -0.4174 -2.7870
   87SLPC   C25 8367   6.256   1.132   2.843  0.4129 -0.0029  0.3959
   87SLPC   H5R 8368   6.362   1.107   2.821  0.1061  0.2532 -1.6369
   87SLPC   H5S 8369   6.209   1.032   2.860 -0.2297 -0.2872 -2.5104
   87SLPC   C26 8370   6.240   1.229   2.957  0.6088  0.0038 -0.4578
   87SLPC   H6R 8371   6.135   1.250   2.987  1.2617 -0.6048  2.5608
   87SLPC   H6S 8372   6.275   1.324   2.911  1.3638 -1.1314 -2.3873
   87SLPC   C27 8373   6.323   1.179   3.080 -0.6465  0.1416 -0.0468
   87SLPC   H7R 8374   6.423   1.144   3.046  0.0631  0.1910  1.8271
   87SLPC   H7S 8375   6.278   1.081   3.105 -2.4336  0.4406 -1.8505
   87SLPC   C28 8376   6.341   1.252   3.209 -0.1380  0.5421 -0.7855
   87SLPC   H8R 8377   6.359   1.181   3.293 -0.2342 -1.1581 -2.1434
   87SLPC   H8S 8378   6.249   1.308   3.238  0.5753  0.5742  1.7220
   87SLPC   C29 8379   6.445   1.361   3.205 -0.5672 -0.3702  0.1393
   87SLPC   H9R 8380   6.461   1.397   3.102 -0.3833 -0.7529  0.0317
   87SLPC  C210 8381   6.529   1.402   3.302 -0.1227 -0.2263  0.4206
   87SLPC  H10R 8382   6.596   1.484   3.270 -2.5339  0.4235 -3.7189
   87SLPC  C211 8383   6.537   1.351   3.444 -0.2953  0.3391 -0.3709
   87SLPC  H11R 8384   6.635   1.376   3.490  1.4449  0.0663 -3.6505
   87SLPC  H11S 8385   6.519   1.241   3.442 -1.3636  0.4298  1.4627
   87SLPC  C212 8386   6.433   1.424   3.525 -0.1297  0.0404 -0.1500
   87SLPC  H12R 8387   6.332   1.426   3.481  0.9178 -1.1237 -2.8115
   87SLPC  C213 8388   6.449   1.479   3.647 -0.3123 -0.5732  0.3653
   87SLPC  H13R 8389   6.360   1.511   3.703  1.0305  2.8817  0.8169
   87SLPC  C214 8390   6.577   1.488   3.733 -0.3003 -0.0359  0.1043
   87SLPC  H14R 8391   6.577   1.592   3.771  0.5812  0.7179 -1.8563
   87SLPC  H14S 8392   6.665   1.488   3.665 -0.5211  1.1950 -0.1904
   87SLPC  C215 8393   6.576   1.396   3.857  0.2735 -0.1215 -0.1501
   87SLPC  H15R 8394   6.511   1.431   3.940  1.3587  0.5318  0.4543
   87SLPC  H15S 8395   6.678   1.408   3.900  0.3696  0.4733 -0.5282
   87SLPC  C216 8396   6.537   1.249   3.828 -0.6330  0.0801  0.4098
   87SLPC  H16R 8397   6.594   1.224   3.736  0.1420 -0.2566  0.9701
   87SLPC  H16S 8398   6.429   1.231   3.815 -0.4651 -2.3730  1.7935
   87SLPC  C217 8399   6.594   1.165   3.934  0.0769  0.0255 -0.2085
   87SLPC  H17R 8400   6.553   1.063   3.918 -0.9950  0.2075  1.1806
   87SLPC  H17S 8401   6.566   1.202   4.035  1.5715 -2.8524  1.3818
   87SLPC  C218 8402   6.744   1.153   3.929 -0.3280 -0.1481 -0.1722
   87SLPC  H18R 8403   6.774   1.136   3.823 -0.2939  0.6168 -0.2908
   87SLPC  H18S 8404   6.789   1.064   3.978 -0.3391 -0.6171 -0.9875
   87SLPC  H18T 8405   6.798   1.237   3.977  1.4225 -2.2393  1.7606
   87SLPC   C33 8406   6.477   1.602   2.851  0.0533 -0.2218  0.2627
   87SLPC   H3X 8407   6.586   1.584   2.854 -0.0094 -1.1237 -1.4821
   87SLPC   H3Y 8408   6.420   1.506   2.857 -1.9811  0.7189 -2.1458
   87SLPC   C34 8409   6.443   1.692   2.964  0.1191 -0.4679 -0.2130
   87SLPC   H4X 8410   6.510   1.780   2.968 -0.9541  0.3888 -0.3943
   87SLPC   H4Y 8411   6.463   1.636   3.058  3.2863 -0.1881 -0.6336
   87SLPC   C35 8412   6.297   1.746   2.960 -0.0899 -0.1143 -0.5427
   87SLPC   H5X 8413   6.259   1.768   2.858 -1.2415 -0.7104 -0.2473
   87SLPC   H5Y 8414   6.292   1.835   3.026 -0.9387 -0.9845  0.5919
   87SLPC   C36 8415   6.197   1.649   3.028 -0.6667  0.5244  0.0691
   87SLPC   H6X 8416   6.222   1.551   2.982 -1.2728  0.3221  0.1643
   87SLPC   H6Y 8417   6.097   1.685   2.998 -1.6368 -2.6158 -0.8135
   87SLPC   C37 8418   6.201   1.643   3.182  0.3906  0.4385  0.0192
   87SLPC   H7X 8419   6.306   1.630   3.217  0.3254 -0.8681 -0.2304
   87SLPC   H7Y 8420   6.147   1.550   3.211  0.2094  0.7066  0.5692
   87SLPC   C38 8421   6.140   1.769   3.255  0.5829  0.4172  0.5297
   87SLPC   H8X 8422   6.037   1.776   3.215 -0.0847 -0.5596  1.9958
   87SLPC   H8Y 8423   6.195   1.863   3.231 -2.1055  1.4515 -2.1782
   87SLPC   C39 8424   6.138   1.738   3.401 -0.2930  0.9528  0.2775
   87SLPC   H9X 8425   6.242   1.737   3.440 -0.1526 -0.4217 -0.1038
   87SLPC   H9Y 8426   6.098   1.636   3.420 -1.5702  1.4849  0.5422
   87SLPC  C310 8427   6.052   1.823   3.493 -0.5310 -0.1843  0.4522
   87SLPC  H10X 8428   5.949   1.834   3.451 -0.6170  0.9554  0.9114
   87SLPC  H10Y 8429   6.098   1.925   3.492 -1.7083  0.3913 -1.5043
   87SLPC  C311 8430   6.043   1.758   3.635 -0.3081 -0.2042 -0.4100
   87SLPC  H11X 8431   6.150   1.748   3.664  0.3899  2.6887 -1.5849
   87SLPC  H11Y 8432   6.006   1.654   3.624 -1.2452 -0.0238  0.8814
   87SLPC  C312 8433   5.957   1.847   3.724 -0.5857 -1.1139 -0.2379
   87SLPC  H12X 8434   5.927   1.790   3.814 -0.2774  1.5141  1.6636
   87SLPC  H12Y 8435   5.865   1.857   3.663 -1.2794 -2.8749  0.4596
   87SLPC  C313 8436   6.020   1.976   3.769  0.2814  0.0893 -0.1985
   87SLPC  H13X 8437   6.046   2.033   3.676  0.2823 -0.3665 -0.4798
   87SLPC  H13Y 8438   6.117   1.940   3.810  0.2165 -0.0455 -0.1660
   87SLPC  C314 8439   5.923   2.067   3.847 -0.7189 -0.1852  0.0897
   87SLPC  H14X 8440   5.882   1.997   3.924 -1.0093 -0.8759 -0.6699
   87SLPC  H14Y 8441   5.842   2.100   3.779  0.8497 -0.0828 -1.7937
   87SLPC  C315 8442   5.987   2.179   3.919 -0.4908 -0.1418 -0.2825
   87SLPC  H15X 8443   6.001   2.268   3.853  0.6884  0.2865  0.5168
   87SLPC  H15Y 8444   6.090   2.155   3.951 -0.3855  1.5986  0.8201
   87SLPC  C316 8445   5.922   2.215   4.049 -0.3048 -0.8294  0.2408
   87SLPC  H16X 8446   5.886   2.124   4.101 -3.3440  0.6244  0.9065
   87SLPC  H16Y 8447   5.832   2.276   4.023 -0.3266  0.2326  2.6086
   87SLPC  C317 8448   6.009   2.305   4.143 -0.0045  0.3833 -0.0082
   87SLPC  H17X 8449   6.112   2.262   4.140  0.1856  0.8861 -1.4221
   87SLPC  H17Y 8450   5.964   2.302   4.244  2.5533  1.1484  1.2335
   87SLPC  C318 8451   6.026   2.457   4.115  1.0798 -0.3502 -0.0187
   87SLPC  H18X 8452   6.076   2.462   4.016 -0.7522  0.7473 -0.9441
   87SLPC  H18Y 8453   6.088   2.507   4.193 -0.1154  0.0043  0.7219
   87SLPC  H18Z 8454   5.928   2.509   4.109  1.4954  0.2847 -3.0782
   88SLPC     N 8455   7.124   6.800   1.969  0.1386  0.3064 -1.1015
   88SLPC   C13 8456   7.059   6.917   2.037  0.0490 -0.2639  0.3226
   88SLPC  H13A 8457   6.959   6.931   1.998  0.3321  1.8114  0.1942
   88SLPC  H13B 8458   7.065   6.910   2.145  1.5698  0.1854  0.2997
   88SLPC  H13C 8459   7.120   7.003   2.013 -0.1273 -0.7633 -2.1272
   88SLPC   C14 8460   7.099   6.815   1.823  0.3658  0.8449  0.9273
   88SLPC  H14A 8461   7.120   6.721   1.773 -1.7080  1.2286 -0.8471
   88SLPC  H14B 8462   6.996   6.835   1.799  0.1910  1.2423  1.9841
   88SLPC  H14C 8463   7.160   6.890   1.774  0.4638  0.0421 -0.2520
   88SLPC   C15 8464   7.046   6.682   2.020 -0.4300 -0.5310  0.3467
   88SLPC  H15A 8465   6.950   6.673   1.971 -0.5712 -0.3284  0.5845
   88SLPC  H15B 8466   7.105   6.592   2.010  0.0130 -0.1381 -0.6917
   88SLPC  H15C 8467   7.028   6.697   2.125  1.9890 -0.2471  0.7754
   88SLPC   C12 8468   7.269   6.781   2.000 -0.8330 -0.1751  0.1588
   88SLPC  H12A 8469   7.317   6.856   1.939 -0.7725 -1.3107 -1.2316
   88SLPC  H12B 8470   7.316   6.691   1.966  3.1222  1.6690  0.2018
   88SLPC   C11 8471   7.307   6.789   2.147 -0.3053  0.4780  0.2249
   88SLPC  H11A 8472   7.416   6.766   2.157  0.0263  1.3371 -1.1301
   88SLPC  H11B 8473   7.254   6.714   2.209 -0.7320  1.4692  1.0929
   88SLPC     P 8474   7.374   7.043   2.173 -0.1237  0.2946 -0.2598
   88SLPC   O13 8475   7.511   7.010   2.212 -0.6559  0.3567 -0.3537
   88SLPC   O14 8476   7.364   7.090   2.037  0.1628 -0.4326 -0.0768
   88SLPC   O12 8477   7.282   6.917   2.208 -0.4775 -0.0582  0.8167
   88SLPC   O11 8478   7.307   7.147   2.278 -0.6372 -0.2792  0.4898
   88SLPC    C1 8479   7.283   7.112   2.408  0.0923  0.6936  0.2887
   88SLPC    HA 8480   7.173   7.096   2.409  0.2209 -0.2819  0.1191
   88SLPC    HB 8481   7.325   7.016   2.445  1.0794  1.7410  1.9783
   88SLPC    C2 8482   7.332   7.211   2.512 -0.1608 -0.3231 -0.0150
   88SLPC    HS 8483   7.317   7.309   2.463  0.8631 -0.3204 -0.3384
   88SLPC   O21 8484   7.470   7.196   2.547 -0.7730 -0.1229  0.5976
   88SLPC   C21 8485   7.559   7.296   2.541  0.0538 -0.3075 -0.2035
   88SLPC   O22 8486   7.536   7.409   2.505  0.3316 -0.0554 -0.3844
   88SLPC   C22 8487   7.688   7.250   2.610  0.3468 -0.0927 -0.9256
   88SLPC   H2R 8488   7.657   7.184   2.694  0.9934  1.1090  0.2975
   88SLPC   H2S 8489   7.752   7.200   2.535  2.5942  2.3904 -0.7830
   88SLPC    C3 8490   7.244   7.200   2.647  0.7500  0.4685  0.0487
   88SLPC    HX 8491   7.257   7.099   2.693  1.5180  0.7819  0.5438
   88SLPC    HY 8492   7.138   7.198   2.612  0.1103 -1.2049  1.8480
   88SLPC   O31 8493   7.278   7.305   2.739  0.0811 -0.6431 -0.1011
   88SLPC   C31 8494   7.346   7.259   2.847  0.6030  0.5597 -0.4826
   88SLPC   O32 8495   7.356   7.142   2.882  0.0233 -0.2088 -0.3055
   88SLPC   C32 8496   7.412   7.375   2.923 -0.0590 -0.0499  0.4257
   88SLPC   H2X 8497   7.339   7.448   2.962 -2.5892 -0.7878 -2.5218
   88SLPC   H2Y 8498   7.491   7.425   2.863  2.1624 -1.1965  2.2145
   88SLPC   C23 8499   7.783   7.356   2.675  0.8881  0.3200 -0.5045
   88SLPC   H3R 8500   7.749   7.387   2.776 -1.7831 -1.7467 -0.6660
   88SLPC   H3S 8501   7.789   7.445   2.608  0.5717  0.5305 -0.2581
   88SLPC   C24 8502   7.927   7.298   2.696  0.0485 -0.7213 -0.1132
   88SLPC   H4R 8503   8.000   7.372   2.736  0.6098 -1.0145 -0.5926
   88SLPC   H4S 8504   7.979   7.273   2.602  1.7177  0.1769  0.5290
   88SLPC   C25 8505   7.943   7.182   2.796  0.8506 -0.2305 -0.1468
   88SLPC   H5R 8506   8.046   7.141   2.782  0.8141 -0.3447 -0.0824
   88SLPC   H5S 8507   7.873   7.103   2.762 -0.5796  1.5991 -1.5960
   88SLPC   C26 8508   7.915   7.226   2.939 -0.4799 -0.6404  0.4973
   88SLPC   H6R 8509   7.806   7.241   2.953 -0.5056  2.1931 -1.7727
   88SLPC   H6S 8510   7.962   7.322   2.968 -1.6515  0.1794 -0.2485
   88SLPC   C27 8511   7.986   7.119   3.032  0.1787  0.3332 -0.6779
   88SLPC   H7R 8512   8.096   7.132   3.045 -0.0497 -0.5388  3.7481
   88SLPC   H7S 8513   7.974   7.015   2.996  0.2138 -0.3761  1.2649
   88SLPC   C28 8514   7.927   7.117   3.179 -0.0583  0.1676 -0.3414
   88SLPC   H8R 8515   7.980   7.029   3.220  0.9204  0.6191 -0.5893
   88SLPC   H8S 8516   7.819   7.091   3.181  0.5470 -2.5395  0.1454
   88SLPC   C29 8517   7.951   7.248   3.259 -0.3136  0.3401  0.5099
   88SLPC   H9R 8518   7.890   7.329   3.215 -2.3306 -0.9553  0.7766
   88SLPC  C210 8519   8.024   7.253   3.370  0.5987 -0.6200 -1.2904
   88SLPC  H10R 8520   8.036   7.356   3.407  3.2857 -0.6693 -1.8391
   88SLPC  C211 8521   8.091   7.146   3.451 -0.0770  0.0679 -0.0800
   88SLPC  H11R 8522   8.198   7.177   3.452 -0.4189  1.3240 -0.0934
   88SLPC  H11S 8523   8.106   7.056   3.388 -2.3130  0.7430 -1.6878
   88SLPC  C212 8524   8.040   7.122   3.595  0.3076  0.7864  0.0090
   88SLPC  H12R 8525   7.935   7.146   3.617  0.3675  0.4565  0.6782
   88SLPC  C213 8526   8.109   7.082   3.704 -0.3379  0.0757  0.0749
   88SLPC  H13R 8527   8.078   7.064   3.808  1.7093 -0.4045  0.6543
   88SLPC  C214 8528   8.254   7.045   3.701  0.4644  0.1132 -0.2117
   88SLPC  H14R 8529   8.270   6.980   3.612 -0.9490 -1.3281  0.5355
   88SLPC  H14S 8530   8.278   6.971   3.780  0.0457 -0.9305 -1.0305
   88SLPC  C215 8531   8.356   7.152   3.720  0.0550  0.4038  0.3166
   88SLPC  H15R 8532   8.337   7.217   3.808  1.1629  2.2779 -0.7610
   88SLPC  H15S 8533   8.343   7.217   3.630 -2.3776 -2.0924 -1.3014
   88SLPC  C216 8534   8.495   7.085   3.737  0.2236  0.2144  0.0799
   88SLPC  H16R 8535   8.520   7.030   3.644 -0.3560 -0.7689  0.4868
   88SLPC  H16S 8536   8.502   7.006   3.815  0.2641  0.4655  0.3337
   88SLPC  C217 8537   8.602   7.189   3.765 -0.1930 -0.7096 -0.2657
   88SLPC  H17R 8538   8.580   7.224   3.868  0.4119 -2.6382  0.5656
   88SLPC  H17S 8539   8.598   7.281   3.703 -1.1313 -0.2825  0.3957
   88SLPC  C218 8540   8.740   7.118   3.782 -0.1044 -0.3561 -0.8072
   88SLPC  H18R 8541   8.727   7.054   3.872 -1.5484  0.7302 -0.1984
   88SLPC  H18S 8542   8.822   7.192   3.786  0.6799 -1.2464  0.0539
   88SLPC  H18T 8543   8.767   7.064   3.689  1.1755 -1.4671  0.1548
   88SLPC   C33 8544   7.495   7.323   3.045  0.6624  0.1131 -0.2259
   88SLPC   H3X 8545   7.564   7.406   3.072 -0.2383  1.6471 -2.3394
   88SLPC   H3Y 8546   7.548   7.229   3.019  2.3772  0.4926  1.6788
   88SLPC   C34 8547   7.412   7.314   3.174 -0.8187 -0.1828 -0.7624
   88SLPC   H4X 8548   7.336   7.233   3.167 -0.4956 -0.3929 -1.9610
   88SLPC   H4Y 8549   7.361   7.411   3.189  0.8134  0.4866  0.7799
   88SLPC   C35 8550   7.508   7.276   3.294  0.3115  0.1043  0.5826
   88SLPC   H5X 8551   7.599   7.340   3.303  0.5305 -0.2661  0.9975
   88SLPC   H5Y 8552   7.552   7.178   3.267 -0.4316  0.0108 -0.3546
   88SLPC   C36 8553   7.439   7.269   3.434  0.3158 -0.5462  0.3111
   88SLPC   H6X 8554   7.511   7.225   3.507 -0.6720  0.6924  2.0884
   88SLPC   H6Y 8555   7.357   7.195   3.429  1.0524 -1.4687  1.2914
   88SLPC   C37 8556   7.382   7.403   3.493 -0.6152 -0.4350 -0.8170
   88SLPC   H7X 8557   7.300   7.445   3.431 -1.2938  0.9151  0.9115
   88SLPC   H7Y 8558   7.463   7.478   3.500 -1.2633  0.2628 -0.7388
   88SLPC   C38 8559   7.326   7.388   3.637 -0.3071 -0.1150 -0.2452
   88SLPC   H8X 8560   7.407   7.322   3.675  0.8440  0.0460 -2.2630
   88SLPC   H8Y 8561   7.233   7.329   3.654 -0.0076 -0.1851  1.3577
   88SLPC   C39 8562   7.301   7.515   3.726 -0.1938 -0.3630 -0.2928
   88SLPC   H9X 8563   7.282   7.604   3.662  3.0159  0.1976 -0.6124
   88SLPC   H9Y 8564   7.391   7.530   3.790  0.0273  0.9048 -0.8725
   88SLPC  C310 8565   7.174   7.492   3.815 -0.5768  0.0954  0.1668
   88SLPC  H10X 8566   7.175   7.390   3.858 -0.8768 -0.4470 -1.0605
   88SLPC  H10Y 8567   7.091   7.503   3.742  0.9833  1.9330 -1.4389
   88SLPC  C311 8568   7.152   7.592   3.937  0.0780 -0.2722  0.0697
   88SLPC  H11X 8569   7.057   7.560   3.985  0.7229 -0.0675  1.5430
   88SLPC  H11Y 8570   7.141   7.690   3.886 -0.8462 -0.7311 -0.6391
   88SLPC  C312 8571   7.258   7.576   4.044 -0.2983 -0.1970  0.3048
   88SLPC  H12X 8572   7.349   7.636   4.021 -0.4237 -0.0716  0.1320
   88SLPC  H12Y 8573   7.282   7.467   4.045  0.0630 -0.1204  1.1791
   88SLPC  C313 8574   7.214   7.626   4.180 -0.8197 -0.3081  0.6212
   88SLPC  H13X 8575   7.156   7.554   4.242 -0.4906 -0.7089  0.4705
   88SLPC  H13Y 8576   7.136   7.702   4.159 -0.1568  0.4276  0.7707
   88SLPC  C314 8577   7.323   7.687   4.265 -0.1804 -0.3583  0.1716
   88SLPC  H14X 8578   7.367   7.775   4.214  1.5437 -1.6228 -0.6392
   88SLPC  H14Y 8579   7.402   7.610   4.275 -0.7568 -1.1509 -1.0735
   88SLPC  C315 8580   7.279   7.748   4.403  0.3540  0.0707 -0.5580
   88SLPC  H15X 8581   7.210   7.834   4.388  0.7585  0.2113 -1.7025
   88SLPC  H15Y 8582   7.373   7.791   4.445 -0.4604  1.0454  0.3305
   88SLPC  C316 8583   7.234   7.626   4.497  0.9354  0.3485  0.3361
   88SLPC  H16X 8584   7.320   7.555   4.505  0.8261  0.1798 -0.0052
   88SLPC  H16Y 8585   7.157   7.561   4.451  0.6082  1.2744 -0.4502
   88SLPC  C317 8586   7.210   7.670   4.637 -0.8103  0.8160 -0.6551
   88SLPC  H17X 8587   7.123   7.739   4.643 -0.2843  1.3586  1.5014
   88SLPC  H17Y 8588   7.304   7.713   4.679 -1.1283  2.8725 -1.8609
   88SLPC  C318 8589   7.165   7.552   4.722 -0.1878 -0.3013  0.4085
   88SLPC  H18X 8590   7.113   7.479   4.657  0.6576  0.5114 -1.2326
   88SLPC  H18Y 8591   7.106   7.583   4.811  0.7883 -0.2492  1.0576
   88SLPC  H18Z 8592   7.251   7.498   4.768  0.2494  1.4952  1.8519
   89SAPE     N 8593   3.942   2.078   6.428  0.0088 -0.4569 -1.1879
   89SAPE   HN1 8594   3.883   2.142   6.484  1.1930 -0.5186  0.2000
   89SAPE   HN2 8595   3.887   2.033   6.352 -1.6817 -2.1704  0.9315
   89SAPE   HN3 8596   3.954   2.003   6.499 -1.8389  1.0818  0.8835
   89SAPE   C12 8597   4.067   2.135   6.378 -0.4734 -0.5130  0.3728
   89SAPE  H12A 8598   4.153   2.063   6.381 -0.6053 -0.6309  1.9175
   89SAPE  H12B 8599   4.086   2.222   6.444 -0.0519  0.3943 -0.8990
   89SAPE   C11 8600   4.063   2.186   6.233  0.2644 -0.3597 -0.1361
   89SAPE  H11A 8601   4.098   2.106   6.165 -2.1696  1.3859 -3.8080
   89SAPE  H11B 8602   4.137   2.266   6.214 -0.6736  0.1171 -2.0386
   89SAPE     P 8603   3.880   2.381   6.232  0.0248 -0.8588 -0.0844
   89SAPE   O13 8604   3.785   2.361   6.340 -0.8648  0.0967 -0.0320
   89SAPE   O14 8605   4.004   2.462   6.264  0.2483  0.3465  0.5186
   89SAPE   O12 8606   3.934   2.238   6.195 -0.5230  0.0967  0.2263
   89SAPE   O11 8607   3.810   2.420   6.099 -0.3646 -0.1344 -0.2036
   89SAPE    C1 8608   3.879   2.410   5.975  0.3401  0.7798  0.1657
   89SAPE    HA 8609   3.967   2.343   5.965  0.5465  1.1651 -0.7166
   89SAPE    HB 8610   3.809   2.374   5.896 -0.7739  0.0650  1.4299
   89SAPE    C2 8611   3.938   2.552   5.924  0.5532  0.4996 -0.6813
   89SAPE    HS 8612   4.000   2.588   6.009  0.1981  2.1283 -1.0750
   89SAPE   O21 8613   3.834   2.649   5.918  0.3350 -0.6194 -0.3019
   89SAPE   C21 8614   3.720   2.635   5.860 -0.2439 -0.3236 -0.1316
   89SAPE   O22 8615   3.682   2.549   5.782 -0.5649  0.2829 -0.2290
   89SAPE   C22 8616   3.628   2.739   5.924  0.5929 -0.0980  0.5372
   89SAPE   H2R 8617   3.580   2.680   6.005  0.4699 -2.9391 -1.4495
   89SAPE   H2S 8618   3.686   2.823   5.968  2.1547 -0.8699  0.0161
   89SAPE    C3 8619   4.031   2.556   5.798  0.2261  0.1544 -0.2915
   89SAPE    HX 8620   4.084   2.459   5.803 -1.4816 -0.8554 -0.6791
   89SAPE    HY 8621   4.108   2.635   5.814  0.3120  0.6252 -2.5936
   89SAPE   O31 8622   3.963   2.569   5.675 -0.0043 -1.0574  0.7316
   89SAPE   C31 8623   3.913   2.455   5.618  0.0474  0.1779  0.8723
   89SAPE   O32 8624   3.910   2.345   5.662 -0.0382 -0.5330  0.1800
   89SAPE   C32 8625   3.831   2.491   5.491 -0.0546 -0.3936 -0.1425
   89SAPE   H2X 8626   3.886   2.487   5.394 -1.6049  0.3478 -1.0876
   89SAPE   H2Y 8627   3.789   2.593   5.502 -1.9937 -1.2188  0.6644
   89SAPE   C23 8628   3.519   2.788   5.827 -0.4175 -0.5616  0.1006
   89SAPE   H3R 8629   3.437   2.841   5.879 -0.6558 -1.7755  1.0050
   89SAPE   H3S 8630   3.473   2.705   5.768 -0.0870 -0.3023 -0.5324
   89SAPE   C24 8631   3.573   2.893   5.723 -0.1838 -0.0037  0.7218
   89SAPE   H4R 8632   3.627   2.966   5.786  1.4337  1.2487 -1.9179
   89SAPE   H4S 8633   3.495   2.947   5.666  1.1851 -0.4830 -1.7827
   89SAPE   C25 8634   3.658   2.822   5.615  0.5362 -1.2363  0.2325
   89SAPE   H5R 8635   3.605   2.757   5.544  0.7687  0.0060 -1.1363
   89SAPE   C26 8636   3.786   2.851   5.593 -1.1816  0.1036  0.6897
   89SAPE   H6R 8637   3.837   2.812   5.504 -3.7673 -1.2303 -0.3310
   89SAPE   C27 8638   3.866   2.943   5.672 -0.7444 -0.1419  0.0209
   89SAPE   H7R 8639   3.857   2.905   5.776  1.6269 -0.5104  0.1457
   89SAPE   H7S 8640   3.812   3.039   5.685  1.4698  1.4578 -1.8507
   89SAPE   C28 8641   4.014   2.970   5.638 -0.4815  0.0092  0.2267
   89SAPE   H8R 8642   4.077   2.908   5.704 -0.0722 -1.1102 -1.1714
   89SAPE   C29 8643   4.076   3.052   5.546 -0.6247  0.9402  0.5549
   89SAPE   H9R 8644   4.186   3.056   5.551 -0.5416  2.4930 -1.3338
   89SAPE  C210 8645   4.012   3.149   5.452  0.6264  0.4162  0.0138
   89SAPE  H10R 8646   4.056   3.251   5.459 -0.3759  0.9173 -0.7595
   89SAPE  H10S 8647   3.905   3.151   5.481  0.3535 -1.1108 -0.7949
   89SAPE  C211 8648   4.044   3.083   5.317  0.9392  0.5784  0.2256
   89SAPE  H11R 8649   4.151   3.063   5.302  0.8742  1.1201 -1.1028
   89SAPE  C212 8650   3.952   3.063   5.217  0.2230 -0.8215 -0.3992
   89SAPE  H12R 8651   3.981   3.009   5.126  0.0188  0.3438 -1.1761
   89SAPE  C213 8652   3.804   3.080   5.227  0.2069  0.4763 -0.1761
   89SAPE  H13R 8653   3.767   3.159   5.159  0.1515  0.3071 -0.3445
   89SAPE  H13S 8654   3.774   3.098   5.332  0.8054 -2.3198  0.5610
   89SAPE  C214 8655   3.743   2.948   5.179 -0.0916  0.4101  0.3979
   89SAPE  H14R 8656   3.779   2.856   5.227 -0.5035  0.9119  1.7148
   89SAPE  C215 8657   3.653   2.923   5.084  0.0484 -0.2176  0.5225
   89SAPE  H15R 8658   3.638   2.818   5.053  5.1188 -0.6778 -1.3250
   89SAPE  C216 8659   3.584   3.017   4.991 -0.1252 -0.0716 -1.1389
   89SAPE  H16R 8660   3.622   3.120   4.999  3.4086 -1.0409 -3.3706
   89SAPE  H16S 8661   3.474   3.002   4.985 -0.0632  0.1095 -3.7074
   89SAPE  C217 8662   3.625   2.974   4.841  0.3150 -0.1608 -0.4006
   89SAPE  H17R 8663   3.579   3.064   4.795 -0.7685  0.3645  1.5980
   89SAPE  H17S 8664   3.563   2.889   4.805  0.3536 -0.6694  0.6821
   89SAPE  C218 8665   3.773   2.973   4.809 -0.0398 -0.8833  0.0909
   89SAPE  H18R 8666   3.818   2.889   4.865 -0.6174 -1.0273  0.3521
   89SAPE  H18S 8667   3.814   3.066   4.852 -0.4011 -0.2728 -0.8423
   89SAPE  C219 8668   3.804   2.965   4.659  0.2929  0.0055  0.3272
   89SAPE  H19R 8669   3.742   2.879   4.625  0.8936 -0.3081  0.0062
   89SAPE  H19S 8670   3.907   2.922   4.651  0.6134  0.7661  0.2875
   89SAPE  C220 8671   3.792   3.099   4.582  0.7198 -0.3668  0.5823
   89SAPE  H20R 8672   3.850   3.183   4.627  0.8835  1.3770 -2.6043
   89SAPE  H20S 8673   3.686   3.126   4.564  0.5173 -2.2347 -1.4579
   89SAPE  H20T 8674   3.830   3.084   4.479 -1.5014 -1.4322 -0.1382
   89SAPE   C33 8675   3.702   2.400   5.461 -0.5699  0.2501 -0.2455
   89SAPE   H3X 8676   3.633   2.409   5.548 -2.2639 -0.9123 -1.4023
   89SAPE   H3Y 8677   3.721   2.293   5.441  1.3277  0.1975  1.4722
   89SAPE   C34 8678   3.626   2.440   5.337 -0.2282 -0.1658 -0.1905
   89SAPE   H4X 8679   3.582   2.542   5.336  1.3447  0.5582 -1.3164
   89SAPE   H4Y 8680   3.540   2.370   5.331 -0.6833  0.3569  0.1605
   89SAPE   C35 8681   3.699   2.443   5.199 -0.0735  0.1889  0.3760
   89SAPE   H5X 8682   3.760   2.350   5.189  1.6696  1.4091 -1.1016
   89SAPE   H5Y 8683   3.762   2.531   5.174 -0.1512 -0.7554 -4.0261
   89SAPE   C36 8684   3.612   2.454   5.071  0.2466  0.2877 -0.1561
   89SAPE   H6X 8685   3.523   2.521   5.081  0.2612  0.7070 -2.3724
   89SAPE   H6Y 8686   3.570   2.354   5.046 -0.5164  0.7620 -0.8473
   89SAPE   C37 8687   3.686   2.501   4.943 -0.1284 -0.0139  0.0885
   89SAPE   H7X 8688   3.770   2.431   4.924 -0.1010  0.4481 -1.6225
   89SAPE   H7Y 8689   3.730   2.603   4.946 -0.0989  0.0672 -1.7570
   89SAPE   C38 8690   3.606   2.486   4.810  0.3719 -0.5555 -0.8473
   89SAPE   H8X 8691   3.530   2.566   4.818 -0.4078 -1.2903 -0.7454
   89SAPE   H8Y 8692   3.542   2.396   4.814 -1.6866  0.7980 -1.6848
   89SAPE   C39 8693   3.690   2.516   4.683  0.4488 -0.2865 -1.0309
   89SAPE   H9X 8694   3.772   2.441   4.677  0.1173 -0.6369 -1.3483
   89SAPE   H9Y 8695   3.746   2.611   4.693  0.0244 -0.1879  0.5739
   89SAPE  C310 8696   3.598   2.528   4.558 -0.2780 -0.1814  0.1397
   89SAPE  H10X 8697   3.661   2.544   4.468 -0.5832 -1.6781 -0.3653
   89SAPE  H10Y 8698   3.532   2.617   4.566 -1.7805 -1.2331 -0.1580
   89SAPE  C311 8699   3.524   2.398   4.532 -0.8531  0.3989 -0.2134
   89SAPE  H11X 8700   3.443   2.388   4.607 -0.2288  0.6717  0.5155
   89SAPE  H11Y 8701   3.598   2.316   4.544 -0.8666  0.4150 -0.0309
   89SAPE  C312 8702   3.467   2.381   4.384  0.4178 -0.3469 -0.6007
   89SAPE  H12X 8703   3.450   2.272   4.370 -0.1338 -0.5401  1.2942
   89SAPE  H12Y 8704   3.543   2.396   4.304 -0.2826 -1.8447 -1.6071
   89SAPE  C313 8705   3.345   2.470   4.366 -0.5658  0.1954  0.4862
   89SAPE  H13X 8706   3.369   2.577   4.383 -2.3915  0.8764 -0.8116
   89SAPE  H13Y 8707   3.265   2.447   4.439  0.3684  0.5918  1.6626
   89SAPE  C314 8708   3.293   2.469   4.220 -0.3360 -0.2587  0.4964
   89SAPE  H14X 8709   3.253   2.366   4.205  0.4510 -0.6148  0.7953
   89SAPE  H14Y 8710   3.380   2.487   4.152 -0.9777  0.4428 -0.1592
   89SAPE  C315 8711   3.179   2.567   4.193 -0.4445 -0.0894  0.2401
   89SAPE  H15X 8712   3.217   2.671   4.207  0.5678 -0.3237 -0.5853
   89SAPE  H15Y 8713   3.104   2.547   4.272 -1.2832 -1.1221 -0.7952
   89SAPE  C316 8714   3.126   2.555   4.050 -0.5762  0.0614 -0.8259
   89SAPE  H16X 8715   3.103   2.446   4.042  0.3613 -0.0760 -1.9419
   89SAPE  H16Y 8716   3.199   2.571   3.968 -0.7813  0.9740 -0.8321
   89SAPE  C317 8717   3.004   2.642   4.023  0.2284 -0.0722  0.9752
   89SAPE  H17X 8718   2.910   2.616   4.077 -1.3804  0.2077 -1.5195
   89SAPE  H17Y 8719   2.984   2.621   3.916  3.3461 -1.9957  0.6521
   89SAPE  C318 8720   3.033   2.791   4.021  0.3787 -0.2052  0.0700
   89SAPE  H18X 8721   3.118   2.802   3.950  0.4501  1.0460  0.3157
   89SAPE  H18Y 8722   3.057   2.827   4.123  0.0879  1.3594 -0.3827
   89SAPE  H18Z 8723   2.942   2.848   3.991  1.4883  1.5052 -0.2249
   90SAPE     N 8724   4.783   2.686   5.983 -0.0179  0.0930  0.7328
   90SAPE   HN1 8725   4.760   2.780   6.020 -0.6166  0.5750 -0.7758
   90SAPE   HN2 8726   4.727   2.667   5.897 -0.7254 -0.7545  1.3585
   90SAPE   HN3 8727   4.760   2.603   6.042  1.1599 -0.1712  0.8433
   90SAPE   C12 8728   4.936   2.676   5.954  0.8409  0.3359  0.4047
   90SAPE  H12A 8729   4.966   2.577   5.915  1.3061  0.7065 -0.1905
   90SAPE  H12B 8730   4.980   2.683   6.056 -2.1231  0.3795  1.7921
   90SAPE   C11 8731   4.988   2.785   5.860  0.0637  0.7430 -0.1166
   90SAPE  H11A 8732   4.956   2.761   5.756 -1.5157  1.2007  0.2384
   90SAPE  H11B 8733   5.096   2.767   5.877 -0.3646 -0.2907  1.8520
   90SAPE     P 8734   5.035   3.034   5.869  0.1296  0.2815 -0.0565
   90SAPE   O13 8735   4.961   3.162   5.865 -0.2266 -0.0105  0.3213
   90SAPE   O14 8736   5.160   3.032   5.946 -0.4087 -0.3908 -0.4470
   90SAPE   O12 8737   4.945   2.913   5.903  0.1157  0.9425  0.0092
   90SAPE   O11 8738   5.082   3.013   5.717  0.0746  0.6642  0.2491
   90SAPE    C1 8739   4.992   3.003   5.610 -0.0044 -0.1375  0.0932
   90SAPE    HA 8740   4.913   2.928   5.630 -1.2641  1.0009 -0.4998
   90SAPE    HB 8741   4.974   3.104   5.569  3.0850  0.4475 -0.0724
   90SAPE    C2 8742   5.070   2.944   5.480 -0.1778  0.1021 -0.3876
   90SAPE    HS 8743   5.172   2.988   5.485 -0.4159  0.6031  0.2781
   90SAPE   O21 8744   5.009   2.991   5.353 -0.2664  0.2589  0.1863
   90SAPE   C21 8745   5.093   2.988   5.244 -0.8609 -0.4274  0.1075
   90SAPE   O22 8746   5.214   2.978   5.245 -0.4387 -0.0547  0.3603
   90SAPE   C22 8747   5.013   3.018   5.116  0.3825  0.2515  0.0322
   90SAPE   H2R 8748   4.915   2.966   5.118  0.6347 -0.1929  1.0879
   90SAPE   H2S 8749   4.977   3.124   5.118 -2.3449 -0.6072 -0.0286
   90SAPE    C3 8750   5.086   2.788   5.481  0.0839  0.0036 -0.4104
   90SAPE    HX 8751   5.134   2.750   5.574 -1.2706 -0.5468  0.0862
   90SAPE    HY 8752   5.154   2.759   5.398 -1.8041 -1.4686 -1.5188
   90SAPE   O31 8753   4.955   2.722   5.476  0.4156 -0.6181  0.1951
   90SAPE   C31 8754   4.929   2.676   5.353  0.0696 -0.4291  0.7946
   90SAPE   O32 8755   4.995   2.697   5.257 -0.0957 -0.4931  0.8860
   90SAPE   C32 8756   4.807   2.578   5.361 -0.7190  0.2374  0.2700
   90SAPE   H2X 8757   4.723   2.632   5.409  0.2157  0.6618  1.4804
   90SAPE   H2Y 8758   4.829   2.487   5.421 -2.7930  0.7901  1.9575
   90SAPE   C23 8759   5.072   2.980   4.975 -0.6485  0.4234 -0.6292
   90SAPE   H3R 8760   5.182   2.992   4.973 -0.6739  0.6625 -2.6877
   90SAPE   H3S 8761   5.031   3.056   4.905  1.9467  2.0100 -0.5479
   90SAPE   C24 8762   5.050   2.830   4.939  0.2607 -0.3306 -0.1839
   90SAPE   H4R 8763   4.945   2.804   4.965 -0.3979  1.1234 -1.2528
   90SAPE   H4S 8764   5.118   2.780   5.012 -1.4515  1.7531  3.0862
   90SAPE   C25 8765   5.071   2.794   4.797 -0.0981  0.1122  0.4173
   90SAPE   H5R 8766   5.045   2.880   4.733  0.0114  0.9349  1.4547
   90SAPE   C26 8767   5.150   2.698   4.743 -0.3481  0.6040 -0.8908
   90SAPE   H6R 8768   5.152   2.696   4.633 -1.5519 -1.5775 -0.9279
   90SAPE   C27 8769   5.217   2.577   4.817  0.1973  0.0274 -0.5615
   90SAPE   H7R 8770   5.158   2.485   4.797 -1.5540  0.6949  1.2581
   90SAPE   H7S 8771   5.206   2.584   4.927  1.5494  3.7287 -0.5233
   90SAPE   C28 8772   5.366   2.560   4.792  0.5790  0.0466 -0.1527
   90SAPE   H8R 8773   5.430   2.629   4.849  1.8126 -0.8988 -0.3434
   90SAPE   C29 8774   5.435   2.477   4.714 -0.0192 -0.7532  0.3265
   90SAPE   H9R 8775   5.545   2.481   4.719 -0.1156  1.3763  2.3008
   90SAPE  C210 8776   5.376   2.379   4.616  0.2234 -0.3151 -0.8037
   90SAPE  H10R 8777   5.383   2.415   4.511  2.4311  2.6457  0.2374
   90SAPE  H10S 8778   5.265   2.379   4.628  0.2905  0.1499 -0.1157
   90SAPE  C211 8779   5.438   2.245   4.643  0.1674 -0.5624 -0.1956
   90SAPE  H11R 8780   5.416   2.208   4.744 -0.4385 -0.5664 -0.3236
   90SAPE  C212 8781   5.499   2.163   4.562 -0.5526 -0.3065 -0.0913
   90SAPE  H12R 8782   5.554   2.076   4.601  0.8157  1.6277  2.6213
   90SAPE  C213 8783   5.542   2.197   4.419 -0.0987  1.2115  0.2070
   90SAPE  H13R 8784   5.645   2.162   4.400 -0.2933 -0.2256  1.6205
   90SAPE  H13S 8785   5.555   2.307   4.410 -0.2056  1.3639  1.7576
   90SAPE  C214 8786   5.442   2.156   4.315  0.0183 -0.0863 -0.0280
   90SAPE  H14R 8787   5.341   2.183   4.349 -0.3889 -1.7757  0.2197
   90SAPE  C215 8788   5.469   2.103   4.195  0.2101  0.5069  0.1739
   90SAPE  H15R 8789   5.382   2.092   4.128 -0.4131 -0.0105  1.0473
   90SAPE  C216 8790   5.597   2.072   4.133  0.2034  0.5340  0.3752
   90SAPE  H16R 8791   5.684   2.066   4.203  0.5680  2.3758  0.1348
   90SAPE  H16S 8792   5.615   2.140   4.047 -0.9944 -1.0199 -1.1705
   90SAPE  C217 8793   5.586   1.929   4.052  0.1322 -0.6728 -0.5830
   90SAPE  H17R 8794   5.564   1.852   4.128  1.2536 -0.8502 -0.4272
   90SAPE  H17S 8795   5.687   1.900   4.017  0.6227 -0.8736  0.9264
   90SAPE  C218 8796   5.483   1.926   3.934  0.0493 -0.2814  0.0866
   90SAPE  H18R 8797   5.530   1.992   3.859  1.1735 -1.5924 -0.4187
   90SAPE  H18S 8798   5.384   1.967   3.962  1.0314  2.6259 -0.3283
   90SAPE  C219 8799   5.455   1.790   3.871  0.6238  0.0788 -0.1480
   90SAPE  H19R 8800   5.548   1.757   3.822  0.2024 -0.5915 -0.5076
   90SAPE  H19S 8801   5.373   1.796   3.796 -0.2392  1.7072  0.8624
   90SAPE  C220 8802   5.427   1.672   3.968 -0.0781 -0.8419  0.8475
   90SAPE  H20R 8803   5.330   1.700   4.016 -1.2838  0.0624 -1.8995
   90SAPE  H20S 8804   5.520   1.651   4.025 -0.2010 -0.9394  1.0160
   90SAPE  H20T 8805   5.417   1.582   3.904  2.7385 -2.8738  2.9811
   90SAPE   C33 8806   4.771   2.520   5.226 -0.2310  0.6854  0.2156
   90SAPE   H3X 8807   4.706   2.433   5.247 -0.1059  0.2428 -1.1245
   90SAPE   H3Y 8808   4.859   2.485   5.168 -1.0516  0.3149 -0.8507
   90SAPE   C34 8809   4.693   2.612   5.135  0.4134  0.2404 -0.3482
   90SAPE   H4X 8810   4.738   2.713   5.128  1.6110 -0.3994 -3.7118
   90SAPE   H4Y 8811   4.594   2.640   5.178  1.0379 -1.7260  2.6417
   90SAPE   C35 8812   4.681   2.571   4.990 -0.3389  0.6276 -0.7808
   90SAPE   H5X 8813   4.594   2.502   4.982  0.5060 -0.6440  0.4071
   90SAPE   H5Y 8814   4.765   2.507   4.955 -1.1980 -0.3318 -1.1502
   90SAPE   C36 8815   4.665   2.690   4.895  0.0506  0.9378  0.6027
   90SAPE   H6X 8816   4.745   2.766   4.902  0.4640  0.6590 -0.7920
   90SAPE   H6Y 8817   4.570   2.739   4.924  0.1102  0.2768  2.0131
   90SAPE   C37 8818   4.649   2.662   4.739 -0.0034  0.2820 -0.7711
   90SAPE   H7X 8819   4.574   2.585   4.708 -3.2948  3.3782 -1.1788
   90SAPE   H7Y 8820   4.747   2.628   4.700  0.7332  2.0539 -0.5717
   90SAPE   C38 8821   4.626   2.788   4.651 -0.5398  0.1475  0.6544
   90SAPE   H8X 8822   4.539   2.846   4.689 -1.7638 -1.2587  0.0947
   90SAPE   H8Y 8823   4.594   2.765   4.547 -0.7866 -1.2736  1.0323
   90SAPE   C39 8824   4.755   2.882   4.648  0.3679  0.2963 -0.0496
   90SAPE   H9X 8825   4.850   2.835   4.617 -0.4406  0.0086 -2.2661
   90SAPE   H9Y 8826   4.757   2.913   4.755  1.5691 -3.0546  1.0280
   90SAPE  C310 8827   4.733   3.008   4.558  0.1573 -0.2456 -0.2123
   90SAPE  H10X 8828   4.633   3.052   4.578 -0.7773 -0.0140 -4.4774
   90SAPE  H10Y 8829   4.719   2.969   4.455 -0.6589 -1.5966  0.3887
   90SAPE  C311 8830   4.855   3.095   4.562  0.4673 -0.2615 -0.2406
   90SAPE  H11X 8831   4.939   3.048   4.506  0.5063 -0.1948 -0.2383
   90SAPE  H11Y 8832   4.888   3.102   4.668  2.0577  1.6034 -0.7813
   90SAPE  C312 8833   4.841   3.238   4.510 -0.4600 -0.4424  0.3272
   90SAPE  H12X 8834   4.944   3.273   4.488 -0.3336 -1.2295 -0.3959
   90SAPE  H12Y 8835   4.786   3.307   4.577 -1.8102  0.0261 -1.2135
   90SAPE  C313 8836   4.764   3.246   4.379  0.2728  0.0699  0.1215
   90SAPE  H13X 8837   4.656   3.222   4.388  0.4047 -1.4127 -1.5485
   90SAPE  H13Y 8838   4.804   3.161   4.319 -0.3836 -0.6883  0.7335
   90SAPE  C314 8839   4.780   3.375   4.306  0.5416  0.5000 -0.1525
   90SAPE  H14X 8840   4.871   3.367   4.243  2.2116 -0.3919  2.2251
   90SAPE  H14Y 8841   4.793   3.459   4.378  2.3598 -0.2528  0.4504
   90SAPE  C315 8842   4.658   3.409   4.225  0.3667  0.7326  0.0026
   90SAPE  H15X 8843   4.572   3.401   4.294  0.2659 -1.5013 -0.3129
   90SAPE  H15Y 8844   4.656   3.341   4.137 -1.1142  0.5393  0.1697
   90SAPE  C316 8845   4.658   3.556   4.165  0.8222 -0.6405 -0.6683
   90SAPE  H16X 8846   4.680   3.633   4.242 -1.8090  0.7536 -1.2091
   90SAPE  H16Y 8847   4.561   3.583   4.119  0.7516  0.5152  0.1305
   90SAPE  C317 8848   4.761   3.583   4.058 -0.2654  0.4711  0.7167
   90SAPE  H17X 8849   4.732   3.522   3.970 -0.5989 -0.0117  1.1533
   90SAPE  H17Y 8850   4.859   3.540   4.090  0.3931  0.3236 -1.3934
   90SAPE  C318 8851   4.787   3.723   4.015 -0.0784  0.2440  1.0950
   90SAPE  H18X 8852   4.714   3.767   3.943 -2.0735 -1.8429  1.7058
   90SAPE  H18Y 8853   4.886   3.718   3.965 -1.5257  2.1685 -2.3776
   90SAPE  H18Z 8854   4.796   3.804   4.091 -1.7279  3.4864 -1.8378
   91SAPE     N 8855   1.569   3.679   6.170 -0.0050 -0.4103 -0.4000
   91SAPE   HN1 8856   1.586   3.632   6.078  1.4072 -2.2596  0.7250
   91SAPE   HN2 8857   1.484   3.632   6.209  0.6792 -0.6018  0.9256
   91SAPE   HN3 8858   1.559   3.782   6.161  0.1999 -0.5404 -2.8661
   91SAPE   C12 8859   1.683   3.657   6.258 -0.5435 -0.0997 -0.1771
   91SAPE  H12A 8860   1.765   3.610   6.198 -0.2596  0.0513  0.0930
   91SAPE  H12B 8861   1.649   3.600   6.348  1.3045  0.6485  1.0467
   91SAPE   C11 8862   1.741   3.798   6.302  0.2045  0.9451  0.5858
   91SAPE  H11A 8863   1.846   3.779   6.334 -0.5027 -3.0439  1.0649
   91SAPE  H11B 8864   1.678   3.841   6.383 -0.6427  1.1822 -0.1821
   91SAPE     P 8865   1.851   3.878   6.077 -0.0260 -0.6338  0.4752
   91SAPE   O13 8866   1.845   3.993   5.989  0.1521 -0.1176 -0.1391
   91SAPE   O14 8867   1.982   3.851   6.135  0.3738  0.3604  0.0326
   91SAPE   O12 8868   1.741   3.886   6.195 -0.3581  0.1055  0.6492
   91SAPE   O11 8869   1.801   3.750   6.000  0.3298  0.0444  0.8981
   91SAPE    C1 8870   1.889   3.695   5.903 -1.0078  0.5690 -0.0950
   91SAPE    HA 8871   1.986   3.657   5.942 -0.7253  3.1780  1.9968
   91SAPE    HB 8872   1.831   3.610   5.861 -1.0981  0.7704 -0.3834
   91SAPE    C2 8873   1.929   3.783   5.775 -0.3544  0.3869 -0.3572
   91SAPE    HS 8874   1.993   3.866   5.812 -2.2250  1.9131 -0.4222
   91SAPE   O21 8875   1.810   3.849   5.725  0.0101  0.1464  0.1772
   91SAPE   C21 8876   1.838   3.943   5.637 -0.9983 -0.3722  0.1632
   91SAPE   O22 8877   1.943   3.999   5.627  0.0262  0.1802  0.4918
   91SAPE   C22 8878   1.720   3.980   5.545 -0.4639  0.1613  0.0709
   91SAPE   H2R 8879   1.661   4.051   5.606  0.7758 -1.0133  2.7981
   91SAPE   H2S 8880   1.761   4.039   5.460  0.0012 -4.0740 -3.0096
   91SAPE    C3 8881   2.009   3.705   5.669  0.0279 -0.5198  0.4885
   91SAPE    HX 8882   2.086   3.646   5.723  0.7482  1.9719  2.3285
   91SAPE    HY 8883   2.073   3.779   5.617 -1.7658  0.9790  0.3394
   91SAPE   O31 8884   1.930   3.627   5.576 -0.5145 -0.0175  0.9561
   91SAPE   C31 8885   1.915   3.499   5.603  1.0233  0.1956  0.2932
   91SAPE   O32 8886   1.952   3.433   5.697 -0.0258 -0.0421 -0.4797
   91SAPE   C32 8887   1.821   3.436   5.490  0.0478  0.0801  0.1830
   91SAPE   H2X 8888   1.830   3.491   5.394  0.5216 -1.1567 -0.4936
   91SAPE   H2Y 8889   1.715   3.457   5.517 -0.5386 -1.8626 -0.4796
   91SAPE   C23 8890   1.633   3.873   5.483 -0.0917  0.3448  0.1808
   91SAPE   H3R 8891   1.544   3.918   5.435 -1.8926 -3.8769 -0.8473
   91SAPE   H3S 8892   1.595   3.818   5.571 -0.5105  2.0754  1.1316
   91SAPE   C24 8893   1.702   3.785   5.375 -0.3251 -0.1373 -0.0588
   91SAPE   H4R 8894   1.618   3.728   5.330  0.0286 -0.3345 -0.4673
   91SAPE   H4S 8895   1.776   3.716   5.421  0.5620  0.5719 -0.3988
   91SAPE   C25 8896   1.756   3.877   5.267  0.1708 -0.1114 -0.3723
   91SAPE   H5R 8897   1.682   3.952   5.235  1.9979  2.1030  0.3741
   91SAPE   C26 8898   1.870   3.870   5.193  0.1077  0.0069  0.5690
   91SAPE   H6R 8899   1.901   3.955   5.130  1.4479  1.2145  2.7265
   91SAPE   C27 8900   1.976   3.762   5.213  0.2232 -0.7704 -0.1496
   91SAPE   H7R 8901   2.028   3.741   5.117  0.4840  1.3133 -0.5262
   91SAPE   H7S 8902   1.928   3.668   5.246  0.1083 -0.1804  1.4124
   91SAPE   C28 8903   2.076   3.800   5.319  0.5525 -0.2549 -0.1942
   91SAPE   H8R 8904   2.051   3.885   5.385 -0.2221 -0.9824  0.4711
   91SAPE   C29 8905   2.175   3.724   5.358 -0.5089 -0.2940 -0.2300
   91SAPE   H9R 8906   2.248   3.763   5.431 -0.7178 -1.2272  0.5002
   91SAPE  C210 8907   2.211   3.584   5.307 -0.9875 -0.0607 -0.2163
   91SAPE  H10R 8908   2.292   3.593   5.231 -1.2800 -1.2104 -0.6730
   91SAPE  H10S 8909   2.122   3.546   5.255 -1.9248  2.5810 -0.6947
   91SAPE  C211 8910   2.234   3.492   5.421 -0.3719  0.6838  0.0458
   91SAPE  H11R 8911   2.232   3.545   5.517  0.0217  0.9561 -0.0923
   91SAPE  C212 8912   2.267   3.358   5.416  0.4579  0.0219  0.0869
   91SAPE  H12R 8913   2.281   3.297   5.507 -1.8457  0.1720  0.5989
   91SAPE  C213 8914   2.272   3.295   5.279  0.7952 -0.4965  0.8257
   91SAPE  H13R 8915   2.200   3.340   5.207  1.0257  0.1508  0.9966
   91SAPE  H13S 8916   2.237   3.192   5.301  0.1513 -0.3452  0.5496
   91SAPE  C214 8917   2.409   3.271   5.222 -0.4964  0.0844 -0.3875
   91SAPE  H14R 8918   2.478   3.225   5.293  1.5232  0.5225 -1.9688
   91SAPE  C215 8919   2.438   3.284   5.096 -0.2621 -0.6575 -0.5550
   91SAPE  H15R 8920   2.543   3.263   5.069 -0.0715 -1.5045  0.7738
   91SAPE  C216 8921   2.357   3.349   4.987  0.4007  0.0080  0.2510
   91SAPE  H16R 8922   2.403   3.447   4.960  1.5319  0.0769  2.2644
   91SAPE  H16S 8923   2.251   3.361   5.017 -0.5033 -1.4087 -2.1146
   91SAPE  C217 8924   2.342   3.275   4.862 -0.3775  0.3651  0.1010
   91SAPE  H17R 8925   2.253   3.317   4.810 -0.3529 -0.7964 -0.9547
   91SAPE  H17S 8926   2.307   3.170   4.873  0.2092  0.1137 -0.3398
   91SAPE  C218 8927   2.460   3.300   4.767  0.4304  0.0695  0.0754
   91SAPE  H18R 8928   2.554   3.273   4.819 -0.1913  0.0150  1.1910
   91SAPE  H18S 8929   2.468   3.411   4.755  3.1563 -0.2470 -2.2653
   91SAPE  C219 8930   2.438   3.216   4.640  0.0292 -0.2572 -1.1221
   91SAPE  H19R 8931   2.342   3.249   4.594 -1.5368  0.2410  2.1809
   91SAPE  H19S 8932   2.425   3.112   4.674 -4.2909  0.5129  0.1740
   91SAPE  C220 8933   2.559   3.230   4.542  0.7316 -0.2377  0.4001
   91SAPE  H20R 8934   2.646   3.184   4.595  2.4608 -0.6397 -2.6025
   91SAPE  H20S 8935   2.582   3.335   4.514 -2.7744  0.3523 -0.8350
   91SAPE  H20T 8936   2.531   3.179   4.448 -2.0255 -0.4341  1.2272
   91SAPE   C33 8937   1.855   3.290   5.481  0.5966 -0.0753 -0.1695
   91SAPE   H3X 8938   1.873   3.247   5.582  0.2672 -1.3122 -0.6293
   91SAPE   H3Y 8939   1.951   3.266   5.431  0.1602 -3.1150  0.2656
   91SAPE   C34 8940   1.743   3.209   5.400  0.0471 -0.5379 -0.2517
   91SAPE   H4X 8941   1.650   3.212   5.460  0.0858 -0.0505 -0.2157
   91SAPE   H4Y 8942   1.774   3.102   5.402 -1.8217 -1.2096 -2.5491
   91SAPE   C35 8943   1.710   3.258   5.258  0.2529 -0.7524  0.6893
   91SAPE   H5X 8944   1.652   3.352   5.264  1.3747 -0.0420  0.5952
   91SAPE   H5Y 8945   1.643   3.181   5.214  1.0751 -2.0606  1.6494
   91SAPE   C36 8946   1.834   3.273   5.173 -0.2391 -0.1420 -0.2534
   91SAPE   H6X 8947   1.885   3.176   5.186 -0.5598 -0.1946  0.7443
   91SAPE   H6Y 8948   1.902   3.350   5.216 -1.2130  0.8255 -0.3849
   91SAPE   C37 8949   1.806   3.320   5.034  0.1718 -0.1710 -0.1588
   91SAPE   H7X 8950   1.751   3.415   5.017 -1.7147 -1.5942 -2.8421
   91SAPE   H7Y 8951   1.756   3.242   4.972  2.1124 -0.1345 -1.8834
   91SAPE   C38 8952   1.929   3.337   4.941  0.0866  0.4644 -0.6962
   91SAPE   H8X 8953   1.989   3.244   4.935 -0.0055  0.4690 -1.7200
   91SAPE   H8Y 8954   1.998   3.415   4.979  1.7405 -0.3965 -1.8535
   91SAPE   C39 8955   1.883   3.378   4.796 -0.6145 -0.6878 -0.6594
   91SAPE   H9X 8956   1.801   3.451   4.808  1.6407  2.1760 -1.3663
   91SAPE   H9Y 8957   1.855   3.283   4.747  1.4700 -1.9018  0.3671
   91SAPE  C310 8958   2.000   3.443   4.713 -0.0314 -0.5982 -0.4344
   91SAPE  H10X 8959   2.084   3.371   4.710  0.3310 -0.3346  1.6119
   91SAPE  H10Y 8960   2.046   3.524   4.773  1.4583 -0.3517 -1.8533
   91SAPE  C311 8961   1.956   3.481   4.570  0.1418 -0.5474  0.6138
   91SAPE  H11X 8962   1.872   3.554   4.581 -0.7216 -1.5134  0.5269
   91SAPE  H11Y 8963   1.930   3.390   4.512  1.4979 -1.3914  1.2935
   91SAPE  C312 8964   2.066   3.554   4.486 -0.3459  0.5457  0.1666
   91SAPE  H12X 8965   2.159   3.495   4.502 -0.2380  0.2797 -1.3784
   91SAPE  H12Y 8966   2.090   3.654   4.529 -0.9325  0.7374  0.0591
   91SAPE  C313 8967   2.050   3.567   4.334  0.4638 -0.4195 -0.0543
   91SAPE  H13X 8968   1.961   3.629   4.309  0.4019 -0.7580 -0.7169
   91SAPE  H13Y 8969   2.029   3.469   4.286 -2.5387 -0.8772  1.9323
   91SAPE  C314 8970   2.188   3.609   4.276  0.5547 -0.3754 -0.4179
   91SAPE  H14X 8971   2.270   3.538   4.300  0.4941 -1.6307 -3.4893
   91SAPE  H14Y 8972   2.217   3.715   4.288 -0.3191 -0.0307 -1.2712
   91SAPE  C315 8973   2.175   3.588   4.122 -0.3306  0.4130 -0.0009
   91SAPE  H15X 8974   2.085   3.637   4.080  0.3533  0.4170 -1.5061
   91SAPE  H15Y 8975   2.161   3.481   4.098 -1.8618  0.4831  0.4788
   91SAPE  C316 8976   2.294   3.650   4.049 -0.5641 -0.0806  0.5080
   91SAPE  H16X 8977   2.383   3.592   4.082 -0.4068  0.5907  1.2970
   91SAPE  H16Y 8978   2.306   3.754   4.086 -5.3293  0.1611  2.1582
   91SAPE  C317 8979   2.304   3.632   3.899 -0.1634 -0.5494  0.5031
   91SAPE  H17X 8980   2.219   3.693   3.863  1.2766 -0.4313 -3.1952
   91SAPE  H17Y 8981   2.292   3.526   3.867 -2.4086 -0.2328  0.1270
   91SAPE  C318 8982   2.439   3.691   3.843 -0.2723  0.5481 -0.4038
   91SAPE  H18X 8983   2.447   3.797   3.878 -3.2456  0.8435 -0.3277
   91SAPE  H18Y 8984   2.438   3.701   3.733 -1.4792 -0.2405 -0.4868
   91SAPE  H18Z 8985   2.531   3.632   3.858  0.8229  1.4902 -2.9198
   92SAPE     N 8986   3.027   5.276   6.133 -0.1001  0.5353  1.0910
   92SAPE   HN1 8987   2.999   5.326   6.047 -1.9097 -1.7907  0.2238
   92SAPE   HN2 8988   3.107   5.321   6.183 -0.8107  2.1551  0.8056
   92SAPE   HN3 8989   3.041   5.174   6.114 -3.3428  0.3185 -0.6886
   92SAPE   C12 8990   2.918   5.255   6.235  0.5960  0.4405  0.2678
   92SAPE  H12A 8991   2.873   5.356   6.244  0.5333  0.2586  2.9753
   92SAPE  H12B 8992   2.971   5.230   6.330 -1.5423 -1.1877  1.1310
   92SAPE   C11 8993   2.826   5.152   6.177  0.3948  0.8812 -0.3857
   92SAPE  H11A 8994   2.764   5.192   6.094 -1.8152 -2.5672 -0.6133
   92SAPE  H11B 8995   2.755   5.111   6.252  3.1838 -3.5923  0.1451
   92SAPE     P 8996   2.862   4.969   5.994  0.2879 -0.1275 -0.3765
   92SAPE   O13 8997   2.970   4.868   5.964  0.3287  0.4516  0.3306
   92SAPE   O14 8998   2.718   4.929   6.003  0.4934  0.2952  0.0838
   92SAPE   O12 8999   2.904   5.041   6.127 -0.5166 -0.6654 -0.3917
   92SAPE   O11 9000   2.872   5.086   5.883 -0.1862  0.0712  0.3555
   92SAPE    C1 9001   2.911   5.065   5.752  0.1774  0.1297  0.1088
   92SAPE    HA 9002   2.943   5.166   5.719 -1.4761  0.9976  1.0708
   92SAPE    HB 9003   3.000   4.999   5.742  0.5185  0.8456 -2.5279
   92SAPE    C2 9004   2.791   5.018   5.659 -0.3391 -0.5603  0.3040
   92SAPE    HS 9005   2.766   4.913   5.683  1.4247 -1.6263 -2.1324
   92SAPE   O21 9006   2.847   5.019   5.528 -0.4187  0.1122 -0.0584
   92SAPE   C21 9007   2.908   4.907   5.496  0.0934 -0.7397  0.1255
   92SAPE   O22 9008   2.930   4.806   5.555 -0.0098  0.4244  0.3728
   92SAPE   C22 9009   2.954   4.925   5.351  0.0767  0.1874 -0.2125
   92SAPE   H2R 9010   3.006   4.829   5.332  1.3905  0.3864  2.0774
   92SAPE   H2S 9011   2.861   4.915   5.290  0.5317 -2.4370 -0.5832
   92SAPE    C3 9012   2.674   5.116   5.680  0.3816 -0.2695 -0.3594
   92SAPE    HX 9013   2.635   5.100   5.783 -0.0268  2.4751 -0.0097
   92SAPE    HY 9014   2.597   5.098   5.602  0.3656 -0.4053 -0.3124
   92SAPE   O31 9015   2.730   5.248   5.680  0.1516 -0.1629 -0.1143
   92SAPE   C31 9016   2.653   5.348   5.629 -0.1465 -0.7993  0.5034
   92SAPE   O32 9017   2.540   5.335   5.592 -0.0524 -0.4442 -0.1856
   92SAPE   C32 9018   2.744   5.469   5.606  0.2377  0.9847  0.3091
   92SAPE   H2X 9019   2.833   5.429   5.553 -0.7442 -1.3474  0.2856
   92SAPE   H2Y 9020   2.765   5.522   5.701  0.3864  1.0680  0.2297
   92SAPE   C23 9021   3.044   5.046   5.324  0.5149 -0.1676  0.4567
   92SAPE   H3R 9022   3.144   5.018   5.363  1.5221 -0.8637 -2.3593
   92SAPE   H3S 9023   2.999   5.132   5.378 -0.8333 -0.7367  0.2780
   92SAPE   C24 9024   3.055   5.090   5.180  0.1520 -0.8502  0.2419
   92SAPE   H4R 9025   3.096   5.193   5.181 -3.1781  0.6174  1.6865
   92SAPE   H4S 9026   2.955   5.094   5.132  1.2625 -1.5476 -2.2957
   92SAPE   C25 9027   3.135   4.992   5.098 -0.4888  0.2030  0.5186
   92SAPE   H5R 9028   3.085   4.900   5.066  0.0817 -1.1626  3.2243
   92SAPE   C26 9029   3.272   5.004   5.064  0.2554  0.1722  0.7478
   92SAPE   H6R 9030   3.318   4.924   5.004  1.2464  1.4028 -0.1750
   92SAPE   C27 9031   3.370   5.118   5.102 -0.2418  0.4751  0.8046
   92SAPE   H7R 9032   3.455   5.064   5.148  0.1979  0.3376 -0.1465
   92SAPE   H7S 9033   3.334   5.174   5.191  0.0303 -0.9249  1.8204
   92SAPE   C28 9034   3.409   5.209   4.990 -0.0152 -0.1861  1.0697
   92SAPE   H8R 9035   3.378   5.174   4.891  0.2967  2.0482  0.1023
   92SAPE   C29 9036   3.467   5.328   4.997 -0.7433  0.4071 -0.1362
   92SAPE   H9R 9037   3.501   5.390   4.913  0.6096  1.2427  0.9845
   92SAPE  C210 9038   3.511   5.376   5.133 -0.3060  0.6067  0.4230
   92SAPE  H10R 9039   3.622   5.374   5.138 -0.3634  0.1232  2.1183
   92SAPE  H10S 9040   3.475   5.320   5.222  0.0594  0.6697  0.6125
   92SAPE  C211 9041   3.455   5.518   5.138 -0.1107  0.1016  0.2229
   92SAPE  H11R 9042   3.351   5.531   5.170 -0.2424 -1.0811  0.3377
   92SAPE  C212 9043   3.522   5.632   5.133 -0.3255  0.3509 -0.2102
   92SAPE  H12R 9044   3.463   5.718   5.167  0.1869  0.6687 -0.1253
   92SAPE  C213 9045   3.666   5.653   5.101  0.5528  0.2539 -0.2569
   92SAPE  H13R 9046   3.671   5.741   5.034  1.0702  0.9459  0.6643
   92SAPE  H13S 9047   3.717   5.572   5.044  0.8280  0.4954 -0.3536
   92SAPE  C214 9048   3.740   5.661   5.233  0.7974  0.0526 -0.4026
   92SAPE  H14R 9049   3.689   5.601   5.310 -0.5611 -0.4788 -1.6615
   92SAPE  C215 9050   3.854   5.720   5.262 -0.8041  0.1156 -0.0159
   92SAPE  H15R 9051   3.897   5.703   5.362 -0.0805 -0.2570 -0.3807
   92SAPE  C216 9052   3.939   5.805   5.173  0.1378 -0.2152  0.3518
   92SAPE  H16R 9053   3.993   5.891   5.219  1.6591  0.6713 -2.8336
   92SAPE  H16S 9054   3.875   5.866   5.105  2.1928  1.1868 -0.4038
   92SAPE  C217 9055   4.037   5.726   5.087  0.5903 -0.2299  0.0937
   92SAPE  H17R 9056   3.976   5.671   5.012 -1.8691 -0.6731  2.2375
   92SAPE  H17S 9057   4.103   5.664   5.152  0.9216 -0.9879 -0.9509
   92SAPE  C218 9058   4.131   5.817   5.016 -0.7703 -0.0280 -0.3990
   92SAPE  H18R 9059   4.181   5.873   5.098 -1.0500 -2.2379  1.3927
   92SAPE  H18S 9060   4.073   5.882   4.947  1.0382  0.9853 -1.0531
   92SAPE  C219 9061   4.226   5.743   4.915  0.3361  0.4947  0.0261
   92SAPE  H19R 9062   4.300   5.689   4.978  2.1122  0.6057 -1.8384
   92SAPE  H19S 9063   4.284   5.821   4.861  0.9025 -0.4643 -0.7927
   92SAPE  C220 9064   4.162   5.651   4.811  0.2786  0.3283 -0.7539
   92SAPE  H20R 9065   4.112   5.562   4.857  0.4023  0.6316 -0.0144
   92SAPE  H20S 9066   4.239   5.608   4.743 -0.3565 -0.6825 -0.8556
   92SAPE  H20T 9067   4.089   5.711   4.754 -0.3280 -1.3524 -1.8141
   92SAPE   C33 9068   2.674   5.573   5.509 -0.1583 -0.2490 -0.5766
   92SAPE   H3X 9069   2.564   5.570   5.522 -0.0564  0.6642  0.6905
   92SAPE   H3Y 9070   2.699   5.548   5.404  1.3507  0.5823 -0.4422
   92SAPE   C34 9071   2.726   5.713   5.535 -0.5732 -0.9770 -0.2104
   92SAPE   H4X 9072   2.835   5.699   5.515 -0.0851  1.7029  0.2616
   92SAPE   H4Y 9073   2.718   5.736   5.643  0.2124 -1.2457 -0.0884
   92SAPE   C35 9074   2.672   5.823   5.442  0.2505  0.2891 -0.3424
   92SAPE   H5X 9075   2.662   5.912   5.507 -2.3866  0.0788 -0.3654
   92SAPE   H5Y 9076   2.569   5.792   5.415  0.3490 -0.2632 -0.1137
   92SAPE   C36 9077   2.755   5.828   5.308 -0.7832  0.1282 -0.1428
   92SAPE   H6X 9078   2.781   5.724   5.278  1.4687  0.2201  1.2432
   92SAPE   H6Y 9079   2.854   5.878   5.320 -1.0085  0.1090  2.3932
   92SAPE   C37 9080   2.686   5.885   5.186 -0.2083 -0.9709  0.8651
   92SAPE   H7X 9081   2.770   5.906   5.117 -0.2287 -0.1606  1.0814
   92SAPE   H7Y 9082   2.640   5.985   5.198 -0.1900 -0.8527 -0.0052
   92SAPE   C38 9083   2.590   5.798   5.107  0.1371  0.1857 -0.7499
   92SAPE   H8X 9084   2.545   5.863   5.030  1.0570  3.3441  1.2072
   92SAPE   H8Y 9085   2.507   5.777   5.178  0.1800 -0.0387 -0.7641
   92SAPE   C39 9086   2.656   5.669   5.046  0.4977  0.3000  0.0642
   92SAPE   H9X 9087   2.731   5.619   5.111 -1.1024 -1.4310  0.7014
   92SAPE   H9Y 9088   2.706   5.691   4.950  0.8772 -0.1638  0.1511
   92SAPE  C310 9089   2.547   5.561   5.018  0.2253 -0.9508  0.0190
   92SAPE  H10X 9090   2.491   5.601   4.931  2.1510  1.4242 -0.2365
   92SAPE  H10Y 9091   2.482   5.556   5.108  0.2151 -1.6652 -0.0275
   92SAPE  C311 9092   2.581   5.410   4.994  0.2322 -0.1441  0.0746
   92SAPE  H11X 9093   2.489   5.352   4.972  0.5921 -1.1914  1.2057
   92SAPE  H11Y 9094   2.596   5.365   5.094 -3.1935 -3.1172 -0.5529
   92SAPE  C312 9095   2.696   5.382   4.898  0.1930  0.7972  0.6426
   92SAPE  H12X 9096   2.785   5.414   4.956  1.3534  0.6396 -0.9960
   92SAPE  H12Y 9097   2.675   5.433   4.802  0.5441 -0.2432 -0.0058
   92SAPE  C313 9098   2.705   5.234   4.855 -0.1525  0.1370  0.6862
   92SAPE  H13X 9099   2.630   5.191   4.785  2.0664  0.3954 -2.0262
   92SAPE  H13Y 9100   2.705   5.185   4.955 -1.0757 -0.7019  0.3018
   92SAPE  C314 9101   2.849   5.207   4.799  0.2700 -0.4191 -0.0891
   92SAPE  H14X 9102   2.921   5.259   4.866 -2.4828  2.8644  0.6332
   92SAPE  H14Y 9103   2.844   5.252   4.698 -2.3627  2.1468  1.0346
   92SAPE  C315 9104   2.883   5.057   4.796 -0.4631 -0.1454  0.3469
   92SAPE  H15X 9105   2.793   5.003   4.762 -0.0355 -1.6090  1.4276
   92SAPE  H15Y 9106   2.915   5.013   4.893  2.3564  1.6513  0.3354
   92SAPE  C316 9107   3.003   5.042   4.701  0.2538  0.0698  0.3180
   92SAPE  H16X 9108   3.088   5.106   4.731  0.3030 -0.3901  1.1659
   92SAPE  H16Y 9109   2.959   5.076   4.604 -0.3829 -0.7592  0.3039
   92SAPE  C317 9110   3.039   4.893   4.695  0.1296 -0.1222  0.6197
   92SAPE  H17X 9111   2.946   4.834   4.680  0.5098 -0.1582 -1.9283
   92SAPE  H17Y 9112   3.089   4.864   4.790 -0.4353 -0.1565  0.9142
   92SAPE  C318 9113   3.125   4.851   4.573 -0.3565 -0.5939  0.4249
   92SAPE  H18X 9114   3.060   4.862   4.483 -1.3162 -2.5227  0.8445
   92SAPE  H18Y 9115   3.156   4.745   4.575  1.3754 -0.1289  0.2250
   92SAPE  H18Z 9116   3.216   4.914   4.559  1.0246 -2.9216 -1.9585
   93SAPE     N 9117   5.379   3.192   5.846 -0.1791 -0.7668  0.5623
   93SAPE   HN1 9118   5.331   3.284   5.842  0.7744 -0.2315  1.2240
   93SAPE   HN2 9119   5.329   3.130   5.913 -0.0326 -1.1443  0.3254
   93SAPE   HN3 9120   5.479   3.207   5.868 -0.2143  3.7618 -1.2722
   93SAPE   C12 9121   5.376   3.140   5.703 -1.0356 -0.0931 -0.7407
   93SAPE  H12A 9122   5.458   3.190   5.647  0.5590 -1.0652  0.6262
   93SAPE  H12B 9123   5.281   3.159   5.649 -1.6965  0.7244  0.6494
   93SAPE   C11 9124   5.405   2.992   5.704  0.1109  0.0750  0.0214
   93SAPE  H11A 9125   5.427   2.968   5.598  0.9444  0.9896 -0.0214
   93SAPE  H11B 9126   5.308   2.942   5.726  1.7154 -3.5490 -0.3843
   93SAPE     P 9127   5.617   2.854   5.752 -0.2497  0.1163  0.1603
   93SAPE   O13 9128   5.717   2.838   5.868  0.1725  0.4882 -0.1316
   93SAPE   O14 9129   5.553   2.730   5.703 -0.0261  0.4737 -0.0287
   93SAPE   O12 9130   5.500   2.949   5.807 -0.6440 -0.5185 -0.1238
   93SAPE   O11 9131   5.680   2.937   5.639  0.2671  0.2887  1.0007
   93SAPE    C1 9132   5.774   3.046   5.666  0.7439  0.8797 -0.3241
   93SAPE    HA 9133   5.753   3.092   5.765 -0.7592 -0.5444  0.0491
   93SAPE    HB 9134   5.879   3.009   5.673  0.8818  1.5053  2.6956
   93SAPE    C2 9135   5.773   3.160   5.563  0.4115  0.0215  0.3893
   93SAPE    HS 9136   5.686   3.225   5.585 -0.4611 -1.0884  0.3145
   93SAPE   O21 9137   5.770   3.108   5.431 -0.2038 -0.1254 -0.0116
   93SAPE   C21 9138   5.646   3.096   5.377 -0.3603  0.3222  0.5736
   93SAPE   O22 9139   5.543   3.134   5.430 -0.1245  0.1856  0.1569
   93SAPE   C22 9140   5.647   3.036   5.242  0.5757 -0.3473 -0.0017
   93SAPE   H2R 9141   5.686   3.112   5.170 -1.0687  0.4916 -0.0399
   93SAPE   H2S 9142   5.716   2.951   5.257  1.0062 -0.0383 -0.1915
   93SAPE    C3 9143   5.895   3.247   5.573 -0.1327 -1.1851  0.2374
   93SAPE    HX 9144   5.989   3.188   5.563  1.3806  1.0391  0.7750
   93SAPE    HY 9145   5.908   3.287   5.675  1.8726  0.2553 -0.5200
   93SAPE   O31 9146   5.888   3.355   5.481 -0.6930 -0.3695  0.3256
   93SAPE   C31 9147   5.974   3.356   5.378 -0.3074 -0.0365 -0.2961
   93SAPE   O32 9148   6.050   3.264   5.349 -0.2803 -0.3092  0.2451
   93SAPE   C32 9149   5.944   3.485   5.297 -0.0784  0.6907 -0.1670
   93SAPE   H2X 9150   5.987   3.568   5.356 -1.2962  1.0097  0.3127
   93SAPE   H2Y 9151   5.834   3.499   5.288 -0.4369 -1.7805 -0.4415
   93SAPE   C23 9152   5.507   2.996   5.191  0.3356  0.3220  0.1294
   93SAPE   H3R 9153   5.433   3.078   5.184 -0.9915 -0.6708  1.9078
   93SAPE   H3S 9154   5.456   2.937   5.270 -2.2584  2.4398  0.1689
   93SAPE   C24 9155   5.498   2.894   5.069 -0.4043  0.1767  0.0922
   93SAPE   H4R 9156   5.520   2.959   4.982  1.3943  1.5107  1.4671
   93SAPE   H4S 9157   5.392   2.867   5.047 -0.3202 -0.0937  0.0180
   93SAPE   C25 9158   5.587   2.769   5.083  0.2437  0.0414 -0.5636
   93SAPE   H5R 9159   5.545   2.685   5.139 -0.8695 -0.6339 -2.3356
   93SAPE   C26 9160   5.703   2.751   5.023 -0.2514 -0.0256 -0.4348
   93SAPE   H6R 9161   5.752   2.656   5.046  0.4237 -0.1321 -2.1675
   93SAPE   C27 9162   5.788   2.851   4.951  0.4472  0.5432 -0.2929
   93SAPE   H7R 9163   5.896   2.842   4.975  0.2627 -1.4415 -0.0515
   93SAPE   H7S 9164   5.751   2.951   4.984 -3.0169 -0.4828 -0.7065
   93SAPE   C28 9165   5.764   2.850   4.798 -0.6351 -0.1613 -0.5071
   93SAPE   H8R 9166   5.716   2.940   4.758  1.4412  2.8008  2.9833
   93SAPE   C29 9167   5.795   2.747   4.715 -0.2345 -0.4356  0.0376
   93SAPE   H9R 9168   5.773   2.766   4.609  0.0993  0.5930  0.1414
   93SAPE  C210 9169   5.863   2.621   4.756 -0.0556 -0.1963 -0.0862
   93SAPE  H10R 9170   5.785   2.544   4.773  1.2107 -1.5683 -0.3262
   93SAPE  H10S 9171   5.927   2.619   4.847  0.1432 -0.9035 -0.2328
   93SAPE  C211 9172   5.942   2.587   4.636 -0.2235 -0.4855 -0.1765
   93SAPE  H11R 9173   6.051   2.596   4.646 -0.2164  0.1947 -0.7509
   93SAPE  C212 9174   5.905   2.524   4.520  0.5304 -0.4240 -0.0197
   93SAPE  H12R 9175   5.982   2.502   4.444  0.8316  1.0211 -0.1617
   93SAPE  C213 9176   5.761   2.489   4.485 -0.0666  0.4292 -0.1651
   93SAPE  H13R 9177   5.699   2.562   4.541  2.4214  1.7546  1.0422
   93SAPE  H13S 9178   5.749   2.382   4.511 -1.5038  1.1215  2.4212
   93SAPE  C214 9179   5.717   2.489   4.335  0.4674 -0.9472 -0.4239
   93SAPE  H14R 9180   5.764   2.402   4.287 -0.8287 -1.9994  0.1370
   93SAPE  C215 9181   5.626   2.564   4.268 -0.2405 -0.4829 -0.0950
   93SAPE  H15R 9182   5.624   2.552   4.158  4.7774  0.7323 -0.6152
   93SAPE  C216 9183   5.571   2.692   4.329  0.1532 -0.5217  0.4384
   93SAPE  H16R 9184   5.607   2.782   4.276  2.1127 -1.8715 -0.6621
   93SAPE  H16S 9185   5.620   2.710   4.427  2.4600  0.4601 -0.8185
   93SAPE  C217 9186   5.416   2.678   4.352 -0.1305 -0.9243 -0.0494
   93SAPE  H17R 9187   5.389   2.587   4.409  0.9962 -0.7590  0.7895
   93SAPE  H17S 9188   5.367   2.677   4.252 -1.1714  1.4677  0.3550
   93SAPE  C218 9189   5.368   2.813   4.419 -0.3929  0.5633 -0.3369
   93SAPE  H18R 9190   5.257   2.811   4.424 -0.5266  0.5664 -2.5257
   93SAPE  H18S 9191   5.385   2.893   4.345 -0.7661  0.6173 -0.3664
   93SAPE  C219 9192   5.428   2.851   4.554 -0.1947  0.6596  0.3261
   93SAPE  H19R 9193   5.538   2.835   4.559  0.0179  1.9350  0.1087
   93SAPE  H19S 9194   5.389   2.779   4.629  0.0318 -0.6005 -0.7361
   93SAPE  C220 9195   5.403   2.993   4.599  0.5907 -0.0995 -0.0681
   93SAPE  H20R 9196   5.295   3.014   4.614  0.7505  0.4781  0.2704
   93SAPE  H20S 9197   5.426   3.071   4.523  0.1524  1.9424  1.8128
   93SAPE  H20T 9198   5.469   3.027   4.681 -0.7913  1.3035  0.5145
   93SAPE   C33 9199   6.008   3.481   5.158 -0.2558  0.2484  0.2593
   93SAPE   H3X 9200   6.118   3.479   5.171  0.3045 -0.8833 -3.5355
   93SAPE   H3Y 9201   5.985   3.575   5.103  1.8159  0.9287  0.4533
   93SAPE   C34 9202   5.964   3.363   5.066  0.1711 -0.0899  0.2040
   93SAPE   H4X 9203   6.008   3.270   5.109  1.6078  0.9772  1.1211
   93SAPE   H4Y 9204   6.010   3.377   4.966 -1.3741  0.2574 -0.4985
   93SAPE   C35 9205   5.817   3.358   5.044  0.9441  0.4598  0.3295
   93SAPE   H5X 9206   5.768   3.451   5.006  0.2825  0.5733  1.4014
   93SAPE   H5Y 9207   5.761   3.337   5.138  1.0264 -0.9816  0.0779
   93SAPE   C36 9208   5.774   3.249   4.943  0.6820 -0.3028 -0.1780
   93SAPE   H6X 9209   5.667   3.231   4.969  0.5354  0.6985 -0.0538
   93SAPE   H6Y 9210   5.842   3.163   4.957  1.3195  0.0688 -0.9205
   93SAPE   C37 9211   5.787   3.302   4.799  0.2782 -0.0875 -0.1704
   93SAPE   H7X 9212   5.894   3.320   4.777  0.4138  1.1309  1.3068
   93SAPE   H7Y 9213   5.743   3.404   4.795  0.5985  0.0041 -1.7803
   93SAPE   C38 9214   5.701   3.221   4.702  0.5740  0.3032 -0.1945
   93SAPE   H8X 9215   5.594   3.214   4.732  0.7923 -0.6956  0.4186
   93SAPE   H8Y 9216   5.742   3.119   4.720  1.4122  0.6640 -0.0029
   93SAPE   C39 9217   5.707   3.250   4.552 -0.1589 -0.2007 -0.0327
   93SAPE   H9X 9218   5.649   3.339   4.518  2.0063  0.8893 -1.1048
   93SAPE   H9Y 9219   5.654   3.165   4.503  0.4180 -2.2590  2.7030
   93SAPE  C310 9220   5.844   3.261   4.494 -0.2641 -0.3267  0.7088
   93SAPE  H10X 9221   5.915   3.206   4.559 -0.3832 -0.4600  0.7294
   93SAPE  H10Y 9222   5.871   3.368   4.506 -2.3176  0.3150  0.0692
   93SAPE  C311 9223   5.858   3.213   4.349  0.0137 -0.2594 -0.2660
   93SAPE  H11X 9224   5.931   3.279   4.297  0.7054 -2.3803 -2.1358
   93SAPE  H11Y 9225   5.764   3.223   4.290 -0.4980 -4.5601 -0.5223
   93SAPE  C312 9226   5.902   3.067   4.336  0.2150 -0.1009  0.7958
   93SAPE  H12X 9227   5.820   3.000   4.372  0.8874 -0.2054  2.1690
   93SAPE  H12Y 9228   5.984   3.050   4.408 -0.2134 -0.7941  1.1367
   93SAPE  C313 9229   5.953   3.027   4.198  0.4613 -0.2968 -0.2992
   93SAPE  H13X 9230   6.045   3.085   4.176  0.0545  1.1228  1.5355
   93SAPE  H13Y 9231   5.870   3.047   4.127 -0.4273 -0.3035  0.7033
   93SAPE  C314 9232   6.005   2.889   4.187 -0.0006  0.8989 -0.0979
   93SAPE  H14X 9233   5.926   2.826   4.233 -0.9272  3.1990  1.6781
   93SAPE  H14Y 9234   6.094   2.865   4.249 -0.8653 -1.3035  0.3737
   93SAPE  C315 9235   6.031   2.848   4.038 -0.3974 -0.3591 -0.4040
   93SAPE  H15X 9236   5.963   2.904   3.970 -1.4031  1.4991  1.9496
   93SAPE  H15Y 9237   6.000   2.742   4.025  2.7702 -1.2965 -1.1454
   93SAPE  C316 9238   6.172   2.868   3.988  0.2704  0.4679 -0.0054
   93SAPE  H16X 9239   6.250   2.824   4.053  1.0410 -0.3757 -1.4384
   93SAPE  H16Y 9240   6.197   2.977   3.992  4.2229 -0.2223 -1.0798
   93SAPE  C317 9241   6.213   2.806   3.855  0.7754  0.1356 -0.2977
   93SAPE  H17X 9242   6.140   2.841   3.779  0.7590  0.5366 -0.1035
   93SAPE  H17Y 9243   6.194   2.699   3.874 -1.6799  1.0145  3.2835
   93SAPE  C318 9244   6.360   2.826   3.813  0.5870  0.7571  0.2169
   93SAPE  H18X 9245   6.390   2.933   3.805 -0.6246  1.0322 -0.9053
   93SAPE  H18Y 9246   6.366   2.781   3.711 -0.2760 -1.5476  1.1053
   93SAPE  H18Z 9247   6.429   2.777   3.884  0.0963  1.8061  1.4514
   94SAPE     N 9248   4.282   5.107   6.219  0.2245  0.2582 -0.5333
   94SAPE   HN1 9249   4.291   5.005   6.201  0.5643 -0.2755  2.2020
   94SAPE   HN2 9250   4.333   5.125   6.308  1.6426  0.1887 -1.3186
   94SAPE   HN3 9251   4.179   5.121   6.228  0.1892  0.9748 -1.8209
   94SAPE   C12 9252   4.339   5.195   6.108  0.3582  1.0666  0.0015
   94SAPE  H12A 9253   4.285   5.164   6.017 -1.2468  0.9199  0.9643
   94SAPE  H12B 9254   4.449   5.181   6.109  0.1984 -0.3513  0.6011
   94SAPE   C11 9255   4.304   5.342   6.128  0.9766 -0.2573  0.2718
   94SAPE  H11A 9256   4.341   5.405   6.045 -0.5519  0.1483 -0.1365
   94SAPE  H11B 9257   4.346   5.377   6.225 -2.6730  0.5644  1.7250
   94SAPE     P 9258   4.067   5.369   6.019  0.5889 -0.2690 -0.0820
   94SAPE   O13 9259   4.121   5.287   5.905 -0.1380  0.2521 -0.0597
   94SAPE   O14 9260   3.925   5.349   6.051  0.0253  0.0680 -0.3504
   94SAPE   O12 9261   4.161   5.342   6.145 -0.4914  0.2708  0.0790
   94SAPE   O11 9262   4.095   5.526   5.993  0.1642  0.1283  0.6251
   94SAPE    C1 9263   4.111   5.573   5.858 -0.8673 -0.4612 -0.8291
   94SAPE    HA 9264   4.158   5.673   5.848  1.3788 -1.4150 -0.4367
   94SAPE    HB 9265   4.170   5.498   5.801  0.4610 -0.5539  0.6170
   94SAPE    C2 9266   3.982   5.592   5.778  0.5146 -1.0844  0.0173
   94SAPE    HS 9267   3.894   5.615   5.842  0.9388  1.4016 -0.2033
   94SAPE   O21 9268   3.949   5.466   5.713  0.5082 -0.1555  0.6014
   94SAPE   C21 9269   3.841   5.466   5.636  0.8421 -0.2691  0.3191
   94SAPE   O22 9270   3.756   5.549   5.610  0.9497  0.3790  0.3827
   94SAPE   C22 9271   3.836   5.334   5.558  0.2340 -0.8091  0.1843
   94SAPE   H2R 9272   3.924   5.332   5.491  0.8096  1.7931  0.7486
   94SAPE   H2S 9273   3.840   5.250   5.630 -2.1510 -0.6117  0.6427
   94SAPE    C3 9274   3.990   5.711   5.671  0.1397  0.5409  0.1601
   94SAPE    HX 9275   4.042   5.798   5.717  1.8704  0.8696 -2.2226
   94SAPE    HY 9276   3.889   5.742   5.637  0.8794  1.6613 -1.1247
   94SAPE   O31 9277   4.062   5.684   5.546  0.3846 -0.3564  0.4696
   94SAPE   C31 9278   4.197   5.704   5.545 -0.0918  0.4946 -0.7854
   94SAPE   O32 9279   4.262   5.730   5.648 -0.2300 -0.5375 -0.0810
   94SAPE   C32 9280   4.243   5.697   5.401  0.2837  0.7266 -0.7156
   94SAPE   H2X 9281   4.200   5.777   5.337 -1.7412  0.6193  0.4542
   94SAPE   H2Y 9282   4.235   5.599   5.348  0.0538  1.6526 -2.4857
   94SAPE   C23 9283   3.699   5.321   5.480  0.5527 -0.8338  0.4068
   94SAPE   H3R 9284   3.705   5.376   5.383 -1.3528 -0.9616  0.1746
   94SAPE   H3S 9285   3.608   5.361   5.531  1.1261 -1.3745  1.8934
   94SAPE   C24 9286   3.678   5.177   5.428  0.2435  0.0927 -0.5831
   94SAPE   H4R 9287   3.616   5.177   5.336 -0.4871 -1.4404 -0.1174
   94SAPE   H4S 9288   3.626   5.116   5.505  1.5329 -0.4339 -0.1116
   94SAPE   C25 9289   3.810   5.107   5.399  0.0191  0.2042 -0.4678
   94SAPE   H5R 9290   3.860   5.058   5.484  0.4970  1.1899 -0.1638
   94SAPE   C26 9291   3.874   5.113   5.279 -0.1422 -0.6929 -0.5059
   94SAPE   H6R 9292   3.972   5.062   5.274 -0.4848 -1.4482  0.3195
   94SAPE   C27 9293   3.825   5.161   5.148 -0.0589 -0.4992  0.4306
   94SAPE   H7R 9294   3.714   5.161   5.142 -0.0524  0.2096  0.1027
   94SAPE   H7S 9295   3.864   5.085   5.077 -1.2291 -0.2007 -0.5719
   94SAPE   C28 9296   3.883   5.303   5.126  0.2633  0.4425 -0.7091
   94SAPE   H8R 9297   3.876   5.368   5.214  0.6508  0.1942 -0.4930
   94SAPE   C29 9298   3.932   5.343   5.007  0.3011 -0.2589 -0.2331
   94SAPE   H9R 9299   3.971   5.446   5.003 -0.9816  0.3606  1.6540
   94SAPE  C210 9300   3.938   5.262   4.878  0.0145  0.3036 -0.2004
   94SAPE  H10R 9301   3.844   5.205   4.862 -0.0612  0.6979 -1.2203
   94SAPE  H10S 9302   4.014   5.182   4.891 -0.5325 -0.2551 -0.3883
   94SAPE  C211 9303   3.974   5.345   4.750  1.0825  0.1899  0.4585
   94SAPE  H11R 9304   4.077   5.330   4.715  0.9359  2.7228 -1.3664
   94SAPE  C212 9305   3.893   5.433   4.685  0.2117  0.1356 -0.0089
   94SAPE  H12R 9306   3.926   5.490   4.597 -1.4383  1.1090 -0.0322
   94SAPE  C213 9307   3.753   5.453   4.734  0.0632  0.6210  0.1444
   94SAPE  H13R 9308   3.750   5.452   4.845 -0.1387  0.2052  0.1394
   94SAPE  H13S 9309   3.699   5.360   4.705  0.9935  0.1438 -0.0793
   94SAPE  C214 9310   3.679   5.574   4.693  0.0475 -0.3318 -0.9284
   94SAPE  H14R 9311   3.648   5.642   4.773  1.0276  1.1033 -1.7358
   94SAPE  C215 9312   3.625   5.606   4.571 -0.3598  0.6001  0.3881
   94SAPE  H15R 9313   3.559   5.692   4.556  0.1838  0.8603 -0.5642
   94SAPE  C216 9314   3.647   5.526   4.440 -0.4475 -0.9240  0.7675
   94SAPE  H16R 9315   3.556   5.513   4.377 -0.1374  1.2343 -0.2374
   94SAPE  H16S 9316   3.680   5.421   4.450 -4.5424 -2.4180  0.4040
   94SAPE  C217 9317   3.741   5.609   4.349 -0.7179  0.0074 -0.5987
   94SAPE  H17R 9318   3.758   5.548   4.257  1.2002 -0.2233 -0.1356
   94SAPE  H17S 9319   3.842   5.611   4.395 -0.4082 -1.1581 -1.1760
   94SAPE  C218 9320   3.693   5.749   4.304 -0.7959  0.0162 -0.2580
   94SAPE  H18R 9321   3.774   5.799   4.245 -1.5132  1.8611  0.2768
   94SAPE  H18S 9322   3.673   5.817   4.389  0.6871  0.5590 -0.3166
   94SAPE  C219 9323   3.570   5.739   4.212  0.0056 -0.4671  0.9237
   94SAPE  H19R 9324   3.480   5.710   4.271 -2.4293 -1.2680 -2.8384
   94SAPE  H19S 9325   3.588   5.658   4.139  0.3793  1.7554 -1.5924
   94SAPE  C220 9326   3.529   5.869   4.137 -0.4903 -0.0091  0.2687
   94SAPE  H20R 9327   3.513   5.949   4.212 -0.7661 -0.9047  1.1853
   94SAPE  H20S 9328   3.444   5.856   4.067 -0.6204  1.7600  0.0580
   94SAPE  H20T 9329   3.610   5.895   4.066 -0.5568  0.7443  0.4622
   94SAPE   C33 9330   4.394   5.724   5.379  1.1892 -0.5691 -0.2824
   94SAPE   H3X 9331   4.458   5.647   5.427  1.5379 -1.1746 -1.6751
   94SAPE   H3Y 9332   4.407   5.817   5.439  0.4628 -1.1000  0.7402
   94SAPE   C34 9333   4.428   5.736   5.230 -0.0881 -0.1760 -0.5055
   94SAPE   H4X 9334   4.375   5.826   5.195 -0.5248  0.2427  1.1589
   94SAPE   H4Y 9335   4.382   5.650   5.177  0.6768 -1.1460  0.3584
   94SAPE   C35 9336   4.573   5.743   5.195 -0.1589 -0.2732 -0.4094
   94SAPE   H5X 9337   4.619   5.645   5.221 -1.0170 -0.8722 -1.1083
   94SAPE   H5Y 9338   4.595   5.818   5.274 -1.8178  0.9051 -1.0205
   94SAPE   C36 9339   4.603   5.791   5.048  0.4250 -0.0866 -0.2158
   94SAPE   H6X 9340   4.554   5.890   5.032 -1.8797 -0.8072  1.7113
   94SAPE   H6Y 9341   4.545   5.718   4.989  0.6646 -2.2841  2.1080
   94SAPE   C37 9342   4.755   5.792   5.012 -0.2625 -0.5216 -0.6692
   94SAPE   H7X 9343   4.786   5.689   5.039  0.6136 -0.1659 -0.2683
   94SAPE   H7Y 9344   4.806   5.873   5.068 -0.5240  0.0415 -1.2364
   94SAPE   C38 9345   4.777   5.809   4.856 -0.3923  0.1239 -0.5109
   94SAPE   H8X 9346   4.728   5.720   4.811  0.5542 -1.0941  0.7789
   94SAPE   H8Y 9347   4.888   5.807   4.845 -0.3548 -0.3893 -0.0980
   94SAPE   C39 9348   4.723   5.932   4.789 -0.5902 -0.6903  0.5017
   94SAPE   H9X 9349   4.755   6.022   4.844  0.4453  0.1203 -1.3316
   94SAPE   H9Y 9350   4.613   5.944   4.782 -0.2600  3.2877 -0.3575
   94SAPE  C310 9351   4.774   5.961   4.641 -0.6592 -0.3567 -0.2455
   94SAPE  H10X 9352   4.885   5.971   4.640 -0.4385 -1.9605  1.9338
   94SAPE  H10Y 9353   4.731   6.063   4.635  0.5820  0.2418  0.6321
   94SAPE  C311 9354   4.727   5.869   4.529 -0.8443 -0.2371 -0.4560
   94SAPE  H11X 9355   4.624   5.899   4.497 -0.6040 -1.0262 -2.0916
   94SAPE  H11Y 9356   4.711   5.764   4.562 -3.2035 -0.0919 -0.9486
   94SAPE  C312 9357   4.827   5.864   4.413 -0.2357 -0.0219 -0.6905
   94SAPE  H12X 9358   4.926   5.849   4.461 -0.0640  1.5593 -0.5037
   94SAPE  H12Y 9359   4.834   5.961   4.359  2.2981  0.3212  0.1002
   94SAPE  C313 9360   4.805   5.741   4.324 -0.1688  0.4218 -0.5965
   94SAPE  H13X 9361   4.726   5.758   4.248  0.3644  1.2294 -0.9851
   94SAPE  H13Y 9362   4.791   5.649   4.384 -0.6869  0.6070 -0.4270
   94SAPE  C314 9363   4.924   5.724   4.234 -1.0715  0.2437 -0.1230
   94SAPE  H14X 9364   5.017   5.692   4.286 -0.2873  1.1835 -0.9061
   94SAPE  H14Y 9365   4.938   5.823   4.185 -4.7721  1.0044  0.0887
   94SAPE  C315 9366   4.894   5.622   4.125  0.6497 -0.1452 -0.8209
   94SAPE  H15X 9367   4.818   5.653   4.049  0.2326 -1.2130 -0.8573
   94SAPE  H15Y 9368   4.853   5.530   4.172 -0.5136  2.0016  2.8047
   94SAPE  C316 9369   5.022   5.589   4.051  0.5615  0.1810 -0.1245
   94SAPE  H16X 9370   5.015   5.489   4.003  1.1617 -0.2481  0.6466
   94SAPE  H16Y 9371   5.102   5.577   4.127  0.3247  1.4344  0.3467
   94SAPE  C317 9372   5.080   5.695   3.959 -0.1609 -0.2615 -0.1043
   94SAPE  H17X 9373   5.179   5.656   3.928 -1.1334 -1.7973 -1.4029
   94SAPE  H17Y 9374   5.090   5.788   4.020 -1.8608  1.2096 -1.9445
   94SAPE  C318 9375   5.014   5.742   3.827 -0.0979  0.2322  0.7502
   94SAPE  H18X 9376   4.908   5.767   3.848  0.5657  2.8936  1.2594
   94SAPE  H18Y 9377   5.031   5.662   3.752 -0.6845 -2.0055  2.8504
   94SAPE  H18Z 9378   5.075   5.831   3.798 -0.3444  0.3237  0.5156
   95SAPE     N 9379   0.277   3.474   6.084 -1.1443  0.5624 -0.0624
   95SAPE   HN1 9380   0.213   3.515   6.012  1.2130 -0.4092 -2.8769
   95SAPE   HN2 9381   0.232   3.385   6.113  0.4068 -0.2791 -0.1384
   95SAPE   HN3 9382   0.298   3.524   6.173 -0.9526 -1.2011  0.9382
   95SAPE   C12 9383   0.398   3.437   6.004 -0.7560 -0.3439  0.1884
   95SAPE  H12A 9384   0.451   3.531   5.977  3.9658 -3.1209 -1.2047
   95SAPE  H12B 9385   0.373   3.417   5.897 -0.2604 -0.9417  0.1829
   95SAPE   C11 9386   0.502   3.349   6.070  0.1421  0.5354 -1.0167
   95SAPE  H11A 9387   0.458   3.246   6.073 -0.3020  0.7320  0.3295
   95SAPE  H11B 9388   0.519   3.379   6.176  3.5422  2.0265 -1.8864
   95SAPE     P 9389   0.738   3.249   6.020 -0.0973  0.1962  0.3980
   95SAPE   O13 9390   0.869   3.319   6.008  0.2616  0.4079  0.9475
   95SAPE   O14 9391   0.716   3.174   6.143 -0.4604 -0.6748  0.6361
   95SAPE   O12 9392   0.624   3.357   6.000  0.3154 -0.0310 -0.2834
   95SAPE   O11 9393   0.730   3.149   5.896  0.1144 -0.6937 -0.1034
   95SAPE    C1 9394   0.676   3.189   5.768  1.0876 -0.6682  0.8300
   95SAPE    HA 9395   0.612   3.104   5.736  0.1909 -0.7903  2.8215
   95SAPE    HB 9396   0.600   3.270   5.776 -2.2373 -3.5725  1.0070
   95SAPE    C2 9397   0.779   3.229   5.664  0.3429 -0.0929  0.0591
   95SAPE    HS 9398   0.828   3.322   5.698 -2.3326  1.1131  0.8954
   95SAPE   O21 9399   0.711   3.245   5.539  0.3172 -0.5179  0.1818
   95SAPE   C21 9400   0.691   3.372   5.505  0.1764  0.5157  0.7801
   95SAPE   O22 9401   0.731   3.471   5.563 -0.6885 -0.0488 -0.3156
   95SAPE   C22 9402   0.613   3.379   5.372 -0.1365 -1.0085  0.0346
   95SAPE   H2R 9403   0.515   3.332   5.395 -0.2946 -0.5686  0.2693
   95SAPE   H2S 9404   0.599   3.486   5.343 -0.2636 -1.3227 -1.1303
   95SAPE    C3 9405   0.885   3.114   5.659  0.9161 -0.3837 -0.0428
   95SAPE    HX 9406   0.835   3.016   5.650 -0.5772  0.1210  1.9348
   95SAPE    HY 9407   0.927   3.115   5.762 -3.1372  0.3845  1.7957
   95SAPE   O31 9408   0.990   3.126   5.560  0.4066  0.5362  0.6353
   95SAPE   C31 9409   1.079   3.215   5.580 -0.6774 -0.1298 -0.1468
   95SAPE   O32 9410   1.085   3.290   5.678 -0.5309  0.5503 -0.7387
   95SAPE   C32 9411   1.166   3.224   5.451 -0.0710  0.1875 -0.4357
   95SAPE   H2X 9412   1.108   3.227   5.356  0.4960  1.9999 -0.7699
   95SAPE   H2Y 9413   1.228   3.132   5.443  0.3953  0.5414 -1.0674
   95SAPE   C23 9414   0.696   3.295   5.265 -0.0082 -0.6859 -0.0394
   95SAPE   H3R 9415   0.644   3.319   5.170 -0.1213  0.2299  0.2429
   95SAPE   H3S 9416   0.696   3.186   5.287  0.6925 -0.5540  0.6463
   95SAPE   C24 9417   0.846   3.346   5.254  0.3143  0.1042  0.1739
   95SAPE   H4R 9418   0.891   3.355   5.355 -0.3010  0.2041  0.4460
   95SAPE   H4S 9419   0.830   3.452   5.226 -0.5704 -0.3589 -1.1864
   95SAPE   C25 9420   0.918   3.265   5.146 -0.2080 -0.8770 -0.2237
   95SAPE   H5R 9421   0.904   3.158   5.169 -1.2470 -0.3541  1.7572
   95SAPE   C26 9422   0.969   3.316   5.024  0.0488 -0.0997  0.2543
   95SAPE   H6R 9423   1.004   3.247   4.946 -0.8154 -1.1202  0.7406
   95SAPE   C27 9424   0.971   3.462   4.983 -0.9170  0.8665  0.2561
   95SAPE   H7R 9425   0.967   3.532   5.069 -1.9988 -1.4768  2.2241
   95SAPE   H7S 9426   0.879   3.480   4.923 -0.1258  2.2285 -0.6156
   95SAPE   C28 9427   1.090   3.491   4.895 -1.0921 -0.2062 -0.0526
   95SAPE   H8R 9428   1.178   3.515   4.956  0.2516 -1.9672 -1.2386
   95SAPE   C29 9429   1.096   3.523   4.767 -0.1982 -0.0709 -0.0545
   95SAPE   H9R 9430   1.189   3.559   4.722 -0.6802  0.5647 -0.5683
   95SAPE  C210 9431   0.974   3.547   4.677 -0.9213 -0.1192 -0.1274
   95SAPE  H10R 9432   0.887   3.581   4.738 -0.1396  1.0263  0.3844
   95SAPE  H10S 9433   0.950   3.449   4.631 -0.7474 -1.4204  2.3754
   95SAPE  C211 9434   1.015   3.638   4.565 -0.1858 -0.4878 -0.4263
   95SAPE  H11R 9435   0.998   3.745   4.586  0.1000 -0.6172  0.5454
   95SAPE  C212 9436   1.085   3.599   4.453 -0.3055  0.8675  0.5742
   95SAPE  H12R 9437   1.112   3.665   4.369  0.5698 -2.0633 -1.6248
   95SAPE  C213 9438   1.126   3.454   4.431  0.7824 -0.1808  0.3149
   95SAPE  H13R 9439   1.026   3.409   4.411  0.5375 -0.3751  1.8316
   95SAPE  H13S 9440   1.163   3.406   4.524  0.1853  0.1220  0.7157
   95SAPE  C214 9441   1.224   3.430   4.318  0.4968 -0.3435 -0.2514
   95SAPE  H14R 9442   1.220   3.519   4.253 -1.5322  1.4365  2.1146
   95SAPE  C215 9443   1.297   3.317   4.298 -0.5443 -0.2013 -0.6662
   95SAPE  H15R 9444   1.359   3.316   4.207  2.9803  1.7685  1.4501
   95SAPE  C216 9445   1.318   3.191   4.383 -0.3614 -0.0201 -0.0767
   95SAPE  H16R 9446   1.244   3.112   4.361 -0.1694 -0.6047  1.2545
   95SAPE  H16S 9447   1.304   3.221   4.489  0.2853 -0.1360  0.0496
   95SAPE  C217 9448   1.455   3.124   4.361 -0.2743  1.0404 -0.3434
   95SAPE  H17R 9449   1.472   3.093   4.256 -2.8628 -0.9990 -0.2751
   95SAPE  H17S 9450   1.440   3.024   4.408 -0.5313  0.8100 -0.9058
   95SAPE  C218 9451   1.579   3.195   4.410  0.0839  0.5963 -0.2397
   95SAPE  H18R 9452   1.596   3.290   4.356  1.3159  0.5548  0.0365
   95SAPE  H18S 9453   1.655   3.115   4.392 -1.0184 -0.7603  0.8236
   95SAPE  C219 9454   1.573   3.228   4.552  0.0821  0.3197  0.3424
   95SAPE  H19R 9455   1.490   3.299   4.571 -2.0892 -2.0200  0.3034
   95SAPE  H19S 9456   1.656   3.296   4.579  2.1988 -0.7726 -2.7920
   95SAPE  C220 9457   1.575   3.110   4.648  0.4681  1.0751  0.3302
   95SAPE  H20R 9458   1.592   3.145   4.752  0.6729 -1.5218  1.2264
   95SAPE  H20S 9459   1.650   3.032   4.622 -0.9942  0.4030 -2.2833
   95SAPE  H20T 9460   1.477   3.057   4.642 -0.4670  2.8212 -0.8426
   95SAPE   C33 9461   1.250   3.351   5.435  0.0781 -0.2295 -0.8569
   95SAPE   H3X 9462   1.330   3.355   5.511  0.8207  0.0467 -1.6394
   95SAPE   H3Y 9463   1.193   3.446   5.440  1.6881  0.7145  2.9299
   95SAPE   C34 9464   1.330   3.344   5.299 -0.1351 -0.3190 -0.0247
   95SAPE   H4X 9465   1.281   3.276   5.226 -0.4355 -0.6665  0.5000
   95SAPE   H4Y 9466   1.429   3.300   5.323 -0.8023 -3.2200 -2.0576
   95SAPE   C35 9467   1.345   3.478   5.231 -0.5315 -0.5746  0.3221
   95SAPE   H5X 9468   1.370   3.550   5.311  0.4444 -1.1262  0.5332
   95SAPE   H5Y 9469   1.248   3.518   5.195  0.4327  0.2323 -1.5531
   95SAPE   C36 9470   1.435   3.485   5.111  0.0569  0.3862  0.4736
   95SAPE   H6X 9471   1.391   3.416   5.036  1.0278  1.8498 -1.5476
   95SAPE   H6Y 9472   1.538   3.455   5.142 -0.1013  0.1563  0.7802
   95SAPE   C37 9473   1.440   3.624   5.050  0.3142  0.6512  0.3557
   95SAPE   H7X 9474   1.492   3.696   5.116 -1.8782  1.2424  1.5650
   95SAPE   H7Y 9475   1.334   3.657   5.037 -0.7332 -2.8369 -1.1972
   95SAPE   C38 9476   1.504   3.617   4.904 -0.0983 -0.2348 -0.4094
   95SAPE   H8X 9477   1.466   3.526   4.855 -0.3336 -1.0392  1.1973
   95SAPE   H8Y 9478   1.614   3.604   4.915 -0.2060  0.3011  1.8694
   95SAPE   C39 9479   1.466   3.737   4.817 -0.0198  0.6969 -0.5121
   95SAPE   H9X 9480   1.509   3.821   4.877  1.2659  0.2044 -0.7145
   95SAPE   H9Y 9481   1.355   3.744   4.826  0.1036  1.1402  1.0867
   95SAPE  C310 9482   1.515   3.729   4.675 -0.9389  0.4508  0.5057
   95SAPE  H10X 9483   1.626   3.727   4.677 -0.8949  2.0756  1.9135
   95SAPE  H10Y 9484   1.489   3.813   4.607  0.8026 -0.0814 -0.9141
   95SAPE  C311 9485   1.479   3.597   4.595  0.1458  0.2254  0.3740
   95SAPE  H11X 9486   1.371   3.572   4.594  0.7768 -2.9016 -0.2222
   95SAPE  H11Y 9487   1.527   3.510   4.646  1.6029  0.9622  0.2977
   95SAPE  C312 9488   1.528   3.596   4.445  0.4920  0.5820 -0.2666
   95SAPE  H12X 9489   1.513   3.501   4.389 -1.1601  1.6973 -1.8294
   95SAPE  H12Y 9490   1.639   3.605   4.441  0.6278 -0.6144  0.2717
   95SAPE  C313 9491   1.464   3.700   4.348 -0.6454 -0.5607 -0.4384
   95SAPE  H13X 9492   1.496   3.801   4.379 -0.1442 -0.0082 -2.5991
   95SAPE  H13Y 9493   1.353   3.692   4.347 -0.6888  0.0212 -0.4021
   95SAPE  C314 9494   1.511   3.692   4.194 -0.4845 -0.1278  0.0151
   95SAPE  H14X 9495   1.505   3.585   4.165  1.1566 -0.8682  2.0693
   95SAPE  H14Y 9496   1.619   3.717   4.195 -0.1176 -1.2061 -3.2460
   95SAPE  C315 9497   1.437   3.791   4.104  0.1186 -0.2660 -0.2579
   95SAPE  H15X 9498   1.481   3.893   4.104 -0.2239 -0.1030  0.6670
   95SAPE  H15Y 9499   1.335   3.796   4.147  0.6455  0.0875  1.0070
   95SAPE  C316 9500   1.418   3.748   3.956 -0.2485 -1.0866  0.2488
   95SAPE  H16X 9501   1.349   3.660   3.959 -2.2150  0.4128  1.7091
   95SAPE  H16Y 9502   1.523   3.721   3.929 -0.3696  0.8948 -2.6845
   95SAPE  C317 9503   1.358   3.857   3.863 -0.8208 -0.0796  0.5123
   95SAPE  H17X 9504   1.421   3.945   3.888 -0.3611 -1.0694  3.1714
   95SAPE  H17Y 9505   1.255   3.891   3.888 -0.1356  2.9280 -0.3951
   95SAPE  C318 9506   1.368   3.833   3.713  0.3600 -0.9691 -0.3031
   95SAPE  H18X 9507   1.476   3.844   3.689  0.2923  0.7508  0.0041
   95SAPE  H18Y 9508   1.308   3.920   3.677  1.0561 -1.6305 -3.3439
   95SAPE  H18Z 9509   1.323   3.740   3.673 -4.5461  1.2613 -0.6930
   96SAPE     N 9510   3.688   5.408   6.140  0.4940 -0.4099 -0.6878
   96SAPE   HN1 9511   3.701   5.507   6.167  3.1506 -1.4667  2.6748
   96SAPE   HN2 9512   3.674   5.360   6.231 -1.2857  0.4966 -0.4347
   96SAPE   HN3 9513   3.778   5.370   6.103  1.3620  0.3582  0.5737
   96SAPE   C12 9514   3.588   5.380   6.036  0.0836 -0.9100  0.7776
   96SAPE  H12A 9515   3.487   5.375   6.082  0.1109 -0.5572  0.8815
   96SAPE  H12B 9516   3.608   5.279   5.994  2.6405  0.8988 -2.8633
   96SAPE   C11 9517   3.595   5.487   5.923 -0.4973  0.6117 -0.3396
   96SAPE  H11A 9518   3.534   5.455   5.836 -1.1149  1.2735 -0.1581
   96SAPE  H11B 9519   3.702   5.495   5.896 -0.4923 -0.4669 -0.7200
   96SAPE     P 9520   3.410   5.657   5.957 -0.3414 -0.4626 -0.0832
   96SAPE   O13 9521   3.328   5.559   6.036  0.5344  0.0464  0.1620
   96SAPE   O14 9522   3.398   5.800   6.003 -0.1925  1.2661 -0.1740
   96SAPE   O12 9523   3.556   5.615   5.968  0.1131 -0.4900 -0.8212
   96SAPE   O11 9524   3.368   5.650   5.803 -0.2407 -0.1509  0.1703
   96SAPE    C1 9525   3.457   5.671   5.689 -0.3515  0.4019 -0.6516
   96SAPE    HA 9526   3.563   5.664   5.724 -0.7431  1.5295  0.9003
   96SAPE    HB 9527   3.418   5.607   5.608  0.4133  2.1873 -2.5335
   96SAPE    C2 9528   3.447   5.822   5.637 -0.3242 -0.0415 -0.2857
   96SAPE    HS 9529   3.477   5.885   5.723 -1.1877 -1.0629  0.7805
   96SAPE   O21 9530   3.315   5.846   5.590  0.3884  0.5162 -0.8220
   96SAPE   C21 9531   3.273   5.974   5.571 -1.5822 -0.4308 -0.3102
   96SAPE   O22 9532   3.337   6.073   5.596 -0.4959  0.2389 -0.3074
   96SAPE   C22 9533   3.136   5.971   5.501 -0.1054  0.0364  0.0843
   96SAPE   H2R 9534   3.123   5.881   5.438  0.6223  1.3981 -2.1272
   96SAPE   H2S 9535   3.061   5.975   5.582 -0.1793  3.4802 -0.0021
   96SAPE    C3 9536   3.556   5.843   5.523 -0.3964 -0.3542 -0.0343
   96SAPE    HX 9537   3.493   5.825   5.433  1.2435 -0.4202 -1.2206
   96SAPE    HY 9538   3.640   5.770   5.519 -0.6181 -0.6148  0.1020
   96SAPE   O31 9539   3.606   5.977   5.520  0.1633  0.6962  0.5080
   96SAPE   C31 9540   3.695   6.021   5.611  0.0050  0.2943  0.8314
   96SAPE   O32 9541   3.718   5.970   5.720  0.6547  0.2481 -0.6628
   96SAPE   C32 9542   3.756   6.154   5.559 -0.2610  0.0616  0.1041
   96SAPE   H2X 9543   3.852   6.128   5.510 -1.1354 -1.0849 -1.0909
   96SAPE   H2Y 9544   3.785   6.216   5.646 -1.3752 -0.4100  0.8298
   96SAPE   C23 9545   3.098   6.086   5.413 -0.1374 -0.9709 -0.7037
   96SAPE   H3R 9546   3.118   6.180   5.469 -1.0205 -1.3364  0.2613
   96SAPE   H3S 9547   2.992   6.087   5.382 -0.5984 -2.6320  0.7052
   96SAPE   C24 9548   3.160   6.089   5.273  0.2292 -0.3771 -0.3635
   96SAPE   H4R 9549   3.111   6.175   5.221 -1.1599 -1.2526 -0.5517
   96SAPE   H4S 9550   3.129   5.992   5.227 -1.9070  0.2027 -0.2755
   96SAPE   C25 9551   3.305   6.105   5.270  0.7077 -0.6496 -0.8149
   96SAPE   H5R 9552   3.347   6.147   5.362  0.0354 -2.9644  0.6241
   96SAPE   C26 9553   3.388   6.097   5.164  0.9552  0.1768 -0.1810
   96SAPE   H6R 9554   3.494   6.121   5.180  0.9694 -0.2484  0.3777
   96SAPE   C27 9555   3.347   6.067   5.024 -0.4478  0.0800  0.1000
   96SAPE   H7R 9556   3.374   6.152   4.958  0.3829  0.5686  1.0414
   96SAPE   H7S 9557   3.239   6.042   5.033  0.6142 -5.2648  1.8456
   96SAPE   C28 9558   3.419   5.943   4.978 -0.6792  0.1240 -0.0913
   96SAPE   H8R 9559   3.367   5.853   5.013 -1.5062  0.6547  0.1033
   96SAPE   C29 9560   3.531   5.932   4.896  0.4959 -0.1081 -0.5035
   96SAPE   H9R 9561   3.561   5.833   4.858  0.8487  0.0509 -0.6435
   96SAPE  C210 9562   3.591   6.039   4.811  0.8367 -0.4510 -0.6271
   96SAPE  H10R 9563   3.524   6.121   4.778  1.2332  0.2242  0.2014
   96SAPE  H10S 9564   3.626   5.988   4.719  2.9465 -0.0409 -0.1068
   96SAPE  C211 9565   3.706   6.107   4.887  0.3807 -0.6361  0.8376
   96SAPE  H11R 9566   3.684   6.170   4.974 -1.0452  1.1059 -0.7051
   96SAPE  C212 9567   3.831   6.132   4.837 -0.5538 -0.9700  0.3489
   96SAPE  H12R 9568   3.897   6.194   4.900 -0.7731  1.0559 -1.2939
   96SAPE  C213 9569   3.899   6.086   4.707 -0.0124 -0.3343 -0.1749
   96SAPE  H13R 9570   4.005   6.121   4.712 -0.3011  0.5533 -0.0109
   96SAPE  H13S 9571   3.870   6.141   4.615  1.0397 -0.2789 -0.4901
   96SAPE  C214 9572   3.887   5.941   4.675  0.2325  0.4341  0.3361
   96SAPE  H14R 9573   3.846   5.878   4.755 -2.1079  1.5670  0.1271
   96SAPE  C215 9574   3.916   5.881   4.565 -0.4745  0.9297  0.1872
   96SAPE  H15R 9575   3.887   5.775   4.561  3.0760 -0.1976  0.5998
   96SAPE  C216 9576   3.957   5.941   4.429 -0.2422 -0.0917  0.5684
   96SAPE  H16R 9577   3.987   6.047   4.428  1.6458 -0.5882  0.4557
   96SAPE  H16S 9578   3.874   5.941   4.355 -0.5715  1.2592  0.9113
   96SAPE  C217 9579   4.083   5.860   4.382  0.5449  0.1359  0.7743
   96SAPE  H17R 9580   4.112   5.889   4.278  1.1896 -3.2400 -0.0925
   96SAPE  H17S 9581   4.072   5.750   4.376  1.7999  0.0411 -0.0405
   96SAPE  C218 9582   4.218   5.903   4.446  0.4981  0.1186 -0.1808
   96SAPE  H18R 9583   4.209   5.884   4.555 -1.1202  0.9193 -0.1269
   96SAPE  H18S 9584   4.243   6.010   4.428 -0.8921  0.2761 -1.4842
   96SAPE  C219 9585   4.329   5.816   4.394 -0.6656  0.1236  0.0268
   96SAPE  H19R 9586   4.278   5.725   4.357 -2.0046  1.3951 -1.3563
   96SAPE  H19S 9587   4.399   5.792   4.477 -1.2635  0.3703  0.6133
   96SAPE  C220 9588   4.403   5.877   4.270 -0.0250  0.1318 -1.3341
   96SAPE  H20R 9589   4.480   5.804   4.236  1.2770 -0.2785  2.0875
   96SAPE  H20S 9590   4.465   5.958   4.313  0.3710 -1.1958  0.7339
   96SAPE  H20T 9591   4.332   5.915   4.193 -0.9068 -1.2965 -1.2755
   96SAPE   C33 9592   3.665   6.227   5.459 -0.6070 -0.1262 -0.2174
   96SAPE   H3X 9593   3.578   6.250   5.523 -0.1240 -0.5931  0.6173
   96SAPE   H3Y 9594   3.634   6.156   5.379 -1.6576 -1.1022  1.0163
   96SAPE   C34 9595   3.726   6.349   5.386 -0.0778  0.2816  0.3820
   96SAPE   H4X 9596   3.789   6.400   5.462  1.3577 -3.1612  1.6907
   96SAPE   H4Y 9597   3.646   6.421   5.358  1.3004  1.6508 -0.2109
   96SAPE   C35 9598   3.816   6.320   5.266  0.1698  0.5378 -0.3346
   96SAPE   H5X 9599   3.759   6.242   5.211  0.5914  0.4195 -0.6096
   96SAPE   H5Y 9600   3.898   6.255   5.301 -2.1471 -2.4717 -0.0874
   96SAPE   C36 9601   3.858   6.452   5.197  0.0028 -0.0850  0.1160
   96SAPE   H6X 9602   3.941   6.493   5.258  2.0428 -0.8606 -1.9809
   96SAPE   H6Y 9603   3.774   6.524   5.199 -0.0196 -0.1261  0.9807
   96SAPE   C37 9604   3.914   6.447   5.057 -0.7882  0.2870  0.7673
   96SAPE   H7X 9605   3.828   6.439   4.988  0.2424  0.6676 -0.5996
   96SAPE   H7Y 9606   3.979   6.357   5.051  1.7757  2.0757  0.2907
   96SAPE   C38 9607   3.985   6.570   5.017  0.5444  0.0593 -0.3701
   96SAPE   H8X 9608   4.068   6.601   5.085  0.3462  2.3170 -1.0866
   96SAPE   H8Y 9609   3.915   6.655   5.005  0.4583 -0.3042 -3.2561
   96SAPE   C39 9610   4.064   6.566   4.884 -0.1560  0.3657 -0.3936
   96SAPE   H9X 9611   4.149   6.496   4.897 -0.6677 -0.3577 -0.8853
   96SAPE   H9Y 9612   4.106   6.668   4.867  1.0651 -0.2445 -1.1715
   96SAPE  C310 9613   3.967   6.534   4.770 -0.1901 -0.4030 -0.6031
   96SAPE  H10X 9614   3.889   6.613   4.778  0.3032 -0.0723  1.8147
   96SAPE  H10Y 9615   3.920   6.434   4.785 -2.5765  0.6627 -0.5120
   96SAPE  C311 9616   4.025   6.550   4.630  0.3348  0.7987  0.5548
   96SAPE  H11X 9617   4.116   6.487   4.615  0.1008  0.5519  0.1438
   96SAPE  H11Y 9618   4.051   6.658   4.632  0.1069  0.8479  0.8035
   96SAPE  C312 9619   3.914   6.532   4.521 -0.8872 -0.0386 -0.5529
   96SAPE  H12X 9620   3.834   6.606   4.543 -1.2029 -0.5156 -0.0732
   96SAPE  H12Y 9621   3.877   6.428   4.538 -2.5378  0.7057  0.6932
   96SAPE  C313 9622   3.956   6.536   4.373 -0.1944 -0.6414 -0.2560
   96SAPE  H13X 9623   3.994   6.637   4.347  0.3955 -1.2684 -1.9958
   96SAPE  H13Y 9624   3.859   6.530   4.318 -1.0501  0.2037  1.1146
   96SAPE  C314 9625   4.049   6.421   4.339 -0.2024  0.1187 -0.4325
   96SAPE  H14X 9626   4.001   6.322   4.354 -0.3937  0.2265 -0.3283
   96SAPE  H14Y 9627   4.136   6.417   4.408 -1.6715 -1.2816  1.4627
   96SAPE  C315 9628   4.108   6.432   4.203  0.3320  0.0522 -0.4331
   96SAPE  H15X 9629   4.171   6.340   4.201 -1.0138 -0.9775  1.2248
   96SAPE  H15Y 9630   4.167   6.525   4.193  3.3546 -1.7956 -1.2218
   96SAPE  C316 9631   4.010   6.428   4.087  0.3786 -0.6206  0.5306
   96SAPE  H16X 9632   3.960   6.527   4.081  0.9526 -0.3032  0.9318
   96SAPE  H16Y 9633   3.921   6.362   4.099  1.0315 -1.4287  1.0220
   96SAPE  C317 9634   4.070   6.388   3.950  0.0780  0.0584  0.0378
   96SAPE  H17X 9635   3.990   6.413   3.877 -2.9673 -0.4268  2.9984
   96SAPE  H17Y 9636   4.092   6.280   3.937 -0.2363 -0.3061  2.2278
   96SAPE  C318 9637   4.195   6.473   3.910  0.3490 -0.0182  0.3724
   96SAPE  H18X 9638   4.203   6.473   3.799 -3.3769 -1.6893 -0.0470
   96SAPE  H18Y 9639   4.281   6.439   3.972  0.2552 -2.4776 -0.7383
   96SAPE  H18Z 9640   4.176   6.579   3.937  2.4748  0.4322  0.3207
   97SAPE     N 9641   6.042   2.247   6.233  0.1108 -0.2747 -0.1716
   97SAPE   HN1 9642   6.083   2.152   6.237 -3.6105 -2.2107 -2.1661
   97SAPE   HN2 9643   5.941   2.236   6.258  0.3062  1.9535  1.9994
   97SAPE   HN3 9644   6.044   2.264   6.130  1.7670  1.6992  0.1291
   97SAPE   C12 9645   6.126   2.346   6.312  0.4208 -0.2934  0.0608
   97SAPE  H12A 9646   6.141   2.307   6.415  2.5904  0.6615  0.1643
   97SAPE  H12B 9647   6.063   2.437   6.321 -2.6263 -2.3885  1.5269
   97SAPE   C11 9648   6.262   2.370   6.239 -0.0164 -0.8667 -0.4728
   97SAPE  H11A 9649   6.310   2.270   6.232  2.1063  0.1017 -0.5149
   97SAPE  H11B 9650   6.330   2.435   6.297  0.2825 -1.3078 -0.3194
   97SAPE     P 9651   6.255   2.583   6.088  0.1749  0.4066 -0.2333
   97SAPE   O13 9652   6.122   2.641   6.130 -0.0750 -0.4068  0.0992
   97SAPE   O14 9653   6.388   2.634   6.143  0.1702 -0.2063  0.2002
   97SAPE   O12 9654   6.241   2.418   6.109  0.5034 -0.0256  0.1110
   97SAPE   O11 9655   6.263   2.597   5.931  0.1746  0.0332  0.4722
   97SAPE    C1 9656   6.198   2.490   5.852  0.0772 -0.0508  0.0755
   97SAPE    HA 9657   6.279   2.424   5.814  0.0821  0.8342 -1.5528
   97SAPE    HB 9658   6.116   2.437   5.906 -0.7449 -0.6622 -1.6635
   97SAPE    C2 9659   6.137   2.543   5.717  0.2853  0.2407 -0.4933
   97SAPE    HS 9660   6.094   2.457   5.662 -0.9963  0.3971  0.2187
   97SAPE   O21 9661   6.237   2.620   5.645 -0.2272  0.1319 -0.5002
   97SAPE   C21 9662   6.318   2.543   5.575  0.7256  0.1468  0.4876
   97SAPE   O22 9663   6.322   2.418   5.576 -0.1968  0.2203  0.3488
   97SAPE   C22 9664   6.429   2.631   5.518  0.5498  0.4122  0.3835
   97SAPE   H2R 9665   6.385   2.675   5.426 -2.0930  1.8341  2.2067
   97SAPE   H2S 9666   6.438   2.716   5.589 -1.8714  1.4267 -0.4127
   97SAPE    C3 9667   6.021   2.639   5.747  0.7156  0.2128  0.3691
   97SAPE    HX 9668   6.060   2.733   5.793  0.2161  1.4540 -1.6407
   97SAPE    HY 9669   5.958   2.606   5.833  0.3491  1.8834  0.7727
   97SAPE   O31 9670   5.940   2.664   5.633 -0.1049  0.5249 -0.5431
   97SAPE   C31 9671   5.968   2.755   5.551  0.0020  1.2533 -0.8934
   97SAPE   O32 9672   6.062   2.832   5.549 -0.3430 -0.1879 -0.0511
   97SAPE   C32 9673   5.870   2.744   5.439 -1.2998  0.7867  0.9551
   97SAPE   H2X 9674   5.807   2.836   5.446 -1.2523  0.8218  0.9233
   97SAPE   H2Y 9675   5.806   2.654   5.445 -0.8940  0.5547  1.8449
   97SAPE   C23 9676   6.560   2.563   5.496 -0.3086  0.5431  0.3306
   97SAPE   H3R 9677   6.551   2.457   5.464  2.2987 -0.1864  1.7486
   97SAPE   H3S 9678   6.614   2.561   5.593  0.9625  0.3441 -0.3605
   97SAPE   C24 9679   6.649   2.646   5.394 -0.0927  0.1318 -0.1265
   97SAPE   H4R 9680   6.598   2.640   5.295  1.7476 -3.8440 -1.0401
   97SAPE   H4S 9681   6.748   2.597   5.382 -0.3287 -0.1249 -1.1155
   97SAPE   C25 9682   6.661   2.781   5.452 -0.3015  0.3369 -0.0402
   97SAPE   H5R 9683   6.721   2.792   5.544  0.4795  0.2204 -0.5293
   97SAPE   C26 9684   6.611   2.898   5.400 -0.0806 -0.1725  0.0955
   97SAPE   H6R 9685   6.623   2.988   5.461 -1.9952 -0.2430  0.6470
   97SAPE   C27 9686   6.523   2.904   5.273 -0.7965 -0.4448  0.4468
   97SAPE   H7R 9687   6.507   2.811   5.213  3.2334 -1.1775  0.1918
   97SAPE   H7S 9688   6.569   2.962   5.190 -1.3010  0.6194  0.9052
   97SAPE   C28 9689   6.390   2.959   5.314  0.1274 -0.6194 -0.1445
   97SAPE   H8R 9690   6.342   2.902   5.395 -1.2788 -1.2076 -1.3454
   97SAPE   C29 9691   6.326   3.065   5.261  0.2013  0.2066 -0.1286
   97SAPE   H9R 9692   6.226   3.101   5.291 -1.2149 -1.6708 -2.2633
   97SAPE  C210 9693   6.385   3.149   5.146 -0.0026 -0.2638 -0.5159
   97SAPE  H10R 9694   6.385   3.093   5.050  1.2268  1.4248 -1.5769
   97SAPE  H10S 9695   6.490   3.176   5.169 -0.7282  2.8956 -0.3658
   97SAPE  C211 9696   6.322   3.286   5.123  0.5337  0.4509 -0.1979
   97SAPE  H11R 9697   6.275   3.329   5.213  1.1669 -2.5622  1.7190
   97SAPE  C212 9698   6.312   3.352   5.006  0.2685  1.0732 -0.4322
   97SAPE  H12R 9699   6.268   3.453   5.008 -0.8882  0.5877 -0.2551
   97SAPE  C213 9700   6.364   3.309   4.874 -0.4304  0.0294 -0.3727
   97SAPE  H13R 9701   6.459   3.254   4.890 -0.8975 -0.8569 -0.5394
   97SAPE  H13S 9702   6.395   3.403   4.823  0.7010  0.1518  0.4956
   97SAPE  C214 9703   6.257   3.242   4.800 -0.5173  0.4391  0.0268
   97SAPE  H14R 9704   6.190   3.180   4.861  0.9287 -3.0949 -1.6983
   97SAPE  C215 9705   6.226   3.263   4.670 -0.7057  0.6994 -0.1034
   97SAPE  H15R 9706   6.145   3.200   4.630 -1.0502  0.0990  1.4762
   97SAPE  C216 9707   6.300   3.348   4.571 -0.8225 -0.0442 -0.0318
   97SAPE  H16R 9708   6.403   3.366   4.609 -0.5998  0.6382 -0.9286
   97SAPE  H16S 9709   6.247   3.446   4.559  0.1943  0.1900 -4.2670
   97SAPE  C217 9710   6.313   3.294   4.430  0.0366 -0.0708  0.9350
   97SAPE  H17R 9711   6.355   3.370   4.360 -1.3108  0.5953  0.8139
   97SAPE  H17S 9712   6.217   3.263   4.385  0.2790  0.8049 -0.2366
   97SAPE  C218 9713   6.409   3.169   4.434 -0.2906 -0.1746 -0.4337
   97SAPE  H18R 9714   6.353   3.086   4.482  0.5731 -0.1394  0.6810
   97SAPE  H18S 9715   6.492   3.198   4.502 -0.8342 -0.3651  0.3297
   97SAPE  C219 9716   6.467   3.125   4.302  0.0220 -0.7430  0.0877
   97SAPE  H19R 9717   6.520   3.028   4.311  1.1617 -0.1276  0.1449
   97SAPE  H19S 9718   6.532   3.199   4.251  0.2140 -0.4666  0.7186
   97SAPE  C220 9719   6.350   3.089   4.200  0.3472  0.1700 -0.7618
   97SAPE  H20R 9720   6.283   3.015   4.249 -0.8880  0.0266 -2.5951
   97SAPE  H20S 9721   6.386   3.037   4.109  2.0154  0.2499 -0.1853
   97SAPE  H20T 9722   6.280   3.168   4.169 -0.1594  0.1043  0.1623
   97SAPE   C33 9723   5.949   2.741   5.300 -0.6186  0.0019  0.0262
   97SAPE   H3X 9724   5.996   2.841   5.286  1.3149 -1.1106 -2.0366
   97SAPE   H3Y 9725   5.877   2.728   5.217  1.8180 -2.2119 -1.9440
   97SAPE   C34 9726   6.043   2.623   5.277 -0.0092  0.1789  0.5236
   97SAPE   H4X 9727   5.992   2.528   5.304  0.2809 -0.2468 -0.3687
   97SAPE   H4Y 9728   6.131   2.645   5.341 -1.4088  2.2324  1.8643
   97SAPE   C35 9729   6.082   2.619   5.124  0.0302 -0.2882 -0.2718
   97SAPE   H5X 9730   5.984   2.610   5.073  0.5535 -0.2720 -1.3087
   97SAPE   H5Y 9731   6.152   2.534   5.107 -0.8209 -1.1079  0.2330
   97SAPE   C36 9732   6.153   2.744   5.067  0.2621 -0.0864 -0.2887
   97SAPE   H6X 9733   6.247   2.770   5.119  0.6903  0.0104 -1.0957
   97SAPE   H6Y 9734   6.082   2.829   5.072  0.2979 -0.1174  1.4340
   97SAPE   C37 9735   6.180   2.733   4.916 -0.4634  0.0620  0.2593
   97SAPE   H7X 9736   6.091   2.753   4.852 -0.9279  1.2719  1.2530
   97SAPE   H7Y 9737   6.225   2.635   4.889  3.6808  1.6101  0.8650
   97SAPE   C38 9738   6.269   2.853   4.878 -0.0175 -0.0673 -0.1335
   97SAPE   H8X 9739   6.361   2.857   4.939  0.0167 -0.4448 -0.1628
   97SAPE   H8Y 9740   6.212   2.940   4.918  0.0374 -0.1643  0.1586
   97SAPE   C39 9741   6.290   2.863   4.726 -0.1039 -0.1137 -0.5734
   97SAPE   H9X 9742   6.336   2.963   4.716 -0.3302  0.0070 -0.4066
   97SAPE   H9Y 9743   6.195   2.873   4.669 -0.5443  2.6382  0.5001
   97SAPE  C310 9744   6.382   2.749   4.680 -0.0343 -0.6765  0.1637
   97SAPE  H10X 9745   6.325   2.654   4.670  1.1474 -1.2843 -1.3457
   97SAPE  H10Y 9746   6.459   2.738   4.759 -0.0385 -2.0167  0.0110
   97SAPE  C311 9747   6.432   2.795   4.540 -0.0480  0.4739 -0.5800
   97SAPE  H11X 9748   6.536   2.758   4.536  0.1196  0.8958 -0.1760
   97SAPE  H11Y 9749   6.442   2.906   4.540 -1.7109  0.6538 -0.2879
   97SAPE  C312 9750   6.330   2.773   4.428 -0.4101  0.6022 -0.1123
   97SAPE  H12X 9751   6.359   2.823   4.333  2.7784 -1.0704 -0.1709
   97SAPE  H12Y 9752   6.239   2.827   4.461  0.2593 -0.0580  3.1302
   97SAPE  C313 9753   6.293   2.626   4.399 -0.3501 -0.3050  0.0652
   97SAPE  H13X 9754   6.218   2.625   4.317  0.3903 -0.9637 -0.6383
   97SAPE  H13Y 9755   6.239   2.583   4.485  1.4257  2.0852  2.5638
   97SAPE  C314 9756   6.399   2.538   4.329  0.1670 -1.1032 -0.2423
   97SAPE  H14X 9757   6.349   2.440   4.311  0.3336 -0.9864 -1.4411
   97SAPE  H14Y 9758   6.480   2.514   4.402 -1.7413  0.3289  2.4821
   97SAPE  C315 9759   6.449   2.600   4.196  0.5364  0.4551 -0.0747
   97SAPE  H15X 9760   6.520   2.683   4.213  1.2568 -0.1024 -0.3321
   97SAPE  H15Y 9761   6.362   2.628   4.133  2.3254 -1.0855 -3.4975
   97SAPE  C316 9762   6.540   2.504   4.110 -0.7488 -0.0131 -0.7297
   97SAPE  H16X 9763   6.630   2.461   4.159 -0.5380 -2.4921 -3.0244
   97SAPE  H16Y 9764   6.587   2.572   4.036  0.7985 -0.6346 -0.3688
   97SAPE  C317 9765   6.478   2.377   4.034 -0.2745 -0.0830 -0.3761
   97SAPE  H17X 9766   6.422   2.318   4.109 -1.3472  2.8262  1.2563
   97SAPE  H17Y 9767   6.564   2.317   3.996  0.1384 -0.9009  1.7331
   97SAPE  C318 9768   6.367   2.412   3.933 -0.1799 -0.1052  0.3075
   97SAPE  H18X 9769   6.406   2.484   3.857 -2.4203  0.9212  0.0307
   97SAPE  H18Y 9770   6.283   2.458   3.989  1.0541  0.5994  1.6415
   97SAPE  H18Z 9771   6.343   2.318   3.878  2.6603  0.0814 -1.4306
   98SAPE     N 9772   4.969   1.560   6.213 -0.3283 -0.6545  0.3618
   98SAPE   HN1 9773   5.003   1.533   6.308  2.9328  0.0158 -0.5028
   98SAPE   HN2 9774   5.057   1.579   6.161 -0.6114  1.1537  0.4878
   98SAPE   HN3 9775   4.903   1.640   6.207 -1.6500 -1.6918  0.4919
   98SAPE   C12 9776   4.890   1.447   6.158  0.0021  0.0127 -0.1984
   98SAPE  H12A 9777   4.793   1.437   6.211  0.3498 -0.7252  0.3014
   98SAPE  H12B 9778   4.946   1.355   6.183 -3.4291 -2.1162  0.3563
   98SAPE   C11 9779   4.855   1.452   6.011  0.2479 -0.1365  0.5389
   98SAPE  H11A 9780   4.814   1.356   5.971  1.3967  0.4879 -2.3296
   98SAPE  H11B 9781   4.940   1.474   5.943 -0.7580 -1.1993 -1.1566
   98SAPE     P 9782   4.783   1.703   5.942  0.0442  0.2859  0.0238
   98SAPE   O13 9783   4.654   1.771   5.922  0.2137 -1.3288  0.3293
   98SAPE   O14 9784   4.879   1.767   6.028 -0.0493  0.7712 -0.2908
   98SAPE   O12 9785   4.753   1.560   6.005 -0.3074 -0.1576  0.1558
   98SAPE   O11 9786   4.839   1.659   5.799 -0.5993  0.1103 -0.7856
   98SAPE    C1 9787   4.762   1.578   5.708  0.3180  0.1516  0.0975
   98SAPE    HA 9788   4.690   1.500   5.740 -0.6950 -0.2749 -2.8895
   98SAPE    HB 9789   4.699   1.649   5.651  0.3544  0.7767  0.8192
   98SAPE    C2 9790   4.840   1.514   5.583 -0.1390 -0.3538 -0.3851
   98SAPE    HS 9791   4.760   1.468   5.521 -0.9007  1.2897 -0.6862
   98SAPE   O21 9792   4.937   1.426   5.629 -0.3900  0.6034 -0.4441
   98SAPE   C21 9793   4.906   1.310   5.677 -0.0898  0.1791  0.8221
   98SAPE   O22 9794   4.795   1.256   5.682 -0.3901  0.1978  0.4780
   98SAPE   C22 9795   5.025   1.230   5.720 -0.3892  0.2952  0.6177
   98SAPE   H2R 9796   5.061   1.294   5.803  3.7678 -1.7101  0.6219
   98SAPE   H2S 9797   4.994   1.137   5.772  2.1266  0.2599  2.1830
   98SAPE    C3 9798   4.914   1.621   5.489  0.1597  0.6799 -0.0502
   98SAPE    HX 9799   4.994   1.684   5.534 -1.0126 -0.5849  4.2301
   98SAPE    HY 9800   4.844   1.701   5.455  1.2113  1.5775 -0.1605
   98SAPE   O31 9801   4.943   1.542   5.371 -0.1956 -0.2649  0.2764
   98SAPE   C31 9802   5.078   1.519   5.349  0.3565  0.7986 -0.1334
   98SAPE   O32 9803   5.166   1.566   5.420  0.6400 -0.1241  0.5575
   98SAPE   C32 9804   5.096   1.420   5.233 -0.0969 -0.6679  0.1426
   98SAPE   H2X 9805   5.006   1.384   5.179 -0.5271 -1.8412  1.5760
   98SAPE   H2Y 9806   5.148   1.330   5.271  0.1610 -0.6783 -0.2284
   98SAPE   C23 9807   5.125   1.211   5.607 -0.6895 -0.3050  0.3387
   98SAPE   H3R 9808   5.223   1.191   5.654  0.1534  0.8393 -0.8506
   98SAPE   H3S 9809   5.138   1.302   5.544 -1.1360 -0.4183  0.0756
   98SAPE   C24 9810   5.097   1.088   5.518 -0.5760  0.1755  0.4940
   98SAPE   H4R 9811   5.116   1.003   5.586  0.6140 -0.9869 -1.2237
   98SAPE   H4S 9812   5.170   1.075   5.435 -1.2925 -0.4133 -0.0581
   98SAPE   C25 9813   4.961   1.070   5.458 -0.2650 -0.1136 -0.1207
   98SAPE   H5R 9814   4.878   1.052   5.527 -0.4893 -0.2182 -0.4150
   98SAPE   C26 9815   4.925   1.047   5.330 -1.0304 -0.1279 -0.4329
   98SAPE   H6R 9816   4.816   1.046   5.315 -1.2180  1.8184  0.4328
   98SAPE   C27 9817   5.018   1.063   5.211 -1.5312 -0.6699  1.1912
   98SAPE   H7R 9818   5.114   1.112   5.235 -2.8834  3.0113 -0.1905
   98SAPE   H7S 9819   4.973   1.131   5.135  2.2079  0.0953 -0.5375
   98SAPE   C28 9820   5.044   0.934   5.150  0.3245  0.2075 -0.0973
   98SAPE   H8R 9821   5.049   0.850   5.222 -0.7130  0.0773 -0.1602
   98SAPE   C29 9822   5.083   0.906   5.025 -0.3962 -0.5102  0.6334
   98SAPE   H9R 9823   5.092   0.802   4.989 -1.0905 -0.7218  1.0554
   98SAPE  C210 9824   5.086   1.017   4.920  0.5296 -0.1069  0.9208
   98SAPE  H10R 9825   5.151   1.096   4.963  1.4123 -1.1337  1.5267
   98SAPE  H10S 9826   4.985   1.064   4.912  1.0375  1.1907  1.7189
   98SAPE  C211 9827   5.137   0.971   4.789 -0.2384  0.1932  0.5152
   98SAPE  H11R 9828   5.243   0.996   4.771 -0.1634  0.0639  0.7724
   98SAPE  C212 9829   5.077   0.896   4.690  0.1341 -0.4678 -0.6045
   98SAPE  H12R 9830   5.126   0.877   4.593 -0.0341  0.0696 -0.7959
   98SAPE  C213 9831   4.936   0.847   4.687  0.2085 -0.6155  0.4360
   98SAPE  H13R 9832   4.904   0.808   4.786 -4.1988  2.1809  0.3937
   98SAPE  H13S 9833   4.919   0.765   4.614 -0.8693  0.0626 -0.1001
   98SAPE  C214 9834   4.847   0.971   4.660  0.6662  0.6177  0.5743
   98SAPE  H14R 9835   4.881   1.044   4.584 -0.9568 -0.1973 -1.0236
   98SAPE  C215 9836   4.723   0.977   4.701 -0.7089 -0.0808  0.1679
   98SAPE  H15R 9837   4.675   1.076   4.698 -2.6903 -0.9684 -3.2781
   98SAPE  C216 9838   4.646   0.876   4.779 -1.0113  0.9414 -0.0065
   98SAPE  H16R 9839   4.698   0.778   4.772  1.6979  2.2921 -0.1507
   98SAPE  H16S 9840   4.544   0.861   4.740 -0.2289 -0.5029 -1.6398
   98SAPE  C217 9841   4.634   0.919   4.925  0.0389  0.3994  0.4611
   98SAPE  H17R 9842   4.596   1.024   4.930 -0.6876  0.1126  1.2687
   98SAPE  H17S 9843   4.736   0.908   4.968  0.2239  0.1550 -0.0402
   98SAPE  C218 9844   4.543   0.816   5.002  0.1637 -0.5441  0.4944
   98SAPE  H18R 9845   4.600   0.722   5.018 -2.0812 -1.8957  0.9633
   98SAPE  H18S 9846   4.448   0.781   4.958 -0.9485  0.7803  1.7174
   98SAPE  C219 9847   4.508   0.859   5.148 -0.1361  0.4483 -0.3921
   98SAPE  H19R 9848   4.426   0.794   5.187  0.9614 -1.6329 -1.4058
   98SAPE  H19S 9849   4.462   0.960   5.145 -1.8016 -0.2934 -2.0516
   98SAPE  C220 9850   4.628   0.836   5.238 -0.1733 -0.0242 -0.2050
   98SAPE  H20R 9851   4.640   0.730   5.268 -0.0780 -0.4779 -1.7561
   98SAPE  H20S 9852   4.635   0.901   5.327  0.2658 -0.3654  0.0122
   98SAPE  H20T 9853   4.726   0.852   5.188 -0.4102 -0.7510 -0.9262
   98SAPE   C33 9854   5.189   1.484   5.125  0.4920  0.4016 -0.5209
   98SAPE   H3X 9855   5.283   1.525   5.169 -1.0485  2.1814  1.3403
   98SAPE   H3Y 9856   5.141   1.573   5.078 -0.7547  1.2162  2.0876
   98SAPE   C34 9857   5.241   1.377   5.031  0.4707  0.3134 -0.7209
   98SAPE   H4X 9858   5.173   1.307   4.977  0.6985 -1.6145  1.3525
   98SAPE   H4Y 9859   5.307   1.314   5.094 -0.8771 -0.9568 -0.5153
   98SAPE   C35 9860   5.320   1.448   4.916  0.0795 -0.0660 -0.3264
   98SAPE   H5X 9861   5.405   1.504   4.962  0.2627 -0.0805 -0.6420
   98SAPE   H5Y 9862   5.253   1.530   4.883 -0.5217 -0.0762  0.8371
   98SAPE   C36 9863   5.375   1.367   4.801  0.1039 -0.3290  0.0054
   98SAPE   H6X 9864   5.429   1.279   4.841 -2.2457 -1.0553  1.7882
   98SAPE   H6Y 9865   5.439   1.439   4.744 -0.5859  1.0613  0.9159
   98SAPE   C37 9866   5.268   1.317   4.703  0.7987  0.4742 -0.0832
   98SAPE   H7X 9867   5.205   1.399   4.663 -1.7132 -1.6098 -0.5955
   98SAPE   H7Y 9868   5.201   1.249   4.759 -0.2909 -0.5849 -2.5549
   98SAPE   C38 9869   5.337   1.243   4.583  0.5010  0.5799 -0.8531
   98SAPE   H8X 9870   5.387   1.151   4.621 -0.3045 -0.8214 -3.0112
   98SAPE   H8Y 9871   5.421   1.300   4.537  1.3174  0.9230  0.9866
   98SAPE   C39 9872   5.229   1.197   4.480 -0.6989  0.1118  0.4858
   98SAPE   H9X 9873   5.186   1.282   4.423  3.3668  0.9548 -1.7070
   98SAPE   H9Y 9874   5.152   1.145   4.541 -0.0562  0.0881  1.2767
   98SAPE  C310 9875   5.274   1.103   4.366 -0.1606  0.4258 -0.6864
   98SAPE  H10X 9876   5.200   1.024   4.341  0.0677  0.0083 -0.0607
   98SAPE  H10Y 9877   5.360   1.050   4.412  0.1364  0.2930 -1.3880
   98SAPE  C311 9878   5.304   1.171   4.228 -0.0958  0.1169  0.1749
   98SAPE  H11X 9879   5.372   1.257   4.250  1.6394 -0.9009 -0.9518
   98SAPE  H11Y 9880   5.218   1.215   4.174 -0.4677 -1.4395 -0.5415
   98SAPE  C312 9881   5.367   1.062   4.131  0.4914  0.0640 -0.1311
   98SAPE  H12X 9882   5.294   0.979   4.117  0.5082 -0.0092  0.2081
   98SAPE  H12Y 9883   5.453   1.020   4.187  0.0397 -2.2238 -1.0366
   98SAPE  C313 9884   5.419   1.128   4.001 -0.4010  0.9298  0.2174
   98SAPE  H13X 9885   5.528   1.151   3.997  0.3485 -2.1884 -0.5331
   98SAPE  H13Y 9886   5.356   1.212   3.965 -0.0608  0.5502 -1.3545
   98SAPE  C314 9887   5.397   1.021   3.886 -0.0979 -0.3057  0.8266
   98SAPE  H14X 9888   5.303   0.962   3.899 -0.0096 -0.7741 -0.5302
   98SAPE  H14Y 9889   5.478   0.947   3.900 -1.2733 -1.9672 -0.7543
   98SAPE  C315 9890   5.418   1.087   3.747 -0.0369 -0.9162 -0.6631
   98SAPE  H15X 9891   5.513   1.140   3.768 -1.0963 -0.0123  2.3941
   98SAPE  H15Y 9892   5.338   1.162   3.731 -2.6327 -2.5160  3.2834
   98SAPE  C316 9893   5.428   0.993   3.632 -0.4034  0.2339  0.1071
   98SAPE  H16X 9894   5.518   0.930   3.649 -0.6069  0.3526  1.6993
   98SAPE  H16Y 9895   5.435   1.056   3.541 -0.0872  0.6454  0.4152
   98SAPE  C317 9896   5.306   0.899   3.618 -0.2528 -0.4217 -0.0004
   98SAPE  H17X 9897   5.297   0.842   3.712  0.1414  2.6113  2.0046
   98SAPE  H17Y 9898   5.324   0.813   3.550  1.7553 -0.5477  0.6401
   98SAPE  C318 9899   5.187   0.981   3.583 -0.6197  0.4278 -0.3518
   98SAPE  H18X 9900   5.180   1.029   3.483  1.0693 -1.5156 -1.4986
   98SAPE  H18Y 9901   5.172   1.062   3.657  0.3990 -1.1642  1.7248
   98SAPE  H18Z 9902   5.093   0.923   3.594 -0.3734 -0.0298 -0.6504
   99SAPE     N 9903   5.198   0.143   6.120 -0.7540 -0.3370 -0.0487
   99SAPE   HN1 9904   5.166   0.173   6.215  0.5353 -2.3382  1.0832
   99SAPE   HN2 9905   5.263   0.064   6.138  1.2682  1.0859 -0.8438
   99SAPE   HN3 9906   5.252   0.222   6.081 -1.3673 -0.3881 -1.0369
   99SAPE   C12 9907   5.093   0.103   6.022 -0.1426 -0.0986 -0.2808
   99SAPE  H12A 9908   5.055   0.186   5.959 -0.4101 -0.9205 -1.2359
   99SAPE  H12B 9909   5.004   0.054   6.067 -1.2095  2.0900  0.1070
   99SAPE   C11 9910   5.157  -0.005   5.923  0.5867  0.4884  0.0654
   99SAPE  H11A 9911   5.267   0.008   5.915  0.7696 -0.9573 -0.0184
   99SAPE  H11B 9912   5.107   0.011   5.826 -0.8410  0.2786  0.7358
   99SAPE     P 9913   5.189  -0.202   6.113 -0.1917 -0.2035  0.0254
   99SAPE   O13 9914   5.328  -0.151   6.136  0.1377  0.3211  0.3029
   99SAPE   O14 9915   5.101  -0.188   6.228  0.6593  0.0200  0.3063
   99SAPE   O12 9916   5.121  -0.131   5.982  0.3244  1.1458 -0.1250
   99SAPE   O11 9917   5.193  -0.356   6.071 -0.8321  0.0373 -0.2601
   99SAPE    C1 9918   5.116  -0.402   5.964 -0.2486  0.9628  0.4419
   99SAPE    HA 9919   5.019  -0.349   5.968 -1.2593 -0.8237  0.9604
   99SAPE    HB 9920   5.175  -0.381   5.872 -1.8642 -1.8331 -1.3936
   99SAPE    C2 9921   5.098  -0.556   5.974 -0.3421  0.1670 -0.5256
   99SAPE    HS 9922   5.203  -0.587   5.994 -0.6211  0.8132  2.3565
   99SAPE   O21 9923   5.057  -0.608   5.847  0.0066 -0.3452 -0.6940
   99SAPE   C21 9924   5.075  -0.733   5.830 -0.3451  0.0244  0.2013
   99SAPE   O22 9925   5.113  -0.813   5.911 -0.1845  0.0207  0.0923
   99SAPE   C22 9926   5.053  -0.769   5.687  0.4406 -0.3487 -0.4477
   99SAPE   H2R 9927   4.965  -0.710   5.656  1.2341  1.1344  0.0288
   99SAPE   H2S 9928   5.140  -0.723   5.635  1.5282  1.8709  3.0343
   99SAPE    C3 9929   5.000  -0.604   6.091  0.3406 -0.0261  0.2487
   99SAPE    HX 9930   5.023  -0.558   6.189 -2.1218 -0.9935  1.3612
   99SAPE    HY 9931   5.007  -0.714   6.107 -2.5094 -0.5402 -1.3145
   99SAPE   O31 9932   4.869  -0.558   6.053  0.1148  0.3383  0.1064
   99SAPE   C31 9933   4.776  -0.655   6.038  0.2693  0.4612  0.5891
   99SAPE   O32 9934   4.788  -0.772   6.071  0.3274 -0.3185 -0.2504
   99SAPE   C32 9935   4.656  -0.592   5.958  0.6078  0.1503 -0.5338
   99SAPE   H2X 9936   4.696  -0.509   5.895  2.3131  1.9624  2.6351
   99SAPE   H2Y 9937   4.600  -0.536   6.037 -1.3204  0.9875 -2.3765
   99SAPE   C23 9938   5.027  -0.916   5.661  0.6300 -0.5058  0.2279
   99SAPE   H3R 9939   4.939  -0.966   5.708  2.1692 -1.8288  1.8504
   99SAPE   H3S 9940   5.116  -0.980   5.679  2.9489  1.9124 -1.7728
   99SAPE   C24 9941   5.019  -0.949   5.510  0.5093 -0.6229  0.2937
   99SAPE   H4R 9942   4.933  -0.891   5.469  1.1273 -0.6604 -1.0907
   99SAPE   H4S 9943   4.979  -1.052   5.503 -2.1341  0.2939  0.5787
   99SAPE   C25 9944   5.142  -0.922   5.425  0.4783 -0.3644  0.1694
   99SAPE   H5R 9945   5.206  -0.840   5.463  0.0179  0.2433 -0.3370
   99SAPE   C26 9946   5.184  -0.980   5.310  0.5439  0.8578 -0.0844
   99SAPE   H6R 9947   5.267  -0.940   5.250  0.2753  2.0913  0.3246
   99SAPE   C27 9948   5.110  -1.091   5.238  0.5435 -0.1431 -0.7572
   99SAPE   H7R 9949   5.141  -1.103   5.132  1.2107 -0.5197 -0.5307
   99SAPE   H7S 9950   5.008  -1.051   5.224 -0.0304 -0.3368  2.1852
   99SAPE   C28 9951   5.108  -1.235   5.291 -0.0267 -0.0327  0.1534
   99SAPE   H8R 9952   5.056  -1.240   5.388 -1.1849 -0.1922 -0.4572
   99SAPE   C29 9953   5.122  -1.350   5.223 -0.2464  0.5996 -0.0160
   99SAPE   H9R 9954   5.106  -1.446   5.274  0.7874  1.1865  1.4912
   99SAPE  C210 9955   5.165  -1.364   5.076  0.8027 -0.3513 -0.1197
   99SAPE  H10R 9956   5.241  -1.287   5.052  0.7020  0.2344  1.3339
   99SAPE  H10S 9957   5.073  -1.353   5.015  1.4559  1.0621 -0.9039
   99SAPE  C211 9958   5.229  -1.497   5.054  0.4608  0.4899  0.0268
   99SAPE  H11R 9959   5.323  -1.508   5.111 -0.2029 -1.0249  0.8926
   99SAPE  C212 9960   5.188  -1.589   4.958  0.3962 -0.1896  0.8520
   99SAPE  H12R 9961   5.258  -1.673   4.941  1.7034  0.9335  0.4840
   99SAPE  C213 9962   5.075  -1.584   4.862 -0.6444  0.0815  0.1443
   99SAPE  H13R 9963   5.119  -1.565   4.762  0.9855  1.8131  1.1258
   99SAPE  H13S 9964   5.004  -1.500   4.878 -0.0327 -0.0355  4.8574
   99SAPE  C214 9965   5.001  -1.713   4.860  0.1731 -0.1024 -0.1187
   99SAPE  H14R 9966   4.937  -1.728   4.948 -0.2012 -0.1205 -0.3923
   99SAPE  C215 9967   5.011  -1.802   4.764 -0.5138  1.3469  0.4247
   99SAPE  H15R 9968   4.962  -1.901   4.770  1.1372  0.4721  0.1529
   99SAPE  C216 9969   5.078  -1.790   4.633 -0.7580 -0.0557 -0.3669
   99SAPE  H16R 9970   5.121  -1.885   4.596 -2.3166 -2.2794  2.9591
   99SAPE  H16S 9971   5.171  -1.729   4.639  0.2902 -1.6282 -0.0405
   99SAPE  C217 9972   4.969  -1.747   4.528  0.2246 -0.5963  0.2758
   99SAPE  H17R 9973   4.941  -1.641   4.543 -0.9546 -0.9384  0.6290
   99SAPE  H17S 9974   4.873  -1.802   4.543  0.4523 -0.8915  0.6679
   99SAPE  C218 9975   5.009  -1.772   4.379  1.1779 -0.0151 -0.4227
   99SAPE  H18R 9976   5.103  -1.720   4.350  1.0334  0.0718 -0.7355
   99SAPE  H18S 9977   4.924  -1.743   4.314  1.4008 -0.7550 -1.0526
   99SAPE  C219 9978   5.054  -1.919   4.344  0.1659 -0.4785 -0.0728
   99SAPE  H19R 9979   4.989  -1.977   4.414 -1.9477  1.3952 -0.3785
   99SAPE  H19S 9980   5.163  -1.930   4.361  0.5637 -0.4395 -2.2592
   99SAPE  C220 9981   5.030  -1.953   4.195 -0.0614 -0.1713 -0.8502
   99SAPE  H20R 9982   4.944  -1.892   4.161  1.1922 -0.0845 -4.2396
   99SAPE  H20S 9983   5.014  -2.063   4.188  0.6385 -0.2107 -1.9719
   99SAPE  H20T 9984   5.115  -1.915   4.134  0.1351  0.2322 -0.3336
   99SAPE   C33 9985   4.585  -0.707   5.891 -0.6601  0.2798 -0.4232
   99SAPE   H3X 9986   4.488  -0.664   5.860  0.1830  0.7234 -2.5799
   99SAPE   H3Y 9987   4.561  -0.790   5.961  0.9337  0.4373  0.3571
   99SAPE   C34 9988   4.661  -0.764   5.772  0.3716  0.2684  0.4231
   99SAPE   H4X 9989   4.596  -0.840   5.723  0.8206  0.9355 -1.2845
   99SAPE   H4Y 9990   4.749  -0.814   5.819 -0.5487 -1.1605  0.7057
   99SAPE   C35 9991   4.706  -0.661   5.658 -0.4181  0.0201  0.1069
   99SAPE   H5X 9992   4.769  -0.716   5.585  0.1183 -2.9812  2.6341
   99SAPE   H5Y 9993   4.754  -0.570   5.699  0.2928  0.0160 -0.6846
   99SAPE   C36 9994   4.588  -0.614   5.572  0.4727  0.0872 -0.6617
   99SAPE   H6X 9995   4.507  -0.581   5.640 -0.5705 -2.2010 -0.7058
   99SAPE   H6Y 9996   4.531  -0.690   5.514 -0.6595  0.3865  0.0160
   99SAPE   C37 9997   4.632  -0.494   5.481  0.5383 -0.6442  0.1173
   99SAPE   H7X 9998   4.694  -0.531   5.397  1.0985 -0.0875  0.2734
   99SAPE   H7Y 9999   4.694  -0.431   5.549  2.4804 -1.9986 -0.3008
   99SAPE   C3810000   4.520  -0.402   5.438  0.0082  0.0404  1.0298
   99SAPE   H8X10001   4.557  -0.298   5.424 -1.7031  0.4632 -0.8280
   99SAPE   H8Y10002   4.443  -0.425   5.515  0.0928 -3.5981  0.1986
   99SAPE   C3910003   4.451  -0.441   5.301 -0.1267  0.3615  0.4220
   99SAPE   H9X10004   4.356  -0.383   5.298  0.8974  2.1684  1.0523
   99SAPE   H9Y10005   4.428  -0.550   5.309  0.9974 -0.0345 -1.3339
   99SAPE  C31010006   4.531  -0.425   5.175  0.2228  0.2641  0.2816
   99SAPE  H10X10007   4.617  -0.495   5.173 -0.4373 -0.5589  0.4342
   99SAPE  H10Y10008   4.572  -0.322   5.175  0.8984  0.0662 -2.3142
   99SAPE  C31110009   4.450  -0.450   5.043  0.2294 -0.4934 -0.1340
   99SAPE  H11X10010   4.372  -0.372   5.025 -0.7927 -1.1170  1.3577
   99SAPE  H11Y10011   4.398  -0.548   5.049  0.6430 -0.6805  0.4148
   99SAPE  C31210012   4.544  -0.449   4.925  1.1173 -0.0953  0.1305
   99SAPE  H12X10013   4.628  -0.520   4.941  1.3417  0.1801  0.1809
   99SAPE  H12Y10014   4.587  -0.347   4.919  1.3549 -0.3008 -2.4532
   99SAPE  C31310015   4.475  -0.484   4.793  0.3453  0.0700 -0.8943
   99SAPE  H13X10016   4.391  -0.411   4.791  0.0021 -0.2201  1.0740
   99SAPE  H13Y10017   4.427  -0.584   4.786 -0.0923  0.2224 -0.1945
   99SAPE  C31410018   4.557  -0.454   4.673 -0.0114 -0.1705  0.1923
   99SAPE  H14X10019   4.639  -0.527   4.688 -0.4049 -0.6108  0.2437
   99SAPE  H14Y10020   4.602  -0.353   4.680  1.9820 -0.9222 -1.0672
   99SAPE  C31510021   4.471  -0.454   4.547  0.4074 -0.4996  0.1680
   99SAPE  H15X10022   4.382  -0.391   4.569  1.1323  1.0386 -1.1277
   99SAPE  H15Y10023   4.431  -0.554   4.518  0.9172 -0.6381 -0.0614
   99SAPE  C31610024   4.543  -0.390   4.427  0.5290  0.3795 -0.1795
   99SAPE  H16X10025   4.624  -0.457   4.391  1.5943  0.7035  1.5286
   99SAPE  H16Y10026   4.604  -0.301   4.452  2.2040 -0.8845  0.3665
   99SAPE  C31710027   4.448  -0.341   4.315  0.3159 -0.4109  0.2041
   99SAPE  H17X10028   4.376  -0.278   4.371 -0.4714  0.2238 -1.4478
   99SAPE  H17Y10029   4.396  -0.431   4.278 -2.3886  0.4934  1.5891
   99SAPE  C31810030   4.522  -0.269   4.199  0.7003 -0.0961  0.5509
   99SAPE  H18X10031   4.557  -0.172   4.239 -2.6299  1.0624  0.9188
   99SAPE  H18Y10032   4.443  -0.246   4.125  0.0717  0.5010  1.3976
   99SAPE  H18Z10033   4.599  -0.341   4.163 -0.7537 -1.7355  0.5501
  100SAPE     N10034   1.260   5.456   5.900 -0.9124  0.2326 -0.1032
  100SAPE   HN110035   1.290   5.416   5.991 -0.9481  0.8731  0.1961
  100SAPE   HN210036   1.187   5.395   5.857  1.0706 -2.2125 -0.2275
  100SAPE   HN310037   1.346   5.463   5.842 -1.8137 -0.3749 -1.5859
  100SAPE   C1210038   1.207   5.594   5.919 -0.4972  0.1028  0.5438
  100SAPE  H12A10039   1.132   5.584   6.001  0.5797 -0.5421  1.4789
  100SAPE  H12B10040   1.163   5.626   5.822  1.3362 -0.1887 -0.4312
  100SAPE   C1110041   1.318   5.695   5.948 -0.3692 -0.2350 -0.2306
  100SAPE  H11A10042   1.361   5.658   6.044 -0.6657 -2.4039 -0.8792
  100SAPE  H11B10043   1.268   5.793   5.961 -2.0749 -0.9019 -1.4183
  100SAPE     P10044   1.390   5.772   5.714 -0.1547 -0.0796 -0.3383
  100SAPE   O1310045   1.500   5.848   5.661  0.2211 -0.2847 -0.0796
  100SAPE   O1410046   1.330   5.673   5.623  0.0543  0.0531  0.7215
  100SAPE   O1210047   1.422   5.701   5.847  0.3257  0.4025  0.2873
  100SAPE   O1110048   1.273   5.869   5.754  0.1876  0.5219 -0.2629
  100SAPE    C110049   1.306   6.009   5.767 -0.1189 -0.2794  0.3354
  100SAPE    HA10050   1.372   6.037   5.852 -0.3293  2.0667 -0.1815
  100SAPE    HB10051   1.358   6.044   5.675 -2.1153  0.7626 -0.4501
  100SAPE    C210052   1.179   6.101   5.777 -0.3354  0.4609  0.2613
  100SAPE    HS10053   1.131   6.077   5.874  0.0966  2.5270  1.0303
  100SAPE   O2110054   1.106   6.078   5.655  0.1337  0.0528  0.3174
  100SAPE   C2110055   0.981   6.122   5.665 -0.0337  0.3966 -0.6182
  100SAPE   O2210056   0.932   6.183   5.762 -0.5127 -0.2700 -0.2605
  100SAPE   C2210057   0.909   6.088   5.538 -0.0687 -0.1671 -0.3042
  100SAPE   H2R10058   0.916   5.979   5.521  1.8142 -0.1174  0.0042
  100SAPE   H2S10059   0.803   6.120   5.552  0.6626  2.4910 -0.3103
  100SAPE    C310060   1.224   6.251   5.789 -0.1851  0.2673 -0.2393
  100SAPE    HX10061   1.277   6.276   5.884 -2.6434 -0.0682  1.3002
  100SAPE    HY10062   1.136   6.318   5.789  0.5793  1.3133 -1.2706
  100SAPE   O3110063   1.313   6.289   5.679  0.0739  0.2455 -0.0441
  100SAPE   C3110064   1.243   6.334   5.568 -0.3136 -0.1131 -0.5880
  100SAPE   O3210065   1.132   6.378   5.577  0.2210  0.3842 -0.4114
  100SAPE   C3210066   1.323   6.281   5.445  0.9651  0.0113 -0.6619
  100SAPE   H2X10067   1.281   6.180   5.427  0.2311  0.4216 -1.2840
  100SAPE   H2Y10068   1.432   6.271   5.466  0.4573 -1.5573  1.5889
  100SAPE   C2310069   0.972   6.147   5.409 -0.0870  0.1575 -0.1712
  100SAPE   H3R10070   1.079   6.119   5.400  0.0108  0.6374 -0.5059
  100SAPE   H3S10071   0.981   6.257   5.416 -0.2595  0.1355  0.4131
  100SAPE   C2410072   0.894   6.114   5.282 -0.3263  0.3820  0.3790
  100SAPE   H4R10073   0.788   6.144   5.302 -0.7551 -0.0320 -1.1336
  100SAPE   H4S10074   0.886   6.003   5.289 -0.1684  0.3355 -0.1767
  100SAPE   C2510075   0.955   6.173   5.158  0.7859 -0.2602 -0.0014
  100SAPE   H5R10076   1.038   6.241   5.181  0.2945  0.8030 -1.2739
  100SAPE   C2610077   0.922   6.138   5.032 -0.1122 -0.1853  0.5589
  100SAPE   H6R10078   0.992   6.174   4.955 -0.5868 -1.0351 -0.3120
  100SAPE   C2710079   0.806   6.058   4.984 -0.1179  0.3269  0.0438
  100SAPE   H7R10080   0.749   6.094   4.895 -0.9759 -2.7829 -0.7637
  100SAPE   H7S10081   0.734   6.054   5.069  2.2111 -1.4816  2.0787
  100SAPE   C2810082   0.839   5.907   4.961 -0.1571  0.2248 -0.1227
  100SAPE   H8R10083   0.914   5.867   5.032  0.7991 -1.7031 -2.0809
  100SAPE   C2910084   0.808   5.829   4.852  0.2007  0.1197  0.5167
  100SAPE   H9R10085   0.839   5.723   4.852 -0.8265 -0.1904 -0.0335
  100SAPE  C21010086   0.717   5.868   4.736  0.3558  0.3859  0.4970
  100SAPE  H10R10087   0.643   5.947   4.760 -0.3236  0.1096 -0.5863
  100SAPE  H10S10088   0.650   5.780   4.725  1.4160 -0.5954  1.5775
  100SAPE  C21110089   0.789   5.895   4.608  0.0871 -0.2344  0.2448
  100SAPE  H11R10090   0.832   5.802   4.569  0.5915 -0.0932  0.4462
  100SAPE  C21210091   0.818   6.014   4.550 -0.4299 -0.4732  0.5938
  100SAPE  H12R10092   0.875   6.007   4.455  0.7856  1.4585  1.1124
  100SAPE  C21310093   0.783   6.154   4.595 -0.4248 -0.5242  0.0369
  100SAPE  H13R10094   0.871   6.221   4.581 -1.1167  0.4357  0.2440
  100SAPE  H13S10095   0.755   6.177   4.700  0.5695  1.0011 -0.0032
  100SAPE  C21410096   0.694   6.222   4.498  0.6973 -0.4551  0.2326
  100SAPE  H14R10097   0.744   6.282   4.420 -0.8146 -0.5832 -0.8938
  100SAPE  C21510098   0.560   6.206   4.495  0.2535  0.2453 -0.2579
  100SAPE  H15R10099   0.498   6.247   4.415  2.4143  1.3813 -1.4605
  100SAPE  C21610100   0.488   6.120   4.591  0.3660  0.2200 -0.6494
  100SAPE  H16R10101   0.527   6.125   4.695 -1.0932  2.1966 -0.1298
  100SAPE  H16S10102   0.487   6.011   4.570 -2.3225  0.2015 -0.8504
  100SAPE  C21710103   0.339   6.165   4.603 -0.0946 -0.2196 -0.4092
  100SAPE  H17R10104   0.308   6.268   4.633 -0.4558 -0.5428  0.3727
  100SAPE  H17S10105   0.303   6.107   4.691 -0.8141  0.3217 -0.3370
  100SAPE  C21810106   0.247   6.132   4.488  0.6264 -0.2922 -0.1001
  100SAPE  H18R10107   0.229   6.022   4.484 -0.8485 -0.0875  0.3251
  100SAPE  H18S10108   0.288   6.173   4.393 -1.9466  1.0210 -0.7389
  100SAPE  C21910109   0.114   6.211   4.510 -0.6349  0.0025 -0.7411
  100SAPE  H19R10110   0.136   6.320   4.508 -2.1835  0.3406 -0.6216
  100SAPE  H19S10111   0.087   6.196   4.617 -1.4942 -0.1927 -0.9782
  100SAPE  C22010112   0.003   6.162   4.421 -0.1259  0.2818 -0.4172
  100SAPE  H20R10113   0.005   6.202   4.317 -0.4795  0.3806 -0.3870
  100SAPE  H20S10114  -0.093   6.196   4.465  0.4908 -0.3520  1.5000
  100SAPE  H20T10115   0.000   6.051   4.424  0.8091  0.2220 -1.1741
  100SAPE   C3310116   1.299   6.359   5.317  0.3816 -0.1397  0.2948
  100SAPE   H3X10117   1.365   6.448   5.322  1.0114 -0.5018 -1.0503
  100SAPE   H3Y10118   1.194   6.396   5.312  0.6540  0.4674 -3.0560
  100SAPE   C3410119   1.326   6.287   5.188 -0.2274 -0.2919 -0.7332
  100SAPE   H4X10120   1.273   6.190   5.201 -0.7641  0.0366 -0.4419
  100SAPE   H4Y10121   1.435   6.267   5.177 -0.4163 -1.8063 -0.1069
  100SAPE   C3510122   1.264   6.356   5.070  0.1137 -0.1285 -0.1606
  100SAPE   H5X10123   1.322   6.450   5.055 -0.0323  0.1480  0.9117
  100SAPE   H5Y10124   1.161   6.395   5.087 -0.3865 -1.4656 -0.0266
  100SAPE   C3610125   1.274   6.281   4.937 -0.4437 -0.6380  0.1764
  100SAPE   H6X10126   1.203   6.196   4.947 -0.4539 -0.6151  0.2903
  100SAPE   H6Y10127   1.375   6.236   4.932 -0.6555 -1.3090  1.4371
  100SAPE   C3710128   1.239   6.373   4.816 -0.1142 -0.1059 -0.3404
  100SAPE   H7X10129   1.302   6.464   4.809 -1.2654  0.6854 -0.8214
  100SAPE   H7Y10130   1.139   6.413   4.844 -1.5724 -2.2939 -2.0028
  100SAPE   C3810131   1.223   6.285   4.696  0.2285 -0.9237 -0.0519
  100SAPE   H8X10132   1.151   6.205   4.724  0.5709 -0.4342  2.5111
  100SAPE   H8Y10133   1.317   6.237   4.661  0.6137  0.1658 -0.5549
  100SAPE   C3910134   1.153   6.357   4.585  0.0926  0.2319  0.0748
  100SAPE   H9X10135   1.205   6.454   4.574  0.9431 -0.0740  1.2354
  100SAPE   H9Y10136   1.048   6.367   4.621 -0.7982  0.3613 -2.3181
  100SAPE  C31010137   1.153   6.263   4.463  0.2246 -0.6887 -1.0652
  100SAPE  H10X10138   1.113   6.173   4.516 -0.5329  1.4691  2.3346
  100SAPE  H10Y10139   1.258   6.246   4.430  0.9538  1.2107  0.1080
  100SAPE  C31110140   1.075   6.311   4.347  0.3573 -0.1888  0.1791
  100SAPE  H11X10141   1.114   6.409   4.312  3.9887 -1.0571  1.4300
  100SAPE  H11Y10142   0.967   6.334   4.360  0.5406  2.0624 -1.5019
  100SAPE  C31210143   1.080   6.228   4.218 -0.0096  0.1337 -0.2390
  100SAPE  H12X10144   1.179   6.219   4.168 -0.7786 -0.9188 -1.6444
  100SAPE  H12Y10145   1.013   6.273   4.142 -0.7743  0.0433  0.3645
  100SAPE  C31310146   1.040   6.082   4.240 -0.1662  0.1706 -0.8545
  100SAPE  H13X10147   0.930   6.089   4.256  0.0185 -1.4888  1.6380
  100SAPE  H13Y10148   1.086   6.042   4.332  1.8936  1.6291 -1.1810
  100SAPE  C31410149   1.094   5.979   4.138 -0.0814 -0.0774  0.2724
  100SAPE  H14X10150   1.200   5.954   4.158  0.2772 -0.0677 -1.4457
  100SAPE  H14Y10151   1.073   6.003   4.031 -0.9590 -0.9104  0.2471
  100SAPE  C31510152   1.021   5.845   4.168  0.3663  0.4945  0.2046
  100SAPE  H15X10153   0.916   5.849   4.131  0.0947  0.1674  0.9285
  100SAPE  H15Y10154   1.019   5.813   4.274 -0.2464  0.7628  0.2799
  100SAPE  C31610155   1.098   5.723   4.103  0.5815 -0.2569  0.5319
  100SAPE  H16X10156   1.202   5.731   4.140  1.0950  0.5865 -1.0109
  100SAPE  H16Y10157   1.104   5.734   3.993 -0.4844  0.8523  0.5543
  100SAPE  C31710158   1.033   5.594   4.154  0.8655  0.4012  0.1023
  100SAPE  H17X10159   0.924   5.581   4.136  1.1140 -0.9598 -0.4985
  100SAPE  H17Y10160   1.040   5.603   4.264 -0.6588  0.7693  0.1954
  100SAPE  C31810161   1.093   5.470   4.079 -0.0277 -0.3451 -0.3743
  100SAPE  H18X10162   1.060   5.467   3.973  0.8351  0.3019 -0.6745
  100SAPE  H18Y10163   1.054   5.379   4.128  0.4780 -0.2139  0.2905
  100SAPE  H18Z10164   1.204   5.461   4.086  0.0578 -0.6846 -1.7541
  101SAPE     N10165   0.871   0.587   6.266 -0.0161  0.3626 -0.2116
  101SAPE   HN110166   0.861   0.498   6.320  3.4248  1.2368  2.1732
  101SAPE   HN210167   0.972   0.610   6.267 -0.0960  0.7372  1.0046
  101SAPE   HN310168   0.839   0.670   6.320  0.1238  0.7405 -0.7116
  101SAPE   C1210169   0.815   0.597   6.129 -0.6530  0.7577  0.9282
  101SAPE  H12A10170   0.712   0.555   6.131  0.5182 -2.3317  1.3739
  101SAPE  H12B10171   0.881   0.542   6.058 -0.7913  0.1907  1.2324
  101SAPE   C1110172   0.810   0.745   6.084  0.4557 -0.0507 -0.7486
  101SAPE  H11A10173   0.739   0.742   5.998  0.7058 -0.5512 -0.9386
  101SAPE  H11B10174   0.902   0.777   6.032 -1.0305  0.6730 -3.0904
  101SAPE     P10175   0.738   0.981   6.147 -0.1520 -0.5068 -0.2021
  101SAPE   O1310176   0.602   1.002   6.189 -0.0460  0.3543  0.0544
  101SAPE   O1410177   0.838   1.065   6.216  0.3520  0.1213 -0.2499
  101SAPE   O1210178   0.768   0.831   6.183  0.3170 -0.6357 -0.2742
  101SAPE   O1110179   0.757   1.004   5.988  0.1261 -0.1790 -0.2609
  101SAPE    C110180   0.647   1.013   5.901 -0.1910 -0.2891  0.1070
  101SAPE    HA10181   0.629   0.913   5.856  1.5930 -0.7145  0.2600
  101SAPE    HB10182   0.550   1.038   5.949 -0.4283 -1.6851  0.3843
  101SAPE    C210183   0.668   1.120   5.788 -0.6412 -0.7458  0.0964
  101SAPE    HS10184   0.646   1.222   5.826  2.1071  0.3562 -1.0118
  101SAPE   O2110185   0.596   1.076   5.668 -0.2147  0.0821  1.2290
  101SAPE   C2110186   0.510   1.173   5.621 -0.5614  0.4093 -0.0779
  101SAPE   O2210187   0.490   1.282   5.669 -0.1470  0.2198  0.0705
  101SAPE   C2210188   0.441   1.111   5.493 -0.1810 -0.0958 -0.5384
  101SAPE   H2R10189   0.514   1.038   5.451 -0.5147 -1.5977  1.3254
  101SAPE   H2S10190   0.353   1.069   5.546  0.2224  2.4753  2.4417
  101SAPE    C310191   0.820   1.122   5.748  0.4443 -0.0056 -0.5390
  101SAPE    HX10192   0.833   1.016   5.718 -1.0945 -0.7726  1.3173
  101SAPE    HY10193   0.886   1.145   5.835 -0.5117  3.5599 -0.5936
  101SAPE   O3110194   0.836   1.224   5.645 -0.4285  0.6954 -0.3952
  101SAPE   C3110195   0.856   1.347   5.686 -0.2326  0.3110  0.4509
  101SAPE   O3210196   0.850   1.388   5.800  0.1678 -0.3817 -0.8244
  101SAPE   C3210197   0.891   1.433   5.564  0.0599 -0.0176 -0.1042
  101SAPE   H2X10198   0.795   1.462   5.516 -0.5182  0.2658  1.1888
  101SAPE   H2Y10199   0.944   1.382   5.481  1.2566  0.9661  0.0221
  101SAPE   C2310200   0.399   1.219   5.392  0.0290 -0.1618 -0.8730
  101SAPE   H3R10201   0.450   1.317   5.406 -1.3648  0.3171  1.4128
  101SAPE   H3S10202   0.289   1.227   5.399 -0.2286 -3.1864  0.1951
  101SAPE   C2410203   0.439   1.183   5.252  0.2459  0.6884  0.0797
  101SAPE   H4R10204   0.396   1.084   5.226 -0.4123  0.4747  1.8329
  101SAPE   H4S10205   0.549   1.162   5.255  0.4216  1.6288  0.5596
  101SAPE   C2510206   0.383   1.279   5.150 -0.6220  0.2741 -0.2791
  101SAPE   H5R10207   0.286   1.259   5.102 -1.3569 -1.2856  1.7303
  101SAPE   C2610208   0.448   1.385   5.102 -0.0617  0.1027 -0.2431
  101SAPE   H6R10209   0.394   1.452   5.033  0.2546 -0.9286 -1.5325
  101SAPE   C2710210   0.582   1.443   5.139 -0.0019 -0.3768 -0.4292
  101SAPE   H7R10211   0.635   1.358   5.189 -0.5590 -1.3623 -1.4575
  101SAPE   H7S10212   0.558   1.517   5.217 -2.3977 -1.8807  0.3690
  101SAPE   C2810213   0.654   1.500   5.025  0.7129 -0.1535 -0.4162
  101SAPE   H8R10214   0.589   1.545   4.948  0.6244  0.8984  0.2550
  101SAPE   C2910215   0.789   1.517   5.021  0.3417  0.5118  0.9122
  101SAPE   H9R10216   0.836   1.559   4.931 -2.2478  1.4591 -0.1150
  101SAPE  C21010217   0.887   1.476   5.130 -0.4891 -0.5567 -0.4063
  101SAPE  H10R10218   0.976   1.435   5.079  2.0470  2.6082  1.0903
  101SAPE  H10S10219   0.840   1.394   5.189 -0.9698 -0.5103 -0.7217
  101SAPE  C21110220   0.935   1.580   5.227 -1.0202  0.3137  0.3652
  101SAPE  H11R10221   0.900   1.566   5.330  0.1367 -0.0432  0.7312
  101SAPE  C21210222   1.009   1.680   5.189 -0.0668 -0.0105  0.3442
  101SAPE  H12R10223   1.031   1.760   5.261  0.6546  0.8496 -0.7844
  101SAPE  C21310224   1.057   1.726   5.054 -0.0843 -0.5354  0.2151
  101SAPE  H13R10225   1.085   1.639   4.990 -2.1335 -1.3028  0.3086
  101SAPE  H13S10226   1.149   1.788   5.062 -0.6991  0.7521 -1.9720
  101SAPE  C21410227   0.958   1.814   4.980 -0.9468 -0.2760  0.1143
  101SAPE  H14R10228   0.857   1.823   5.023 -1.1014 -0.3766 -0.2221
  101SAPE  C21510229   0.971   1.863   4.859 -0.5852 -0.1518  0.0039
  101SAPE  H15R10230   0.881   1.898   4.806 -0.5472  0.2765  0.2113
  101SAPE  C21610231   1.105   1.844   4.790  0.1082  0.1010 -0.0120
  101SAPE  H16R10232   1.154   1.749   4.821  1.2738  0.8908  0.6233
  101SAPE  H16S10233   1.174   1.924   4.824 -1.8530  1.5175  0.8776
  101SAPE  C21710234   1.106   1.847   4.635  0.2390  0.2086  0.0451
  101SAPE  H17R10235   1.051   1.937   4.600 -0.9096 -1.1857 -1.9392
  101SAPE  H17S10236   1.052   1.759   4.594  1.1212 -0.8122  1.0045
  101SAPE  C21810237   1.247   1.862   4.586 -0.1519 -0.2344  0.1139
  101SAPE  H18R10238   1.325   1.800   4.634  1.8291  1.2702 -0.9818
  101SAPE  H18S10239   1.282   1.964   4.615 -0.6025 -0.7350  2.6044
  101SAPE  C21910240   1.273   1.846   4.433  0.0686 -0.6748  0.9048
  101SAPE  H19R10241   1.253   1.740   4.406 -1.3846 -0.0991 -0.4661
  101SAPE  H19S10242   1.380   1.872   4.415 -0.2580  0.7112  0.7974
  101SAPE  C22010243   1.188   1.935   4.351 -0.4626 -0.1124  0.2872
  101SAPE  H20R10244   1.200   2.036   4.397 -0.6902 -0.6497  1.5702
  101SAPE  H20S10245   1.084   1.899   4.363 -0.8743  1.1398  0.6395
  101SAPE  H20T10246   1.217   1.932   4.244  4.2452  0.4345  1.3253
  101SAPE   C3310247   0.962   1.555   5.616 -1.0173  0.2628 -0.5501
  101SAPE   H3X10248   0.915   1.605   5.703  1.2118 -0.0504  0.9179
  101SAPE   H3Y10249   0.971   1.638   5.542  0.0636 -0.7353 -1.5995
  101SAPE   C3410250   1.108   1.521   5.652  0.2798 -1.1185  0.1419
  101SAPE   H4X10251   1.139   1.454   5.570 -0.8396  0.2093 -1.4351
  101SAPE   H4Y10252   1.120   1.460   5.744  0.3189 -1.5700 -0.1606
  101SAPE   C3510253   1.194   1.644   5.653  0.4331 -0.0861 -0.5675
  101SAPE   H5X10254   1.294   1.621   5.697 -0.1693  0.4068  1.1464
  101SAPE   H5Y10255   1.140   1.718   5.716 -0.8280 -1.2568 -0.2199
  101SAPE   C3610256   1.219   1.709   5.513 -0.4939  0.2980  0.3184
  101SAPE   H6X10257   1.136   1.780   5.492  0.6585  1.5415 -0.1597
  101SAPE   H6Y10258   1.202   1.623   5.445 -1.6144  1.1135 -0.4810
  101SAPE   C3710259   1.350   1.781   5.487 -0.3020 -0.4765  0.0980
  101SAPE   H7X10260   1.433   1.708   5.470 -0.1536 -0.4329  0.6206
  101SAPE   H7Y10261   1.378   1.845   5.573 -0.8482 -1.9626  1.4182
  101SAPE   C3810262   1.339   1.856   5.350 -0.5402  0.1511 -0.3838
  101SAPE   H8X10263   1.335   1.967   5.357 -1.7572  0.0593  0.6883
  101SAPE   H8Y10264   1.244   1.826   5.301 -0.1818 -0.3732 -0.7735
  101SAPE   C3910265   1.466   1.822   5.260  0.3187  0.2158 -0.9584
  101SAPE   H9X10266   1.492   1.716   5.280 -1.3356 -0.1076 -0.3769
  101SAPE   H9Y10267   1.552   1.878   5.304 -0.0757  0.1424 -0.0720
  101SAPE  C31010268   1.454   1.842   5.114  0.1232 -0.1683  0.4202
  101SAPE  H10X10269   1.359   1.796   5.079  1.0891 -1.3142 -0.8164
  101SAPE  H10Y10270   1.533   1.788   5.057  0.8971  0.1380  1.1768
  101SAPE  C31110271   1.468   1.987   5.072 -0.0071  0.0227 -0.3897
  101SAPE  H11X10272   1.564   2.025   5.112  0.5293 -3.0294  1.5414
  101SAPE  H11Y10273   1.380   2.044   5.110  0.1670  2.7216 -3.5392
  101SAPE  C31210274   1.483   2.003   4.923  0.4319 -0.2502 -0.0189
  101SAPE  H12X10275   1.475   2.113   4.915 -1.8846 -0.2596  1.2087
  101SAPE  H12Y10276   1.399   1.957   4.866 -1.5579  0.3218  2.3036
  101SAPE  C31310277   1.619   1.957   4.859 -0.0284 -0.2544 -0.2240
  101SAPE  H13X10278   1.629   1.848   4.874  1.8641  0.0386  0.9903
  101SAPE  H13Y10279   1.706   2.004   4.910 -0.7259 -0.0425  0.8006
  101SAPE  C31410280   1.626   1.998   4.708 -0.2607 -0.2146  0.3756
  101SAPE  H14X10281   1.626   2.109   4.710 -2.8055 -0.1123 -1.1955
  101SAPE  H14Y10282   1.537   1.965   4.651  0.8985 -0.9427 -1.1029
  101SAPE  C31510283   1.741   1.933   4.637 -0.3686  0.8595  0.5449
  101SAPE  H15X10284   1.720   1.825   4.624 -0.7390  1.0754 -0.7453
  101SAPE  H15Y10285   1.836   1.944   4.693 -0.9060  1.4085  1.3762
  101SAPE  C31610286   1.749   1.965   4.484  0.4862 -0.9775  0.0487
  101SAPE  H16X10287   1.647   1.944   4.445  0.4924  1.6333 -1.6493
  101SAPE  H16Y10288   1.824   1.898   4.438  0.7757 -2.2477  2.2150
  101SAPE  C31710289   1.800   2.105   4.445 -0.3366  0.0627 -0.2100
  101SAPE  H17X10290   1.725   2.184   4.466  0.7903  1.5568 -1.5204
  101SAPE  H17Y10291   1.818   2.095   4.336 -2.5974  0.1825 -0.6283
  101SAPE  C31810292   1.929   2.151   4.515  0.4034 -0.2097 -0.1903
  101SAPE  H18X10293   1.904   2.193   4.614 -2.3725 -1.2491 -0.3411
  101SAPE  H18Y10294   1.980   2.227   4.452 -1.1141 -0.7967 -2.2564
  101SAPE  H18Z10295   1.989   2.058   4.528 -0.5116 -0.7398  0.4135
  102SAPE     N10296   6.246   1.169   5.982  0.0144  0.4780  0.2394
  102SAPE   HN110297   6.230   1.103   6.061  1.2441 -0.4337 -0.2485
  102SAPE   HN210298   6.284   1.256   6.023  2.5849 -0.0050 -0.9560
  102SAPE   HN310299   6.157   1.193   5.933  0.8805  0.9924 -1.1290
  102SAPE   C1210300   6.337   1.098   5.887  0.3909  0.2823  0.5328
  102SAPE  H12A10301   6.344   1.172   5.805  0.1739  1.3558  1.4553
  102SAPE  H12B10302   6.287   1.003   5.857  1.0543 -0.6947  2.3326
  102SAPE   C1110303   6.471   1.068   5.956 -0.3990  0.1667  0.3002
  102SAPE  H11A10304   6.522   1.165   5.976 -0.9227  0.2066  1.5408
  102SAPE  H11B10305   6.530   1.005   5.886  0.5534  0.4181  0.8582
  102SAPE     P10306   6.580   0.983   6.173  0.1932  0.1182 -0.1439
  102SAPE   O1310307   6.617   1.109   6.239  0.2943 -0.0800 -0.0189
  102SAPE   O1410308   6.556   0.867   6.259  0.6467  0.7441  0.6899
  102SAPE   O1210309   6.454   1.006   6.078 -0.3797  0.2918 -0.6155
  102SAPE   O1110310   6.692   0.937   6.071 -0.2628 -0.7279 -0.2605
  102SAPE    C110311   6.716   0.799   6.044  0.2934  0.3111  0.2373
  102SAPE    HA10312   6.713   0.745   6.141 -0.9831 -1.1147 -0.5418
  102SAPE    HB10313   6.629   0.758   5.989  0.8310  0.4575 -0.7403
  102SAPE    C210314   6.853   0.777   5.974  0.3627 -0.3577 -0.7323
  102SAPE    HS10315   6.926   0.823   6.043 -0.7353  0.5140 -0.1129
  102SAPE   O2110316   6.840   0.849   5.844 -0.2663  0.2039 -0.4209
  102SAPE   C2110317   6.946   0.854   5.787 -0.7885 -0.4296  0.2601
  102SAPE   O2210318   7.060   0.818   5.819 -0.0671 -0.7635 -0.6572
  102SAPE   C2210319   6.922   0.922   5.647  0.2921  0.0949 -0.5416
  102SAPE   H2R10320   6.843   0.858   5.603  0.5143 -1.2489  0.9102
  102SAPE   H2S10321   6.877   1.021   5.669 -0.2894 -0.1489 -0.6085
  102SAPE    C310322   6.899   0.627   5.953  0.2743 -0.1048  0.0636
  102SAPE    HX10323   6.902   0.564   6.044 -1.9500  0.7178  0.7687
  102SAPE    HY10324   7.007   0.626   5.925  0.9004 -0.1751  2.2514
  102SAPE   O3110325   6.815   0.566   5.854 -0.1212  0.1982  0.5772
  102SAPE   C3110326   6.708   0.506   5.905 -0.0760 -0.0929  0.3334
  102SAPE   O3210327   6.680   0.501   6.026  0.7355 -0.6691  0.5865
  102SAPE   C3210328   6.627   0.446   5.784 -0.5960 -0.0493 -0.0058
  102SAPE   H2X10329   6.558   0.373   5.831 -1.3567 -0.6105 -1.9048
  102SAPE   H2Y10330   6.709   0.397   5.727 -1.8034  0.1219 -1.9823
  102SAPE   C2310331   7.054   0.938   5.564  0.5230 -0.5106 -0.1678
  102SAPE   H3R10332   7.081   0.848   5.505  3.1914 -1.3495  2.0986
  102SAPE   H3S10333   7.136   0.954   5.638 -0.8624  0.2879  1.2397
  102SAPE   C2410334   7.027   1.049   5.461 -0.4302  0.1059  0.0501
  102SAPE   H4R10335   7.039   1.150   5.506 -3.1109  0.5778 -0.1041
  102SAPE   H4S10336   6.921   1.050   5.426 -0.1710 -0.1322 -0.7646
  102SAPE   C2510337   7.121   1.044   5.343  0.0605 -0.7275  0.0847
  102SAPE   H5R10338   7.211   1.107   5.355 -0.4354  0.1305 -0.5649
  102SAPE   C2610339   7.097   0.981   5.219 -0.5488 -0.6864 -0.8789
  102SAPE   H6R10340   7.175   0.988   5.142  0.0946  0.5729 -0.1352
  102SAPE   C2710341   6.977   0.896   5.181 -0.2536  0.0761  0.6289
  102SAPE   H7R10342   6.910   0.931   5.101 -0.1954 -0.9780  0.1066
  102SAPE   H7S10343   6.911   0.877   5.269 -0.3288 -0.6165  0.4333
  102SAPE   C2810344   7.030   0.762   5.133 -0.3963  0.0747  0.0753
  102SAPE   H8R10345   7.097   0.711   5.203 -0.0578  0.1948 -0.1526
  102SAPE   C2910346   6.989   0.706   5.020  0.2633  0.6058 -0.2103
  102SAPE   H9R10347   7.045   0.614   4.996 -1.8445 -0.6891 -0.4213
  102SAPE  C21010348   6.894   0.751   4.913  0.6297 -0.1302  0.3176
  102SAPE  H10R10349   6.943   0.742   4.813 -0.7283 -0.5278 -0.3302
  102SAPE  H10S10350   6.865   0.858   4.913 -0.3711 -0.3770 -0.7370
  102SAPE  C21110351   6.774   0.660   4.921 -0.5650  1.1238  0.1768
  102SAPE  H11R10352   6.706   0.703   4.996  0.3935  3.5458 -0.2607
  102SAPE  C21210353   6.729   0.562   4.838  0.3528 -0.4994  0.2505
  102SAPE  H12R10354   6.635   0.511   4.864 -0.4748  1.4225  1.2775
  102SAPE  C21310355   6.796   0.515   4.716  0.3003  0.1483 -0.2632
  102SAPE  H13R10356   6.903   0.540   4.733  0.4633 -1.4729  1.4044
  102SAPE  H13S10357   6.758   0.569   4.627  1.3421 -1.3539 -1.6610
  102SAPE  C21410358   6.775   0.359   4.708  0.1356 -0.1634  0.6017
  102SAPE  H14R10359   6.837   0.292   4.769  1.6174  1.4643  0.9575
  102SAPE  C21510360   6.686   0.297   4.625 -0.3884 -0.3608  0.0852
  102SAPE  H15R10361   6.680   0.187   4.628  3.2050 -0.6827  3.5375
  102SAPE  C21610362   6.603   0.371   4.518  0.2172 -0.3822 -0.3546
  102SAPE  H16R10363   6.586   0.480   4.533 -0.0745 -0.3758 -0.7152
  102SAPE  H16S10364   6.498   0.336   4.525  0.3249 -0.5499  0.6166
  102SAPE  C21710365   6.652   0.378   4.373  0.5559  0.2618 -0.3176
  102SAPE  H17R10366   6.581   0.446   4.321 -1.8188 -1.4808  0.4398
  102SAPE  H17S10367   6.646   0.279   4.321 -0.4522  0.2185 -0.1410
  102SAPE  C21810368   6.790   0.434   4.357  0.3560 -0.2316 -0.3608
  102SAPE  H18R10369   6.860   0.379   4.423 -0.5951 -1.0426  0.0084
  102SAPE  H18S10370   6.784   0.537   4.398 -1.8260  0.2648 -1.7483
  102SAPE  C21910371   6.834   0.428   4.211  0.0241  0.5987 -1.0468
  102SAPE  H19R10372   6.912   0.504   4.190  0.4779  0.7421  0.9555
  102SAPE  H19S10373   6.739   0.440   4.156 -0.3724 -0.6015 -0.6606
  102SAPE  C22010374   6.886   0.290   4.190 -0.4490  0.5787 -0.3477
  102SAPE  H20R10375   6.796   0.225   4.183 -1.4436  2.0113 -1.5669
  102SAPE  H20S10376   6.957   0.271   4.274 -1.2735  0.9428  0.4469
  102SAPE  H20T10377   6.948   0.282   4.098 -1.9072 -1.5084 -1.2434
  102SAPE   C3310378   6.562   0.566   5.705 -0.0691 -0.1376 -0.0535
  102SAPE   H3X10379   6.535   0.523   5.606 -0.2540 -1.0821  0.3949
  102SAPE   H3Y10380   6.638   0.644   5.683  1.6000 -0.8149  2.7623
  102SAPE   C3410381   6.433   0.636   5.758 -0.1705  0.0101  0.3845
  102SAPE   H4X10382   6.461   0.694   5.848  0.1425  0.8194 -0.2336
  102SAPE   H4Y10383   6.372   0.546   5.782 -0.8433 -0.2435 -2.0296
  102SAPE   C3510384   6.349   0.714   5.655  0.4142  0.1702  1.0068
  102SAPE   H5X10385   6.279   0.775   5.716 -3.0700 -4.5848  2.3456
  102SAPE   H5Y10386   6.290   0.642   5.594  2.3303 -0.8387  0.2736
  102SAPE   C3610387   6.437   0.796   5.561 -0.4280  0.0278 -0.7163
  102SAPE   H6X10388   6.487   0.726   5.490 -0.2004 -0.0142 -0.5165
  102SAPE   H6Y10389   6.508   0.844   5.631 -0.1409 -3.4414  1.6390
  102SAPE   C3710390   6.369   0.906   5.486  0.2072 -0.3137  0.1207
  102SAPE   H7X10391   6.318   0.980   5.551  1.4877 -0.0615  0.8583
  102SAPE   H7Y10392   6.283   0.850   5.443 -0.1693 -0.8585  1.5217
  102SAPE   C3810393   6.454   0.957   5.376 -0.5733  0.0071 -0.3427
  102SAPE   H8X10394   6.555   0.976   5.417 -1.0297 -0.6507  1.1558
  102SAPE   H8Y10395   6.397   1.047   5.342 -0.0433  0.1656 -0.8287
  102SAPE   C3910396   6.460   0.859   5.255  0.3015 -0.3052 -0.4025
  102SAPE   H9X10397   6.356   0.825   5.236  0.2786 -0.4224 -0.0760
  102SAPE   H9Y10398   6.521   0.773   5.289 -1.3238 -1.1794  0.4060
  102SAPE  C31010399   6.526   0.914   5.127  0.1607 -0.1518  0.0725
  102SAPE  H10X10400   6.539   0.818   5.071  1.3055 -0.0799  0.1849
  102SAPE  H10Y10401   6.626   0.956   5.152  0.6694  0.7592 -3.0947
  102SAPE  C31110402   6.455   1.019   5.042 -0.2693 -0.6868 -0.5346
  102SAPE  H11X10403   6.458   1.099   5.119  0.8680 -2.4281  1.3531
  102SAPE  H11Y10404   6.351   0.994   5.011  0.6589 -0.5240 -4.1190
  102SAPE  C31210405   6.523   1.065   4.915  0.8120  0.2980 -0.0050
  102SAPE  H12X10406   6.615   1.119   4.948  0.2157  1.0260  0.5030
  102SAPE  H12Y10407   6.456   1.136   4.862 -0.6075 -0.7453  0.3556
  102SAPE  C31310408   6.560   0.946   4.823  0.4948 -0.1750  0.2834
  102SAPE  H13X10409   6.471   0.889   4.787  1.6497 -0.1079 -3.0098
  102SAPE  H13Y10410   6.638   0.881   4.867  1.8544  0.4738 -1.0657
  102SAPE  C31410411   6.626   0.999   4.698 -0.2527  1.1125  0.2760
  102SAPE  H14X10412   6.717   1.055   4.727  0.0471  1.3013 -1.0146
  102SAPE  H14Y10413   6.562   1.069   4.641 -1.4420 -1.6599 -2.0543
  102SAPE  C31510414   6.664   0.894   4.584 -0.6332 -0.2006 -0.4818
  102SAPE  H15X10415   6.579   0.828   4.557 -0.5364  0.0973 -1.5424
  102SAPE  H15Y10416   6.742   0.824   4.622 -0.5283 -0.2213 -0.7348
  102SAPE  C31610417   6.718   0.967   4.457  0.0491  0.2960  0.0499
  102SAPE  H16X10418   6.814   1.012   4.490 -0.0791  0.6080  0.0073
  102SAPE  H16Y10419   6.652   1.047   4.415  0.6514  1.5279  1.3602
  102SAPE  C31710420   6.733   0.869   4.331 -0.2411  0.1637  0.5422
  102SAPE  H17X10421   6.633   0.823   4.313 -0.0616  0.4184 -1.2228
  102SAPE  H17Y10422   6.808   0.792   4.358 -1.8811 -1.3268  1.0949
  102SAPE  C31810423   6.785   0.941   4.203 -0.7182 -0.2697  0.5924
  102SAPE  H18X10424   6.706   1.002   4.153 -0.5428 -0.1944  0.4101
  102SAPE  H18Y10425   6.823   0.865   4.133 -0.5608  0.7495 -0.4582
  102SAPE  H18Z10426   6.873   1.008   4.219 -0.5787 -0.5231  0.9038
  103SAPE     N10427   3.011   3.949   1.899  0.1064 -0.0178  0.0056
  103SAPE   HN110428   3.000   3.865   1.838  2.2906 -0.3758  0.0484
  103SAPE   HN210429   2.936   4.017   1.875  0.3435  0.3885  0.3922
  103SAPE   HN310430   3.103   3.996   1.889  0.6370 -1.3530 -1.9354
  103SAPE   C1210431   2.981   3.905   2.040 -0.3210 -0.7888 -0.3002
  103SAPE  H12A10432   2.990   3.987   2.115 -1.0120 -0.8934 -0.0930
  103SAPE  H12B10433   3.044   3.825   2.083  0.7592 -0.0901 -0.5364
  103SAPE   C1110434   2.839   3.844   2.029 -0.1278  0.3180 -0.4077
  103SAPE  H11A10435   2.821   3.806   2.132  1.8149  1.7592  0.5142
  103SAPE  H11B10436   2.838   3.757   1.960  0.5185 -0.1806  0.1957
  103SAPE     P10437   2.594   3.884   1.967 -0.4911 -0.0234  0.1631
  103SAPE   O1310438   2.536   3.911   1.835  0.0426  0.1226  0.9999
  103SAPE   O1410439   2.583   3.745   2.017  0.2277 -0.5062  0.0666
  103SAPE   O1210440   2.740   3.934   1.986 -0.5036  0.1206  0.1305
  103SAPE   O1110441   2.516   3.969   2.077 -0.0118  0.4057  0.4071
  103SAPE    C110442   2.568   4.021   2.194  0.1779 -0.7793 -0.2132
  103SAPE    HA10443   2.656   4.087   2.181  1.3057 -1.6988  2.1355
  103SAPE    HB10444   2.481   4.080   2.233 -1.3835 -1.0720 -2.9841
  103SAPE    C210445   2.609   3.916   2.308 -0.2049 -0.1462 -0.5652
  103SAPE    HS10446   2.648   3.833   2.246 -1.5241  0.5401 -2.4047
  103SAPE   O2110447   2.489   3.884   2.371  0.5974  0.3942  0.1542
  103SAPE   C2110448   2.494   3.760   2.428 -0.8256 -0.4257 -0.8150
  103SAPE   O2210449   2.598   3.694   2.435 -0.2996  0.2154 -0.1909
  103SAPE   C2210450   2.359   3.730   2.489  0.2119 -0.6158 -1.1172
  103SAPE   H2R10451   2.303   3.826   2.495  2.4312  0.6574  0.7682
  103SAPE   H2S10452   2.315   3.653   2.422 -0.3287 -0.4279 -0.9840
  103SAPE    C310453   2.704   3.966   2.416  0.5852 -0.3699  0.5806
  103SAPE    HX10454   2.799   3.994   2.365  2.2636 -3.2275  1.9113
  103SAPE    HY10455   2.730   3.886   2.488  0.4120 -0.2019  0.8331
  103SAPE   O3110456   2.649   4.083   2.481  0.6831  0.1454 -0.0928
  103SAPE   C3110457   2.728   4.161   2.555 -1.2012  0.2727  0.3113
  103SAPE   O3210458   2.845   4.134   2.591  0.5232  0.9971  0.1246
  103SAPE   C3210459   2.646   4.280   2.602  0.3003 -0.0023  0.2305
  103SAPE   H2X10460   2.546   4.243   2.635  0.0384  0.4707 -0.0353
  103SAPE   H2Y10461   2.640   4.352   2.519  0.2292 -0.0521  0.1918
  103SAPE   C2310462   2.364   3.663   2.626  0.0493  0.3606  0.0686
  103SAPE   H3R10463   2.422   3.568   2.624 -0.6063 -0.0483 -2.3245
  103SAPE   H3S10464   2.258   3.632   2.643  0.6620 -1.0286  1.6297
  103SAPE   C2410465   2.386   3.752   2.748 -0.0277  0.2504 -0.2247
  103SAPE   H4R10466   2.353   3.700   2.840 -1.1655 -1.1830 -1.3908
  103SAPE   H4S10467   2.314   3.837   2.742 -0.7444 -0.2576  0.9068
  103SAPE   C2510468   2.526   3.800   2.780  0.0254  0.6222  1.1488
  103SAPE   H5R10469   2.598   3.766   2.705 -1.0715  0.7956 -0.0201
  103SAPE   C2610470   2.563   3.862   2.892  0.0999 -0.6765  0.3308
  103SAPE   H6R10471   2.669   3.889   2.908  0.1845  0.0131 -1.2310
  103SAPE   C2710472   2.480   3.902   3.007 -0.1816 -0.0563 -0.4236
  103SAPE   H7R10473   2.500   3.835   3.093 -0.2362 -0.6420 -0.8642
  103SAPE   H7S10474   2.378   3.878   2.972 -0.3889 -1.4439  1.0119
  103SAPE   C2810475   2.493   4.040   3.059  0.9518 -0.5450 -0.7555
  103SAPE   H8R10476   2.593   4.081   3.082 -0.3100  0.4102  4.4379
  103SAPE   C2910477   2.386   4.115   3.106 -0.1554 -0.0930 -0.9539
  103SAPE   H9R10478   2.408   4.217   3.141  0.0478 -0.8275  1.1804
  103SAPE  C21010479   2.238   4.068   3.117  0.1696 -0.3276 -0.2007
  103SAPE  H10R10480   2.213   4.069   3.225  0.5156  2.2810 -0.0663
  103SAPE  H10S10481   2.226   3.966   3.076 -2.0387 -0.3247  0.3468
  103SAPE  C21110482   2.139   4.166   3.059  0.5349 -0.0036  0.0401
  103SAPE  H11R10483   2.165   4.216   2.964 -0.0579  0.3760  0.0729
  103SAPE  C21210484   2.012   4.183   3.095  0.2335  0.5919  0.2680
  103SAPE  H12R10485   1.939   4.246   3.043 -2.5111 -2.4440  0.0891
  103SAPE  C21310486   1.957   4.116   3.217  0.0905  0.0934  0.7192
  103SAPE  H13R10487   1.950   4.198   3.292  0.6127 -0.8556  1.8402
  103SAPE  H13S10488   2.028   4.042   3.259 -0.6367 -0.5735  0.7801
  103SAPE  C21410489   1.839   4.037   3.184 -0.1624  0.3853 -0.0201
  103SAPE  H14R10490   1.782   4.086   3.105  1.7368  2.7368 -0.0255
  103SAPE  C21510491   1.792   3.928   3.253  0.4041 -0.0972 -0.1440
  103SAPE  H15R10492   1.696   3.883   3.223  0.2886 -0.1731  0.3226
  103SAPE  C21610493   1.856   3.860   3.371  0.1257  0.4971 -0.2640
  103SAPE  H16R10494   1.953   3.903   3.401  0.4669  0.1873 -0.9031
  103SAPE  H16S10495   1.882   3.753   3.356 -0.5436  0.4737 -1.3741
  103SAPE  C21710496   1.760   3.870   3.489  0.0249 -0.6575  0.2086
  103SAPE  H17R10497   1.658   3.836   3.461  0.6728 -1.1696 -1.6796
  103SAPE  H17S10498   1.745   3.976   3.518  0.8313  0.4644 -3.0651
  103SAPE  C21810499   1.812   3.807   3.624  0.3286  0.4132 -0.2861
  103SAPE  H18R10500   1.825   3.697   3.615 -0.9945  0.1052  1.1541
  103SAPE  H18S10501   1.732   3.816   3.700  0.4392 -5.2265  0.9098
  103SAPE  C21910502   1.924   3.876   3.690 -0.3660  0.0273 -0.4130
  103SAPE  H19R10503   1.900   3.985   3.687  0.0699  0.1481  0.2071
  103SAPE  H19S10504   2.013   3.847   3.630  0.2921 -1.6222  1.2615
  103SAPE  C22010505   1.964   3.831   3.841 -0.2128  0.0318  0.9987
  103SAPE  H20R10506   2.060   3.867   3.884  0.6745  0.4539 -1.2127
  103SAPE  H20S10507   1.966   3.721   3.851  2.8005 -0.4118 -2.5019
  103SAPE  H20T10508   1.886   3.871   3.910 -0.7231 -0.9364  0.9883
  103SAPE   C3310509   2.714   4.347   2.723  0.1500  0.0181  0.0242
  103SAPE   H3X10510   2.662   4.444   2.742 -0.4969 -0.2947 -0.1381
  103SAPE   H3Y10511   2.823   4.363   2.707 -0.3308  0.2894 -3.8596
  103SAPE   C3410512   2.700   4.271   2.857 -0.3879 -0.5607  0.0940
  103SAPE   H4X10513   2.765   4.181   2.859  0.4733 -0.0020 -1.3406
  103SAPE   H4Y10514   2.592   4.251   2.874 -0.5688 -0.6369 -1.0852
  103SAPE   C3510515   2.751   4.371   2.963  0.4990  0.4842 -0.9775
  103SAPE   H5X10516   2.690   4.463   2.957 -0.2967 -0.0567 -1.3988
  103SAPE   H5Y10517   2.856   4.401   2.939  1.3229 -1.4349 -0.0417
  103SAPE   C3610518   2.748   4.315   3.110 -0.2586  0.3987 -0.4830
  103SAPE   H6X10519   2.821   4.231   3.117 -1.7855 -0.8934  0.9053
  103SAPE   H6Y10520   2.645   4.280   3.132  0.0872 -1.7913 -2.0885
  103SAPE   C3710521   2.800   4.411   3.219 -0.3544  0.2219 -0.3482
  103SAPE   H7X10522   2.725   4.490   3.242 -1.4463 -1.4649  2.4744
  103SAPE   H7Y10523   2.890   4.459   3.176 -0.2080  2.4430  2.1760
  103SAPE   C3810524   2.843   4.341   3.352 -0.2495  0.3088  0.0436
  103SAPE   H8X10525   2.932   4.278   3.332 -0.1271  0.2093  0.8478
  103SAPE   H8Y10526   2.767   4.268   3.386  0.3344 -0.4098 -0.1651
  103SAPE   C3910527   2.886   4.435   3.460 -0.3190  0.4552  0.4588
  103SAPE   H9X10528   2.820   4.524   3.454 -2.0442 -0.6526  2.0321
  103SAPE   H9Y10529   2.991   4.465   3.440 -1.2232  3.9008  0.1641
  103SAPE  C31010530   2.881   4.380   3.603  0.3901  0.6318  0.1440
  103SAPE  H10X10531   2.956   4.299   3.599 -0.8377 -0.4968 -1.0185
  103SAPE  H10Y10532   2.784   4.331   3.628  1.4391 -1.9177 -0.4605
  103SAPE  C31110533   2.929   4.476   3.709  0.1450  0.1472  0.3228
  103SAPE  H11X10534   2.838   4.536   3.733 -0.0970 -0.1325  0.1052
  103SAPE  H11Y10535   3.000   4.545   3.659 -0.6721 -1.8821 -4.0943
  103SAPE  C31210536   2.976   4.404   3.833 -0.3823 -0.0918 -0.1127
  103SAPE  H12X10537   3.074   4.362   3.801  0.9437  0.8696  2.3830
  103SAPE  H12Y10538   2.912   4.318   3.862 -1.1003 -0.3001 -2.1510
  103SAPE  C31310539   2.999   4.498   3.953 -0.1818 -0.1236  0.7978
  103SAPE  H13X10540   2.902   4.539   3.987 -1.5317 -2.1691 -0.4069
  103SAPE  H13Y10541   3.067   4.582   3.926 -0.5182 -0.4419 -1.1983
  103SAPE  C31410542   3.060   4.426   4.078  0.3034 -0.6248  0.8971
  103SAPE  H14X10543   3.152   4.372   4.047 -0.6302 -1.6883 -0.1464
  103SAPE  H14Y10544   2.992   4.345   4.111  1.8370 -1.7019  1.5376
  103SAPE  C31510545   3.092   4.517   4.200 -0.1629 -0.4622 -0.2383
  103SAPE  H15X10546   3.128   4.451   4.282 -0.3777  1.3480  1.4000
  103SAPE  H15Y10547   3.006   4.580   4.231 -0.2175 -0.0549 -1.1778
  103SAPE  C31610548   3.206   4.610   4.163  0.0016 -0.1622 -0.5141
  103SAPE  H16X10549   3.179   4.692   4.094 -4.4355 -1.7208 -0.9797
  103SAPE  H16Y10550   3.283   4.545   4.117  0.7809  1.6931 -1.9596
  103SAPE  C31710551   3.274   4.682   4.277 -0.1004  0.1741 -0.6898
  103SAPE  H17X10552   3.301   4.612   4.359 -2.4622  0.3870  0.3493
  103SAPE  H17Y10553   3.205   4.751   4.331  2.3125  1.6825  0.6409
  103SAPE  C31810554   3.398   4.752   4.224  0.4280 -1.2622  0.1255
  103SAPE  H18X10555   3.370   4.821   4.142  0.2785 -1.1503  0.2708
  103SAPE  H18Y10556   3.471   4.677   4.185  1.9917  0.3745 -0.2071
  103SAPE  H18Z10557   3.444   4.822   4.298  0.5263 -3.7307  2.5893
  104SAPE     N10558   2.795   2.294   1.647  0.2693 -0.2323 -0.0535
  104SAPE   HN110559   2.807   2.335   1.742  0.2916 -0.4010  0.0171
  104SAPE   HN210560   2.705   2.246   1.633  0.2298 -0.1752  0.0008
  104SAPE   HN310561   2.864   2.217   1.634 -1.4293 -1.8392  0.1540
  104SAPE   C1210562   2.813   2.407   1.548  0.5304  0.2571  0.3988
  104SAPE  H12A10563   2.807   2.374   1.442  2.7009 -0.2334  0.3751
  104SAPE  H12B10564   2.911   2.454   1.573  0.7157  0.2829 -0.3665
  104SAPE   C1110565   2.712   2.525   1.586  0.2770 -0.0327 -0.3269
  104SAPE  H11A10566   2.611   2.479   1.582  0.6734 -0.8614 -3.7570
  104SAPE  H11B10567   2.714   2.596   1.501 -0.0816 -1.6752 -1.7647
  104SAPE     P10568   2.660   2.700   1.770  0.0496  0.0413 -0.3243
  104SAPE   O1310569   2.731   2.760   1.878  0.2167  0.2255  0.2531
  104SAPE   O1410570   2.617   2.786   1.655 -0.1085  0.3324  0.1273
  104SAPE   O1210571   2.759   2.592   1.709 -0.0263 -0.2087 -0.3924
  104SAPE   O1110572   2.541   2.617   1.825  0.2229  0.6839  0.5618
  104SAPE    C110573   2.552   2.509   1.924  0.2880  0.1869  0.2002
  104SAPE    HA10574   2.476   2.433   1.896 -0.9810  0.9999  1.3047
  104SAPE    HB10575   2.651   2.459   1.925 -0.2125 -0.9797  3.7514
  104SAPE    C210576   2.514   2.554   2.067 -0.0179  0.5479  0.1169
  104SAPE    HS10577   2.414   2.602   2.068  0.0000  0.5827  0.4887
  104SAPE   O2110578   2.614   2.643   2.115 -0.3503 -0.4220 -0.5525
  104SAPE   C2110579   2.582   2.763   2.169  0.1034  0.2808  0.0933
  104SAPE   O2210580   2.469   2.805   2.173 -0.0113  1.0401  0.2438
  104SAPE   C2210581   2.709   2.824   2.227  0.1406  0.2052 -0.1309
  104SAPE   H2R10582   2.781   2.842   2.145  1.4414  1.1738  1.1745
  104SAPE   H2S10583   2.669   2.915   2.276  2.1521  0.7675  0.5358
  104SAPE    C310584   2.499   2.434   2.162  0.3353 -0.0186  0.2903
  104SAPE    HX10585   2.603   2.395   2.169  0.3603 -0.0401 -0.1433
  104SAPE    HY10586   2.427   2.359   2.124  0.8529  0.1803 -1.1627
  104SAPE   O3110587   2.453   2.484   2.285  0.1267 -0.4603  0.0733
  104SAPE   C3110588   2.461   2.395   2.391 -0.2467 -0.0339  0.4146
  104SAPE   O3210589   2.509   2.283   2.375  0.1163  0.3979 -0.0864
  104SAPE   C3210590   2.402   2.456   2.516  0.2800  0.7540 -0.7336
  104SAPE   H2X10591   2.296   2.422   2.526  0.7462 -0.3495  0.6448
  104SAPE   H2Y10592   2.379   2.564   2.502  0.8706  1.0156  0.2651
  104SAPE   C2310593   2.771   2.721   2.330 -0.1369 -0.3339 -0.3973
  104SAPE   H3R10594   2.795   2.626   2.277  1.0567 -0.8927  1.0770
  104SAPE   H3S10595   2.699   2.700   2.411 -1.8733 -1.0902 -2.0767
  104SAPE   C2410596   2.904   2.775   2.389  0.3323 -0.5494  0.2306
  104SAPE   H4R10597   2.977   2.785   2.305 -0.3862  1.5213 -0.2023
  104SAPE   H4S10598   2.950   2.702   2.458 -2.0940 -0.3471  2.2091
  104SAPE   C2510599   2.883   2.909   2.461 -0.2592  0.1795 -0.5614
  104SAPE   H5R10600   2.855   2.994   2.397 -0.2007 -1.1846 -2.5157
  104SAPE   C2610601   2.901   2.936   2.597  0.3230  0.0652  0.0425
  104SAPE   H6R10602   2.869   3.035   2.629  0.8684  1.0503 -2.2532
  104SAPE   C2710603   2.961   2.834   2.691 -0.1820  0.2927 -0.1305
  104SAPE   H7R10604   3.000   2.898   2.773 -1.9639 -2.7041  3.3106
  104SAPE   H7S10605   3.055   2.787   2.655  1.6018  2.5676  1.2901
  104SAPE   C2810606   2.873   2.723   2.743 -0.4997 -0.0755  0.5941
  104SAPE   H8R10607   2.813   2.676   2.665  1.2028 -1.2013 -0.1064
  104SAPE   C2910608   2.856   2.686   2.866 -0.2946 -0.3724  0.3810
  104SAPE   H9R10609   2.817   2.583   2.876  2.3679 -1.3424  1.9696
  104SAPE  C21010610   2.930   2.733   2.991  0.1017 -0.5764 -0.2137
  104SAPE  H10R10611   2.981   2.829   2.967 -0.4289 -1.2202 -4.7710
  104SAPE  H10S10612   2.996   2.648   3.017 -1.2583 -1.3646  0.7998
  104SAPE  C21110613   2.826   2.754   3.098  0.0648  0.2748  0.0230
  104SAPE  H11R10614   2.741   2.814   3.063  0.7411  0.4141 -1.4859
  104SAPE  C21210615   2.838   2.726   3.225  0.4077 -0.4875 -0.2026
  104SAPE  H12R10616   2.759   2.754   3.296 -0.2314  1.4380 -1.5832
  104SAPE  C21310617   2.966   2.672   3.282  0.3144  0.5041  0.4866
  104SAPE  H13R10618   3.050   2.739   3.255 -0.4957  1.1259 -0.5970
  104SAPE  H13S10619   2.984   2.570   3.242 -0.9337  0.4872 -0.0787
  104SAPE  C21410620   2.950   2.662   3.432  0.0456  0.4013 -0.1587
  104SAPE  H14R10621   2.846   2.649   3.465 -0.2286 -0.1107 -1.1919
  104SAPE  C21510622   3.050   2.679   3.526  0.7470  0.3207 -0.3583
  104SAPE  H15R10623   3.025   2.674   3.633  0.7880 -0.9805 -0.3915
  104SAPE  C21610624   3.185   2.709   3.495 -0.1929  0.0906 -0.0133
  104SAPE  H16R10625   3.180   2.820   3.503 -3.1494  0.0260  0.0536
  104SAPE  H16S10626   3.206   2.681   3.390 -0.6382 -0.0587 -0.0638
  104SAPE  C21710627   3.295   2.639   3.587  0.0808 -0.1685  0.0884
  104SAPE  H17R10628   3.293   2.532   3.558  0.8081  0.0292 -0.7335
  104SAPE  H17S10629   3.276   2.649   3.696  0.0154  0.1793  0.0476
  104SAPE  C21810630   3.436   2.696   3.536  1.0171 -0.0078 -0.2315
  104SAPE  H18R10631   3.430   2.801   3.573  1.3423 -0.3646  0.8846
  104SAPE  H18S10632   3.425   2.694   3.426  1.8315 -0.1075 -0.3160
  104SAPE  C21910633   3.564   2.638   3.596  0.0700 -0.2687  0.1455
  104SAPE  H19R10634   3.564   2.528   3.580 -2.3323 -1.1082  4.3793
  104SAPE  H19S10635   3.560   2.644   3.707 -0.0344 -0.9588  0.1856
  104SAPE  C22010636   3.696   2.700   3.554 -0.2576 -0.5452  0.3578
  104SAPE  H20R10637   3.769   2.669   3.632 -0.6820  1.1785  1.4775
  104SAPE  H20S10638   3.689   2.811   3.555 -1.0031 -0.5818 -0.1421
  104SAPE  H20T10639   3.725   2.655   3.457 -2.5800 -0.6381 -0.3613
  104SAPE   C3310640   2.489   2.442   2.640 -0.0586 -0.1032 -0.3399
  104SAPE   H3X10641   2.577   2.510   2.627  0.1801 -0.5446 -1.0772
  104SAPE   H3Y10642   2.528   2.340   2.658  0.4719  0.0711 -0.4796
  104SAPE   C3410643   2.415   2.484   2.771 -0.7831 -0.3839  0.8338
  104SAPE   H4X10644   2.330   2.413   2.766 -0.3541 -0.8388 -0.7870
  104SAPE   H4Y10645   2.380   2.587   2.750 -0.0748 -0.6805 -2.4240
  104SAPE   C3510646   2.506   2.465   2.899  0.5103  0.4050  0.1287
  104SAPE   H5X10647   2.603   2.518   2.892  1.0964 -0.6931 -0.2509
  104SAPE   H5Y10648   2.526   2.357   2.917 -1.6068 -0.0816 -0.0816
  104SAPE   C3610649   2.436   2.524   3.026 -0.4580 -0.2319  0.1445
  104SAPE   H6X10650   2.329   2.501   3.005 -0.5048  0.9659 -1.0559
  104SAPE   H6Y10651   2.439   2.634   3.019 -1.6150 -0.2611 -1.4268
  104SAPE   C3710652   2.490   2.462   3.158 -0.2543 -0.4972 -0.5307
  104SAPE   H7X10653   2.592   2.495   3.187 -0.1076 -1.7505  0.4783
  104SAPE   H7Y10654   2.478   2.351   3.153 -0.5115 -0.6701  2.2958
  104SAPE   C3810655   2.401   2.510   3.277  0.2995 -0.1566 -0.3211
  104SAPE   H8X10656   2.295   2.476   3.270  0.3897 -0.2535 -1.3268
  104SAPE   H8Y10657   2.395   2.621   3.267  0.7017 -0.0622  0.4378
  104SAPE   C3910658   2.459   2.487   3.413  0.4776 -0.0966 -0.0823
  104SAPE   H9X10659   2.524   2.575   3.434 -0.1217  0.4044 -0.3122
  104SAPE   H9Y10660   2.508   2.387   3.417 -0.2057 -0.4088  0.7711
  104SAPE  C31010661   2.356   2.483   3.528  0.3570 -0.1081 -0.5285
  104SAPE  H10X10662   2.327   2.376   3.535  0.0310  0.0256  0.2172
  104SAPE  H10Y10663   2.268   2.545   3.501 -0.0789 -0.4411  0.0934
  104SAPE  C31110664   2.416   2.538   3.656  0.1549 -0.0811  0.1825
  104SAPE  H11X10665   2.437   2.646   3.643 -0.1147 -0.1504 -0.9210
  104SAPE  H11Y10666   2.513   2.485   3.667 -0.2088 -1.3481 -2.0278
  104SAPE  C31210667   2.336   2.510   3.792 -0.3596  0.5305 -0.1084
  104SAPE  H12X10668   2.291   2.409   3.782  2.8285 -1.1055  0.6987
  104SAPE  H12Y10669   2.244   2.571   3.784 -0.4665  0.3465 -0.3123
  104SAPE  C31310670   2.421   2.518   3.918 -0.1729  0.3637 -0.5694
  104SAPE  H13X10671   2.445   2.625   3.939  1.5932  0.1302 -1.2332
  104SAPE  H13Y10672   2.521   2.471   3.909  0.1687  0.8805  0.3544
  104SAPE  C31410673   2.356   2.455   4.048 -0.6186 -0.3728  0.8443
  104SAPE  H14X10674   2.277   2.526   4.080 -1.1173 -1.0589  1.1510
  104SAPE  H14Y10675   2.429   2.467   4.130 -1.0506 -1.2310  1.3703
  104SAPE  C31510676   2.315   2.307   4.046 -0.3288  0.2714  0.5268
  104SAPE  H15X10677   2.392   2.235   4.011 -0.9458 -0.8846  1.4725
  104SAPE  H15Y10678   2.231   2.304   3.974 -0.0690  0.2922  0.2203
  104SAPE  C31610679   2.275   2.254   4.180 -0.5845  0.2970  0.1129
  104SAPE  H16X10680   2.183   2.307   4.213 -1.0564  0.5234 -1.5157
  104SAPE  H16Y10681   2.358   2.279   4.250  0.9693  0.7975 -1.8405
  104SAPE  C31710682   2.260   2.095   4.184  0.4392  0.1144 -0.9204
  104SAPE  H17X10683   2.361   2.049   4.180  0.4919  0.1525 -0.0578
  104SAPE  H17Y10684   2.197   2.076   4.094 -1.6077  0.5198  0.3692
  104SAPE  C31810685   2.180   2.033   4.299 -0.5951 -0.2145 -0.3467
  104SAPE  H18X10686   2.216   1.932   4.329  0.1726  0.5724  1.5120
  104SAPE  H18Y10687   2.072   2.041   4.274 -0.0184 -1.0684 -3.4371
  104SAPE  H18Z10688   2.191   2.096   4.390  1.0200 -0.9421 -0.0001
  105SAPE     N10689   6.011   2.075   1.962  0.2748  0.4837 -0.2317
  105SAPE   HN110690   5.931   2.044   1.902 -1.0270  0.2364  1.5699
  105SAPE   HN210691   6.059   2.144   1.901 -2.0516  1.0639 -1.5718
  105SAPE   HN310692   6.062   1.985   1.969 -0.8999 -0.1847  0.0696
  105SAPE   C1210693   5.963   2.108   2.099 -0.3924 -0.4883  0.4698
  105SAPE  H12A10694   6.046   2.132   2.168  0.5078 -0.2479 -0.6750
  105SAPE  H12B10695   5.897   2.027   2.136 -1.3719  0.3372  0.5748
  105SAPE   C1110696   5.863   2.229   2.093 -0.0152  0.5679 -0.0072
  105SAPE  H11A10697   5.905   2.319   2.043  0.4122  0.8365  0.8224
  105SAPE  H11B10698   5.851   2.256   2.200 -0.0372 -1.1783  0.4603
  105SAPE     P10699   5.646   2.279   1.966  0.2655  0.0136 -0.3007
  105SAPE   O1310700   5.711   2.389   1.886 -0.0018  1.1315 -0.0876
  105SAPE   O1410701   5.549   2.200   1.898  0.6725  0.0052  0.0733
  105SAPE   O1210702   5.741   2.182   2.034  0.6268 -0.0369  0.1629
  105SAPE   O1110703   5.572   2.354   2.080  0.4805  0.1101 -0.3105
  105SAPE    C110704   5.550   2.301   2.210 -1.0305 -0.4192 -0.4861
  105SAPE    HA10705   5.490   2.209   2.193  1.7955 -2.4572 -0.2237
  105SAPE    HB10706   5.649   2.283   2.259 -1.8393  1.1187  1.9071
  105SAPE    C210707   5.463   2.394   2.303 -0.4754  0.5194  0.4877
  105SAPE    HS10708   5.359   2.415   2.269 -0.3616  0.2645 -0.0151
  105SAPE   O2110709   5.547   2.510   2.312 -0.9333 -0.1711  0.1291
  105SAPE   C2110710   5.529   2.606   2.219  0.2625 -0.0156  0.6471
  105SAPE   O2210711   5.426   2.630   2.159  0.3323  0.2533 -0.1961
  105SAPE   C2210712   5.653   2.693   2.216  0.0425  0.2736  0.5514
  105SAPE   H2R10713   5.664   2.728   2.321 -0.8505 -0.3096  0.8566
  105SAPE   H2S10714   5.739   2.629   2.187  0.8555  0.8911  1.5391
  105SAPE    C310715   5.452   2.328   2.439  0.5775  0.4919 -0.5351
  105SAPE    HX10716   5.551   2.279   2.444 -0.1861 -1.4218 -2.3796
  105SAPE    HY10717   5.369   2.253   2.443 -0.1060  0.9942 -3.1633
  105SAPE   O3110718   5.441   2.422   2.552 -0.4428 -0.1329  0.0261
  105SAPE   C3110719   5.325   2.482   2.562  0.3556 -0.3677  0.1011
  105SAPE   O3210720   5.222   2.452   2.503 -0.4976  0.1299 -0.2535
  105SAPE   C3210721   5.333   2.610   2.640 -0.7045 -0.0632 -0.3856
  105SAPE   H2X10722   5.440   2.641   2.635 -0.5914 -0.5625 -1.2472
  105SAPE   H2Y10723   5.313   2.588   2.747 -0.7840  2.6069  0.2337
  105SAPE   C2310724   5.641   2.811   2.115  0.4029  0.2822  0.2665
  105SAPE   H3R10725   5.584   2.786   2.022  1.3257  1.6075 -0.6912
  105SAPE   H3S10726   5.741   2.838   2.075 -0.5271  1.7402 -1.1938
  105SAPE   C2410727   5.581   2.937   2.182  0.0923  0.1841 -0.2720
  105SAPE   H4R10728   5.579   3.023   2.112  0.6306  0.3694 -0.0598
  105SAPE   H4S10729   5.656   2.966   2.258 -0.2048  0.6487 -0.1517
  105SAPE   C2510730   5.444   2.928   2.245 -0.2556 -1.0457 -0.4701
  105SAPE   H5R10731   5.357   2.891   2.189 -1.9844 -0.5119  1.6982
  105SAPE   C2610732   5.411   2.960   2.371  0.1192 -0.0500 -0.4779
  105SAPE   H6R10733   5.307   2.946   2.402 -0.6874 -1.2464 -3.4558
  105SAPE   C2710734   5.505   3.010   2.480  0.1180 -0.3229  0.4970
  105SAPE   H7R10735   5.445   3.091   2.525 -0.2173  1.2759 -2.5478
  105SAPE   H7S10736   5.592   3.066   2.439 -1.5512  1.8733 -0.2261
  105SAPE   C2810737   5.547   2.901   2.569 -0.0680 -0.4843 -0.0125
  105SAPE   H8R10738   5.569   2.801   2.529 -1.7001 -1.3468  1.0971
  105SAPE   C2910739   5.556   2.906   2.705  0.5575  0.0213  0.4650
  105SAPE   H9R10740   5.591   2.817   2.759 -0.7544 -1.0214 -0.3608
  105SAPE  C21010741   5.536   3.029   2.795  0.7236  0.4550  0.5896
  105SAPE  H10R10742   5.510   3.115   2.731  1.7652 -0.6701 -1.4304
  105SAPE  H10S10743   5.639   3.055   2.827  1.1773 -1.2044  0.5794
  105SAPE  C21110744   5.435   3.017   2.904  0.1447  0.2952  0.5010
  105SAPE  H11R10745   5.390   2.916   2.909 -1.0901  0.5770 -2.4535
  105SAPE  C21210746   5.389   3.113   2.981  0.1274 -0.2911 -0.5523
  105SAPE  H12R10747   5.326   3.092   3.068  0.8769 -0.8605 -0.1364
  105SAPE  C21310748   5.435   3.256   2.977  0.9008  0.3425 -0.1870
  105SAPE  H13R10749   5.421   3.292   2.872  0.6959  0.7207 -0.0316
  105SAPE  H13S10750   5.541   3.253   3.011  0.4010  0.8799  1.5119
  105SAPE  C21410751   5.358   3.349   3.069 -0.6857  0.0189 -0.2527
  105SAPE  H14R10752   5.332   3.435   3.005  1.7759  1.1699  0.1978
  105SAPE  C21510753   5.316   3.337   3.196 -0.4080 -0.0321  0.0057
  105SAPE  H15R10754   5.257   3.419   3.239 -0.3338 -0.1745  0.3836
  105SAPE  C21610755   5.343   3.225   3.293 -0.3027 -0.3443  0.0727
  105SAPE  H16R10756   5.389   3.139   3.240  1.5855  0.3020  0.5952
  105SAPE  H16S10757   5.245   3.191   3.333 -0.8330 -1.5499 -2.0861
  105SAPE  C21710758   5.432   3.260   3.416 -0.0570  0.8623  0.3856
  105SAPE  H17R10759   5.521   3.313   3.377  0.7095  1.2574  2.5624
  105SAPE  H17S10760   5.465   3.168   3.468  1.5341  0.9032 -0.4768
  105SAPE  C21810761   5.353   3.356   3.511 -0.1294 -0.6322 -0.6431
  105SAPE  H18R10762   5.261   3.296   3.533 -0.5124  0.2789  0.2989
  105SAPE  H18S10763   5.330   3.442   3.445  1.2883 -0.2238 -0.6185
  105SAPE  C21910764   5.430   3.400   3.634  0.2459 -0.1226 -0.3876
  105SAPE  H19R10765   5.499   3.486   3.615 -0.3952  0.3407 -0.6345
  105SAPE  H19S10766   5.489   3.314   3.673  2.6782  0.2635 -2.8627
  105SAPE  C22010767   5.331   3.449   3.745 -0.1384 -0.0827  0.2262
  105SAPE  H20R10768   5.274   3.362   3.783  1.7742 -1.2136  0.6233
  105SAPE  H20S10769   5.265   3.521   3.693 -0.9967 -0.0047  1.3799
  105SAPE  H20T10770   5.375   3.508   3.828  0.3745 -2.2997  1.6277
  105SAPE   C3310771   5.233   2.724   2.603 -0.2788 -0.3600  0.1010
  105SAPE   H3X10772   5.250   2.742   2.495  0.5889 -3.1669 -0.2944
  105SAPE   H3Y10773   5.263   2.817   2.656 -3.3297  0.8477 -0.0651
  105SAPE   C3410774   5.079   2.705   2.633 -0.1666  0.0805 -0.3662
  105SAPE   H4X10775   5.072   2.686   2.742  1.5082  1.5042  0.0450
  105SAPE   H4Y10776   5.048   2.614   2.577 -0.5995  0.1478 -0.2321
  105SAPE   C3510777   4.999   2.830   2.613  0.2855 -0.4825  0.3723
  105SAPE   H5X10778   4.925   2.816   2.531 -0.4673  2.1583  0.5037
  105SAPE   H5Y10779   5.075   2.897   2.567 -1.0725  1.3006  0.6253
  105SAPE   C3610780   4.948   2.891   2.742 -0.1290 -0.5665 -0.8354
  105SAPE   H6X10781   4.866   2.831   2.787  0.4903 -1.2490 -0.5947
  105SAPE   H6Y10782   4.907   2.989   2.709 -0.4452 -1.4083 -3.1117
  105SAPE   C3710783   5.061   2.928   2.848  0.2463  0.2689  0.5866
  105SAPE   H7X10784   5.130   3.003   2.803 -0.2607  0.5387  0.2571
  105SAPE   H7Y10785   5.128   2.843   2.873  0.8727  1.3780  3.0968
  105SAPE   C3810786   5.001   2.985   2.982 -0.5359  0.0816  0.3696
  105SAPE   H8X10787   5.086   3.003   3.051 -0.0841  1.0486 -0.4225
  105SAPE   H8Y10788   4.941   2.899   3.020 -0.9137  0.4301  0.5664
  105SAPE   C3910789   4.941   3.128   2.964  0.1992  1.0105 -0.9642
  105SAPE   H9X10790   4.873   3.130   2.876 -0.9317 -0.2796 -0.1532
  105SAPE   H9Y10791   5.024   3.199   2.945  0.2047  1.8564  1.8252
  105SAPE  C31010792   4.869   3.184   3.086  0.2990 -0.4741  0.2317
  105SAPE  H10X10793   4.784   3.118   3.110  0.2873 -1.2262 -1.6854
  105SAPE  H10Y10794   4.834   3.286   3.057 -0.3535 -0.8112 -0.1772
  105SAPE  C31110795   4.961   3.203   3.206 -0.3090 -1.0227  0.2726
  105SAPE  H11X10796   5.042   3.279   3.194 -1.0907 -0.0398  1.0022
  105SAPE  H11Y10797   5.004   3.101   3.216 -0.2852 -0.9893  0.5096
  105SAPE  C31210798   4.899   3.257   3.339 -0.1885 -0.0433  0.6316
  105SAPE  H12X10799   4.826   3.179   3.369 -1.0965  0.0480 -1.1751
  105SAPE  H12Y10800   4.845   3.351   3.315 -0.0774 -0.0784  0.2386
  105SAPE  C31310801   4.990   3.304   3.449 -0.0665  0.2442  0.4600
  105SAPE  H13X10802   5.049   3.390   3.409 -1.5179  0.9600 -0.2229
  105SAPE  H13Y10803   5.062   3.225   3.482 -0.6101 -0.2380  0.5028
  105SAPE  C31410804   4.912   3.347   3.572  0.5581  0.7057 -0.3448
  105SAPE  H14X10805   4.810   3.308   3.550  1.1301 -0.1209 -1.6407
  105SAPE  H14Y10806   4.914   3.457   3.582 -2.6137  0.9663 -1.4801
  105SAPE  C31510807   4.971   3.289   3.699  0.3959  0.4549 -0.2195
  105SAPE  H15X10808   5.077   3.320   3.708 -0.7612  4.4319  1.5580
  105SAPE  H15Y10809   4.967   3.178   3.692 -3.4827  0.3989  0.3408
  105SAPE  C31610810   4.891   3.322   3.823 -0.3606 -0.2426  0.3799
  105SAPE  H16X10811   4.785   3.292   3.805 -0.7311  1.1840  0.0113
  105SAPE  H16Y10812   4.877   3.432   3.832  1.9560  0.0451  0.9931
  105SAPE  C31710813   4.952   3.263   3.954  1.1719  0.0640 -0.2028
  105SAPE  H17X10814   4.871   3.269   4.030  0.3300 -2.9113 -0.7168
  105SAPE  H17Y10815   5.043   3.319   3.985  2.8790 -1.4249 -2.2063
  105SAPE  C31810816   4.987   3.107   3.944 -0.7352 -1.1018 -0.0880
  105SAPE  H18X10817   4.907   3.037   3.912 -1.4250 -0.0312 -0.7590
  105SAPE  H18Y10818   5.007   3.077   4.050 -1.1419  1.7409  0.8912
  105SAPE  H18Z10819   5.076   3.095   3.878 -1.6353  2.2056 -2.1558
  106SAPE     N10820   6.229   3.650   2.004 -0.2395  0.5346 -0.1222
  106SAPE   HN110821   6.285   3.564   1.990  0.3509  0.8559  0.2341
  106SAPE   HN210822   6.269   3.704   2.083  0.2001 -0.3058  0.2410
  106SAPE   HN310823   6.135   3.611   2.026  0.7850 -1.4656  0.8747
  106SAPE   C1210824   6.224   3.745   1.890  0.4501  0.1476 -0.1665
  106SAPE  H12A10825   6.141   3.816   1.911 -1.6847 -2.6837  1.7578
  106SAPE  H12B10826   6.189   3.691   1.800 -0.3356 -1.1699  0.8988
  106SAPE   C1110827   6.358   3.810   1.853  0.6999 -0.0383  0.1689
  106SAPE  H11A10828   6.340   3.882   1.771  1.6139 -0.7556 -0.6774
  106SAPE  H11B10829   6.421   3.738   1.796 -0.1598  0.1353 -1.0351
  106SAPE     P10830   6.439   4.025   1.968  0.2041  0.2460 -0.1121
  106SAPE   O1310831   6.497   4.057   2.103 -0.0562  0.3946  0.4261
  106SAPE   O1410832   6.513   4.065   1.847  0.3776 -0.2655 -0.5725
  106SAPE   O1210833   6.421   3.870   1.968  0.1707 -0.0519  0.4906
  106SAPE   O1110834   6.288   4.074   1.964 -0.1477 -0.1514 -0.0732
  106SAPE    C110835   6.193   4.068   2.067  0.1490 -0.1138 -0.4307
  106SAPE    HA10836   6.190   3.961   2.095  0.3164 -0.4858 -1.7357
  106SAPE    HB10837   6.226   4.127   2.155 -1.0369 -0.5487  0.3289
  106SAPE    C210838   6.053   4.117   2.020 -0.1418  0.2530 -0.1448
  106SAPE    HS10839   6.053   4.093   1.912 -0.7011 -1.2920  0.1743
  106SAPE   O2110840   6.045   4.257   2.053 -0.2763 -0.1624 -0.8206
  106SAPE   C2110841   6.082   4.335   1.961  1.2856  0.1947 -0.5579
  106SAPE   O2210842   6.120   4.312   1.848 -0.0215 -0.8425 -0.4215
  106SAPE   C2210843   6.064   4.479   2.018  0.3864  0.6495 -0.7162
  106SAPE   H2R10844   5.953   4.492   2.018  0.1325 -1.0143  1.2538
  106SAPE   H2S10845   6.104   4.466   2.121  1.6432 -0.6247 -1.3296
  106SAPE    C310846   5.927   4.050   2.085 -0.8158  0.2878  0.5079
  106SAPE    HX10847   5.921   3.946   2.046 -2.4722  1.6286 -3.3371
  106SAPE    HY10848   5.831   4.094   2.051 -1.8999 -1.0820  1.6236
  106SAPE   O3110849   5.938   4.046   2.228  0.1090  0.1758  0.2423
  106SAPE   C3110850   5.852   3.953   2.279 -0.1130 -0.0480  0.4501
  106SAPE   O3210851   5.784   3.874   2.217  1.1392 -0.1842  0.1307
  106SAPE   C3210852   5.861   3.963   2.429  0.2811  0.5047 -0.3517
  106SAPE   H2X10853   5.828   4.064   2.460  3.0729  0.7707  2.2134
  106SAPE   H2Y10854   5.969   3.952   2.455  0.1292  1.2091  0.6407
  106SAPE   C2310855   6.135   4.585   1.933 -0.1671  0.1455 -0.2149
  106SAPE   H3R10856   6.108   4.681   1.983 -2.1431 -0.2068 -0.5315
  106SAPE   H3S10857   6.092   4.584   1.831 -1.9243 -0.1468  0.5077
  106SAPE   C2410858   6.288   4.552   1.939  0.1618  0.4507  0.8858
  106SAPE   H4R10859   6.320   4.617   1.855 -3.1928  1.3279  0.1226
  106SAPE   H4S10860   6.296   4.444   1.913 -0.3509 -0.1642  3.0339
  106SAPE   C2510861   6.356   4.594   2.065  0.0486 -0.6072 -0.0827
  106SAPE   H5R10862   6.362   4.704   2.070 -0.8556 -0.5180 -0.7950
  106SAPE   C2610863   6.395   4.520   2.173  0.4985 -0.7583  0.1785
  106SAPE   H6R10864   6.423   4.583   2.259 -0.9480  0.6596 -0.3279
  106SAPE   C2710865   6.396   4.372   2.193  1.0726 -0.5538  0.4403
  106SAPE   H7R10866   6.452   4.326   2.109  0.1701  2.8639 -2.2611
  106SAPE   H7S10867   6.290   4.340   2.181  0.5859  1.0050  0.3669
  106SAPE   C2810868   6.452   4.338   2.331  0.8758  0.3828  0.3744
  106SAPE   H8R10869   6.562   4.334   2.323  0.8550  1.6174 -0.8860
  106SAPE   C2910870   6.389   4.342   2.454 -0.3014  0.5190  0.2486
  106SAPE   H9R10871   6.446   4.316   2.544  1.5413 -0.6221 -1.1898
  106SAPE  C21010872   6.244   4.362   2.478 -0.1291 -0.6890 -0.0551
  106SAPE  H10R10873   6.187   4.357   2.383  2.9038  0.9165 -2.1339
  106SAPE  H10S10874   6.233   4.465   2.518  1.2931 -0.7195  0.4602
  106SAPE  C21110875   6.181   4.262   2.572  0.6644  0.0460 -0.7852
  106SAPE  H11R10876   6.120   4.182   2.527 -1.2567  0.9098  0.1428
  106SAPE  C21210877   6.182   4.269   2.704  0.7355  0.6256  0.2359
  106SAPE  H12R10878   6.120   4.195   2.757  0.5300  0.0621 -0.7649
  106SAPE  C21310879   6.247   4.374   2.790 -0.5614  0.0224  0.1620
  106SAPE  H13R10880   6.164   4.440   2.826 -1.9913 -1.1213 -0.9074
  106SAPE  H13S10881   6.312   4.442   2.731  0.4239 -0.2558  0.9098
  106SAPE  C21410882   6.329   4.316   2.898 -0.2011  0.2643 -0.4317
  106SAPE  H14R10883   6.416   4.267   2.853  1.0443  1.6413  0.3624
  106SAPE  C21510884   6.321   4.323   3.040  0.3103 -0.5595 -0.4976
  106SAPE  H15R10885   6.400   4.270   3.095  0.8659 -0.9216 -1.6271
  106SAPE  C21610886   6.218   4.389   3.132 -0.2841 -0.9011 -0.8353
  106SAPE  H16R10887   6.215   4.327   3.224  1.5627 -0.9776 -0.7854
  106SAPE  H16S10888   6.109   4.380   3.116 -1.0154 -1.3246  3.3993
  106SAPE  C21710889   6.244   4.535   3.168  0.3718 -0.2052 -0.6880
  106SAPE  H17R10890   6.154   4.574   3.220 -1.5096 -3.2712 -1.3492
  106SAPE  H17S10891   6.244   4.605   3.082 -0.4849 -1.0469 -1.3996
  106SAPE  C21810892   6.362   4.560   3.269  0.9766  0.0950  0.0164
  106SAPE  H18R10893   6.451   4.502   3.236  1.1386  1.2504 -1.7379
  106SAPE  H18S10894   6.334   4.518   3.368  1.5881  0.1007  0.2000
  106SAPE  C21910895   6.404   4.703   3.280  0.3789 -0.4898  0.1903
  106SAPE  H19R10896   6.325   4.763   3.331  1.1654  1.5282 -0.8479
  106SAPE  H19S10897   6.411   4.747   3.178 -1.9416  0.4754  0.3874
  106SAPE  C22010898   6.530   4.724   3.362  0.3835 -0.0869  0.1118
  106SAPE  H20R10899   6.519   4.697   3.469  0.0527  2.1915  0.7028
  106SAPE  H20S10900   6.557   4.832   3.359 -0.2102  0.0754  0.5699
  106SAPE  H20T10901   6.613   4.662   3.322 -1.1891 -1.2335 -1.5101
  106SAPE   C3310902   5.781   3.847   2.492  0.9046  0.2445 -0.0824
  106SAPE   H3X10903   5.817   3.838   2.597 -0.2072  2.0031  0.5058
  106SAPE   H3Y10904   5.792   3.746   2.448  0.3057  1.2672 -2.7643
  106SAPE   C3410905   5.631   3.879   2.510 -0.0902  0.5610 -0.1542
  106SAPE   H4X10906   5.563   3.799   2.547 -0.3290  0.7362 -0.2107
  106SAPE   H4Y10907   5.596   3.899   2.406  1.6259 -2.3604 -1.4170
  106SAPE   C3510908   5.608   4.004   2.602 -0.2276  0.2003  0.2338
  106SAPE   H5X10909   5.632   4.090   2.536  0.1236  0.8601  1.1945
  106SAPE   H5Y10910   5.681   3.998   2.686  0.4541 -0.3087 -0.3844
  106SAPE   C3610911   5.463   4.022   2.653  0.3327 -0.3192 -0.5591
  106SAPE   H6X10912   5.461   4.114   2.716 -0.2614 -2.4100  2.7028
  106SAPE   H6Y10913   5.423   3.941   2.718 -0.1393 -0.5367 -1.1158
  106SAPE   C3710914   5.371   4.023   2.530  0.0367  0.4433  0.4040
  106SAPE   H7X10915   5.370   3.924   2.479 -0.5046  0.2238  0.8320
  106SAPE   H7Y10916   5.414   4.099   2.462  1.0979 -2.4344 -2.4136
  106SAPE   C3810917   5.221   4.065   2.564  0.6297 -0.6718 -0.4930
  106SAPE   H8X10918   5.156   4.044   2.476 -0.9635  0.4207  0.3798
  106SAPE   H8Y10919   5.221   4.175   2.579 -0.7717 -0.9490  2.3838
  106SAPE   C3910920   5.153   3.987   2.678  0.6166 -0.3232 -0.1478
  106SAPE   H9X10921   5.194   3.883   2.684 -0.0064 -0.5692 -0.0140
  106SAPE   H9Y10922   5.046   3.966   2.657  0.9662 -2.3241 -0.1408
  106SAPE  C31010923   5.162   4.050   2.817 -0.0140 -0.3617 -0.2270
  106SAPE  H10X10924   5.105   4.146   2.820 -1.0970 -0.8984 -2.1202
  106SAPE  H10Y10925   5.268   4.070   2.846  0.0530 -1.6408  0.4661
  106SAPE  C31110926   5.117   3.953   2.923 -0.0388  0.3044  0.0363
  106SAPE  H11X10927   5.162   3.853   2.903 -0.3577  0.2871 -0.6355
  106SAPE  H11Y10928   5.006   3.945   2.921  0.1063 -3.2976  0.2504
  106SAPE  C31210929   5.158   4.005   3.068 -0.1991 -0.1416  0.8209
  106SAPE  H12X10930   5.269   3.997   3.078 -0.1745  1.3233  2.0500
  106SAPE  H12Y10931   5.114   3.937   3.144  2.9556 -2.1508  1.0576
  106SAPE  C31310932   5.110   4.151   3.102 -0.9630  0.6131  0.1521
  106SAPE  H13X10933   4.999   4.144   3.110 -0.7842 -2.6295  1.4927
  106SAPE  H13Y10934   5.144   4.225   3.026  0.5547 -0.3457 -0.1497
  106SAPE  C31410935   5.183   4.197   3.235 -0.1163 -0.2423  0.1467
  106SAPE  H14X10936   5.287   4.159   3.233 -0.5860 -1.5460 -0.4317
  106SAPE  H14Y10937   5.134   4.152   3.324  2.7075 -0.0402  1.9052
  106SAPE  C31510938   5.186   4.349   3.248  0.4468 -0.2031  0.3659
  106SAPE  H15X10939   5.221   4.389   3.150 -1.4099 -1.5580 -0.9466
  106SAPE  H15Y10940   5.256   4.382   3.327  3.6889 -3.2090 -0.9566
  106SAPE  C31610941   5.045   4.393   3.267 -0.3985 -0.2304  0.4041
  106SAPE  H16X10942   5.019   4.346   3.365  1.4762 -0.4879  0.8230
  106SAPE  H16Y10943   4.981   4.351   3.186 -0.2296 -1.7739  1.0210
  106SAPE  C31710944   5.043   4.543   3.274  0.3046 -0.1103 -0.0378
  106SAPE  H17X10945   5.066   4.586   3.174  1.7222 -2.7634 -0.9468
  106SAPE  H17Y10946   5.123   4.580   3.341 -0.3303  2.0714 -0.4045
  106SAPE  C31810947   4.907   4.597   3.336  0.4039 -0.0467  0.1400
  106SAPE  H18X10948   4.915   4.707   3.339 -1.3019  0.3005 -3.1882
  106SAPE  H18Y10949   4.887   4.563   3.440 -0.9216  0.8669  0.2008
  106SAPE  H18Z10950   4.818   4.588   3.270  1.2584  0.2010 -1.0767
  107SAPE     N10951   0.667   2.969   1.892 -0.1439  0.4225  0.2002
  107SAPE   HN110952   0.704   2.900   1.823 -0.5830 -0.2042  0.5751
  107SAPE   HN210953   0.689   2.942   1.990 -1.8782  2.5246  1.2488
  107SAPE   HN310954   0.564   2.957   1.885 -0.1400  0.9875 -1.1496
  107SAPE   C1210955   0.711   3.103   1.857  0.1406  0.1321  0.1162
  107SAPE  H12A10956   0.639   3.177   1.900  1.6878  0.2680  2.6833
  107SAPE  H12B10957   0.703   3.111   1.747 -1.0521 -4.5140 -0.3431
  107SAPE   C1110958   0.855   3.134   1.901  0.7369 -0.5243 -0.0244
  107SAPE  H11A10959   0.922   3.057   1.858  1.1023 -0.3246  0.1888
  107SAPE  H11B10960   0.862   3.135   2.012  0.1752  2.4256  0.0686
  107SAPE     P10961   0.863   3.396   1.929  0.0630 -0.0191 -0.0601
  107SAPE   O1310962   0.973   3.486   1.911 -0.4268  0.5898  0.3629
  107SAPE   O1410963   0.734   3.435   1.871 -0.3665 -0.4115 -0.2598
  107SAPE   O1210964   0.895   3.260   1.849 -0.4224 -0.3869 -0.2791
  107SAPE   O1110965   0.851   3.349   2.078 -0.1375  0.4082 -0.4369
  107SAPE    C110966   0.959   3.336   2.167  0.1459  0.3100 -0.6998
  107SAPE    HA10967   1.041   3.280   2.117  0.4854  1.7010 -1.7635
  107SAPE    HB10968   1.003   3.435   2.188  2.0101 -0.4062 -1.0130
  107SAPE    C210969   0.911   3.252   2.288  0.1228 -0.4596  0.5622
  107SAPE    HS10970   0.878   3.153   2.251  0.7331 -1.0120  1.4602
  107SAPE   O2110971   0.808   3.329   2.359  0.3381 -0.5319  0.5254
  107SAPE   C2110972   0.723   3.251   2.422  0.7250  0.0241  0.3809
  107SAPE   O2210973   0.709   3.131   2.409 -0.3267  0.0845  0.1698
  107SAPE   C2210974   0.624   3.341   2.495  0.4142 -1.1927  0.4896
  107SAPE   H2R10975   0.673   3.434   2.530 -0.4741 -0.7183  0.5068
  107SAPE   H2S10976   0.546   3.376   2.424  2.0212  1.2906 -0.1481
  107SAPE    C310977   1.032   3.238   2.380  0.0092  0.4193 -0.0032
  107SAPE    HX10978   1.069   3.330   2.430 -1.5964  0.5273  1.0587
  107SAPE    HY10979   1.116   3.198   2.318 -0.1032  0.9853 -0.5257
  107SAPE   O3110980   1.001   3.144   2.489 -0.4079 -0.1318  0.6403
  107SAPE   C3110981   0.992   3.022   2.452  0.7778  0.5181  0.3252
  107SAPE   O3210982   1.025   2.975   2.345 -0.3524  0.5662 -0.2402
  107SAPE   C3210983   0.927   2.935   2.566  0.3426 -0.1243  0.0930
  107SAPE   H2X10984   0.858   2.861   2.520  0.7155  0.1237 -0.9004
  107SAPE   H2Y10985   0.869   3.009   2.626  2.1622  2.7542 -1.4680
  107SAPE   C2310986   0.565   3.269   2.616  0.6663  0.0366  0.0169
  107SAPE   H3R10987   0.649   3.247   2.685  1.8780  0.4249 -1.2839
  107SAPE   H3S10988   0.516   3.176   2.580  0.2808  1.0922 -2.4091
  107SAPE   C2410989   0.464   3.351   2.702  0.5179  0.3265  0.1544
  107SAPE   H4R10990   0.507   3.453   2.705  1.3300 -0.0034  0.0658
  107SAPE   H4S10991   0.470   3.299   2.800  0.6669 -0.5811 -0.3153
  107SAPE   C2510992   0.321   3.368   2.652 -0.7553 -0.1668 -0.3760
  107SAPE   H5R10993   0.324   3.414   2.552  2.4417  2.4286  0.7235
  107SAPE   C2610994   0.217   3.304   2.711  0.1830 -0.1625  0.6615
  107SAPE   H6R10995   0.116   3.318   2.669  0.1262  0.4311  0.9773
  107SAPE   C2710996   0.224   3.228   2.839 -0.1320 -0.0426 -0.2713
  107SAPE   H7R10997   0.197   3.308   2.911 -0.1691 -0.5725  0.3064
  107SAPE   H7S10998   0.328   3.193   2.859 -0.2580  0.3589  1.2310
  107SAPE   C2810999   0.112   3.124   2.846  0.0470  0.4591  0.6057
  107SAPE   H8R11000   0.008   3.160   2.837  0.1746  0.4909 -1.1717
  107SAPE   C2911001   0.128   2.995   2.847 -0.1663  0.4135  0.6486
  107SAPE   H9R11002   0.037   2.933   2.849 -0.0965  0.3252  1.1521
  107SAPE  C21011003   0.255   2.920   2.853 -0.1775 -0.0531  0.5492
  107SAPE  H10R11004   0.234   2.824   2.905 -0.0605 -0.8989 -0.9042
  107SAPE  H10S11005   0.334   2.962   2.919 -0.1802 -1.7929  1.7335
  107SAPE  C21111006   0.308   2.870   2.720  0.2668  0.0229 -1.0371
  107SAPE  H11R11007   0.236   2.856   2.637  0.5419 -0.3514 -1.2137
  107SAPE  C21211008   0.435   2.849   2.697 -0.3014 -0.1742  0.5902
  107SAPE  H12R11009   0.463   2.819   2.595 -1.4629  0.3743  0.0923
  107SAPE  C21311010   0.551   2.857   2.788  0.3740 -0.2384 -0.4571
  107SAPE  H13R11011   0.523   2.889   2.891  0.1485 -0.1089 -0.5567
  107SAPE  H13S11012   0.624   2.931   2.749  0.2187 -0.0752 -0.4403
  107SAPE  C21411013   0.611   2.714   2.796 -0.0748 -0.3978  0.0026
  107SAPE  H14R11014   0.672   2.695   2.706  0.7479  1.7577  0.0349
  107SAPE  C21511015   0.595   2.624   2.897  0.0138 -0.1037  0.2898
  107SAPE  H15R11016   0.638   2.524   2.881  1.2851  0.5104 -0.2365
  107SAPE  C21611017   0.509   2.642   3.020  0.2544 -0.1931  0.4272
  107SAPE  H16R11018   0.438   2.557   3.026  0.9708 -0.8387 -0.0660
  107SAPE  H16S11019   0.465   2.744   3.012  2.5056  1.1472  3.1030
  107SAPE  C21711020   0.585   2.634   3.146 -0.3247 -0.0240 -0.4151
  107SAPE  H17R11021   0.652   2.721   3.163 -4.9398  3.6506  1.1964
  107SAPE  H17S11022   0.650   2.545   3.134 -0.6531 -0.2003 -0.8884
  107SAPE  C21811023   0.498   2.621   3.272 -0.2454 -0.5504  0.0313
  107SAPE  H18R11024   0.450   2.521   3.264 -1.1357 -0.3576  2.2943
  107SAPE  H18S11025   0.416   2.697   3.278 -0.3946 -0.8255  2.6133
  107SAPE  C21911026   0.582   2.635   3.396  0.0229  0.7133  0.4574
  107SAPE  H19R11027   0.636   2.732   3.399  0.4693  0.5347 -1.0283
  107SAPE  H19S11028   0.658   2.555   3.383  0.1289  1.1044 -1.6183
  107SAPE  C22011029   0.502   2.614   3.525 -0.2656  0.0572 -0.2923
  107SAPE  H20R11030   0.561   2.636   3.616 -0.0141  2.5956 -0.9835
  107SAPE  H20S11031   0.467   2.508   3.521 -1.7723  0.5242 -0.1807
  107SAPE  H20T11032   0.406   2.670   3.531 -0.3271 -0.1402  0.6819
  107SAPE   C3311033   1.028   2.874   2.667 -0.0239 -0.3165 -0.0863
  107SAPE   H3X11034   1.136   2.889   2.643  0.6023  0.2294  2.7246
  107SAPE   H3Y11035   1.020   2.764   2.660 -1.3306 -0.1311 -2.4254
  107SAPE   C3411036   1.012   2.919   2.812  0.6272 -0.0390 -0.4894
  107SAPE   H4X11037   0.906   2.891   2.833  1.2166 -0.3805  2.4020
  107SAPE   H4Y11038   1.023   3.029   2.820  1.3193 -0.0203 -1.5296
  107SAPE   C3511039   1.111   2.852   2.906 -0.1001  0.6821 -0.3908
  107SAPE   H5X11040   1.215   2.859   2.867 -0.0589  1.8882 -0.1009
  107SAPE   H5Y11041   1.073   2.748   2.911 -1.8983  1.3630  1.0008
  107SAPE   C3611042   1.099   2.908   3.043  0.5550 -0.2102  0.1885
  107SAPE   H6X11043   1.129   3.015   3.039  1.4096 -0.4046  0.9154
  107SAPE   H6Y11044   1.176   2.865   3.112  2.3620  0.8265 -1.0808
  107SAPE   C3711045   0.958   2.885   3.099  0.1740  0.0727 -0.7886
  107SAPE   H7X11046   0.916   2.794   3.051 -3.6017  1.2520 -0.0722
  107SAPE   H7Y11047   0.899   2.972   3.062  1.8335  2.0953  1.0568
  107SAPE   C3811048   0.956   2.899   3.251 -0.2247 -0.6714  0.0527
  107SAPE   H8X11049   0.849   2.896   3.280 -1.2315  3.7922 -2.2317
  107SAPE   H8Y11050   0.994   2.998   3.284  0.8786 -1.4745  1.2752
  107SAPE   C3911051   1.037   2.796   3.323 -0.0827 -0.1748  0.2779
  107SAPE   H9X11052   1.142   2.806   3.289 -0.5071  4.8730 -0.2381
  107SAPE   H9Y11053   0.990   2.698   3.299  2.7688 -1.1200 -2.1381
  107SAPE  C31011054   1.018   2.807   3.477 -0.1845  0.3671 -0.0078
  107SAPE  H10X11055   1.065   2.713   3.513 -0.6220 -0.1145 -0.6558
  107SAPE  H10Y11056   0.908   2.816   3.492 -0.3068  0.2098 -0.7609
  107SAPE  C31111057   1.100   2.920   3.539  0.5391 -0.8717  0.5654
  107SAPE  H11X11058   1.055   3.018   3.513 -0.2069 -1.2057  0.5800
  107SAPE  H11Y11059   1.202   2.915   3.494  0.4678 -0.6063  0.3769
  107SAPE  C31211060   1.112   2.935   3.691  0.1519  0.2723 -0.4859
  107SAPE  H12X11061   1.009   2.960   3.724 -0.1651 -0.3260 -1.0010
  107SAPE  H12Y11062   1.178   3.023   3.706  0.5408 -0.2798  1.3703
  107SAPE  C31311063   1.179   2.819   3.771 -0.7414  0.1567  1.1511
  107SAPE  H13X11064   1.268   2.795   3.709 -2.4978 -0.5882 -1.2425
  107SAPE  H13Y11065   1.117   2.727   3.763 -0.2305 -0.1159  0.0870
  107SAPE  C31411066   1.224   2.856   3.912  0.7782 -0.8577  0.5861
  107SAPE  H14X11067   1.262   2.768   3.968 -1.2399 -1.5050  1.0461
  107SAPE  H14Y11068   1.133   2.897   3.962 -0.3692 -2.6227  0.0648
  107SAPE  C31511069   1.330   2.958   3.923 -0.3655  0.2955 -0.5266
  107SAPE  H15X11070   1.349   2.979   4.031 -2.3332  0.4128 -0.1757
  107SAPE  H15Y11071   1.289   3.058   3.899 -2.8236 -0.2203  1.1426
  107SAPE  C31611072   1.465   2.937   3.858 -0.0262 -0.4487  0.2586
  107SAPE  H16X11073   1.532   3.025   3.858  0.7157 -0.9039  3.0095
  107SAPE  H16Y11074   1.459   2.896   3.755  0.4232 -2.6325  1.0434
  107SAPE  C31711075   1.555   2.834   3.936  0.3772 -0.5814  0.4519
  107SAPE  H17X11076   1.650   2.814   3.881 -1.0213 -0.1872 -2.3107
  107SAPE  H17Y11077   1.504   2.736   3.943 -1.9464  0.5194 -0.0292
  107SAPE  C31811078   1.587   2.884   4.075 -0.7533  0.3567 -0.1165
  107SAPE  H18X11079   1.653   2.973   4.075  0.8933 -0.8245  0.6167
  107SAPE  H18Y11080   1.653   2.807   4.119 -2.4853 -1.2345 -0.2013
  107SAPE  H18Z11081   1.492   2.889   4.133 -1.3579 -0.5682 -0.9847
  108SAPE     N11082   0.596   4.371   1.988 -0.0350 -0.1306 -0.5966
  108SAPE   HN111083   0.676   4.415   1.938 -0.1992 -1.4713 -2.1031
  108SAPE   HN211084   0.548   4.300   1.929  0.0144 -0.1087 -0.6625
  108SAPE   HN311085   0.531   4.448   2.012 -0.7885 -1.2705  1.3021
  108SAPE   C1211086   0.658   4.285   2.104 -0.1719 -0.1914  0.0534
  108SAPE  H12A11087   0.735   4.348   2.151 -1.7565  0.6040  1.7195
  108SAPE  H12B11088   0.714   4.201   2.057 -1.6801 -0.4283 -1.4394
  108SAPE   C1111089   0.553   4.223   2.200  0.0721  0.0733  0.0445
  108SAPE  H11A11090   0.512   4.309   2.257 -0.1502  1.0172 -1.4652
  108SAPE  H11B11091   0.616   4.170   2.274  0.1044  0.9266  0.6424
  108SAPE     P11092   0.468   3.991   2.084 -0.1209  0.1933  0.5472
  108SAPE   O1311093   0.349   3.957   2.006  0.3729  0.9333 -0.9679
  108SAPE   O1411094   0.599   3.976   2.013  0.0305  0.0325 -0.2736
  108SAPE   O1211095   0.451   4.142   2.138  0.4890  0.0672  0.2840
  108SAPE   O1111096   0.478   3.912   2.217  0.0035 -0.1568 -0.1128
  108SAPE    C111097   0.396   3.939   2.337  0.5823 -0.4411  0.5245
  108SAPE    HA11098   0.314   4.013   2.325  1.8837  0.9313 -0.3226
  108SAPE    HB11099   0.346   3.846   2.371 -1.6500  0.0918 -1.1139
  108SAPE    C211100   0.481   3.993   2.453 -0.1746  0.2245 -0.0092
  108SAPE    HS11101   0.521   4.091   2.421  0.0589  0.1100 -0.0791
  108SAPE   O2111102   0.584   3.900   2.482 -0.0176 -0.7549  0.1448
  108SAPE   C2111103   0.700   3.948   2.533 -0.0726  0.2847  0.7361
  108SAPE   O2211104   0.716   4.067   2.557 -0.0592 -0.3916  0.8437
  108SAPE   C2211105   0.807   3.832   2.558  1.0188  0.7915  1.2033
  108SAPE   H2R11106   0.788   3.800   2.662  0.8729 -0.5089  0.7960
  108SAPE   H2S11107   0.792   3.745   2.491 -1.5292  0.7310  1.7804
  108SAPE    C311108   0.382   4.009   2.570  0.1030  0.0970  0.4330
  108SAPE    HX11109   0.439   4.055   2.653 -0.1591 -0.2647  0.8162
  108SAPE    HY11110   0.351   3.907   2.601  1.0807 -1.1629 -2.3859
  108SAPE   O3111111   0.258   4.084   2.534  0.7688  0.0706  0.3338
  108SAPE   C3111112   0.215   4.170   2.625 -0.1205 -0.0716 -0.5932
  108SAPE   O3211113   0.273   4.185   2.731  0.2095  0.3619 -0.1416
  108SAPE   C3211114   0.092   4.246   2.585  0.3761 -0.9064  0.5555
  108SAPE   H2X11115   0.047   4.213   2.489 -1.5489 -1.7060  1.6675
  108SAPE   H2Y11116   0.115   4.352   2.562 -1.1110 -0.6389  0.1990
  108SAPE   C2311117   0.960   3.855   2.564  0.2070 -0.5967 -0.4159
  108SAPE   H3R11118   0.976   3.946   2.625 -3.3969  0.5156 -0.8622
  108SAPE   H3S11119   0.987   3.883   2.460 -0.0541 -0.4885 -0.4544
  108SAPE   C2411120   1.040   3.734   2.618  0.3200  1.0097 -0.1959
  108SAPE   H4R11121   1.149   3.754   2.621  0.5846 -0.2246 -0.9536
  108SAPE   H4S11122   1.020   3.652   2.546  1.7713  0.8464 -0.4399
  108SAPE   C2511123   0.999   3.713   2.763 -0.2046  0.3011 -0.2058
  108SAPE   H5R11124   1.018   3.798   2.830  0.5650 -0.4341  0.5519
  108SAPE   C2611125   0.935   3.606   2.820  0.3583  0.0931 -0.7733
  108SAPE   H6R11126   0.898   3.628   2.921  0.5541  0.0121 -0.6834
  108SAPE   C2711127   0.885   3.486   2.742 -0.3207  0.7260 -0.1823
  108SAPE   H7R11128   0.920   3.482   2.637  0.9750  1.3216  0.2105
  108SAPE   H7S11129   0.773   3.482   2.741 -0.3201  0.6630 -0.8266
  108SAPE   C2811130   0.948   3.361   2.801 -0.1596  0.3037 -0.3625
  108SAPE   H8R11131   1.046   3.331   2.763  0.1114 -2.3677  2.1546
  108SAPE   C2911132   0.906   3.288   2.907 -0.4697 -0.0690 -0.1590
  108SAPE   H9R11133   0.967   3.211   2.957 -0.4304 -1.3696 -2.1136
  108SAPE  C21011134   0.775   3.307   2.987 -0.4105 -0.0127  0.9436
  108SAPE  H10R11135   0.720   3.398   2.955 -0.2040  0.5137  2.0236
  108SAPE  H10S11136   0.804   3.338   3.090 -0.2583 -1.1646  1.2697
  108SAPE  C21111137   0.697   3.174   2.975  0.4507 -0.9268  0.0456
  108SAPE  H11R11138   0.735   3.120   2.887  0.2406  0.3602 -0.8673
  108SAPE  C21211139   0.630   3.109   3.072  0.5164  0.7362  0.1965
  108SAPE  H12R11140   0.589   3.008   3.056  1.8367  0.2611 -0.3003
  108SAPE  C21311141   0.620   3.137   3.221  0.6528 -0.1056 -0.3009
  108SAPE  H13R11142   0.641   3.245   3.241 -1.5416  0.5613 -1.3439
  108SAPE  H13S11143   0.703   3.084   3.274  0.6159 -1.9676 -2.0179
  108SAPE  C21411144   0.476   3.097   3.270  0.1215 -0.3290  0.1794
  108SAPE  H14R11145   0.390   3.128   3.207  0.0107  1.4017  1.1134
  108SAPE  C21511146   0.453   3.034   3.388 -0.1020 -0.1271  0.5560
  108SAPE  H15R11147   0.353   3.004   3.422  0.5267 -1.5701  1.2089
  108SAPE  C21611148   0.560   2.989   3.488 -0.1577  0.5281  0.5513
  108SAPE  H16R11149   0.663   2.987   3.447  0.4971  0.2124  2.1108
  108SAPE  H16S11150   0.531   2.888   3.525 -1.5258  0.7863  0.2259
  108SAPE  C21711151   0.562   3.080   3.614 -0.3592 -0.0386 -0.6871
  108SAPE  H17R11152   0.467   3.059   3.668 -0.4550 -1.3277 -1.3202
  108SAPE  H17S11153   0.556   3.186   3.582 -2.1853  0.2855  0.5433
  108SAPE  C21811154   0.683   3.048   3.700 -0.3011  0.2811 -0.2656
  108SAPE  H18R11155   0.762   3.094   3.637 -2.4236  1.3893 -2.2563
  108SAPE  H18S11156   0.694   2.939   3.718  0.2773  0.6916  2.3253
  108SAPE  C21911157   0.672   3.106   3.841  0.0242  0.5466  0.1166
  108SAPE  H19R11158   0.581   3.055   3.879 -1.6472  2.3063 -1.3167
  108SAPE  H19S11159   0.644   3.213   3.847  1.9838  1.0402  1.1508
  108SAPE  C22011160   0.792   3.088   3.933  0.3585  0.1765  0.2715
  108SAPE  H20R11161   0.799   2.979   3.952 -4.7714 -0.4027  0.2978
  108SAPE  H20S11162   0.781   3.143   4.029 -3.2946 -0.4030  0.3577
  108SAPE  H20T11163   0.872   3.136   3.874 -1.0959  1.2309 -0.9337
  108SAPE   C3311164  -0.011   4.228   2.701 -0.2678 -0.5183  0.0915
  108SAPE   H3X11165  -0.100   4.286   2.670  0.8453  0.6877 -1.0038
  108SAPE   H3Y11166   0.020   4.275   2.797 -0.6718  0.6968 -0.3610
  108SAPE   C3411167  -0.045   4.082   2.728 -0.4908  0.0799 -0.7512
  108SAPE   H4X11168   0.050   4.043   2.770 -0.3221  2.0633  0.8865
  108SAPE   H4Y11169  -0.087   4.032   2.638 -0.5650  1.1625 -1.3281
  108SAPE   C3511170  -0.136   4.064   2.850  0.1889  0.1141 -0.1069
  108SAPE   H5X11171  -0.095   4.125   2.933  1.7932  0.9536 -1.4650
  108SAPE   H5Y11172  -0.230   4.122   2.836  0.8784  1.2256 -0.1995
  108SAPE   C3611173  -0.173   3.924   2.891 -1.0423  0.3150  0.1560
  108SAPE   H6X11174  -0.080   3.864   2.894 -0.7431  0.5694 -2.1858
  108SAPE   H6Y11175  -0.233   3.873   2.813 -0.0523 -2.0898  0.8699
  108SAPE   C3711176  -0.252   3.915   3.017 -1.0012 -0.1997  0.5300
  108SAPE   H7X11177  -0.334   3.989   3.010  1.0874  2.1647 -0.2784
  108SAPE   H7Y11178  -0.186   3.942   3.102 -2.4984  2.0148  1.0896
  108SAPE   C3811179  -0.318   3.776   3.038 -0.2653 -0.0945 -0.1502
  108SAPE   H8X11180  -0.336   3.725   2.941 -1.7992  0.0350  0.0527
  108SAPE   H8Y11181  -0.419   3.800   3.076 -0.5003 -0.1374 -0.7331
  108SAPE   C3911182  -0.253   3.690   3.147  0.2936 -0.2763 -0.2966
  108SAPE   H9X11183  -0.322   3.604   3.157  0.3779 -0.5819 -1.9272
  108SAPE   H9Y11184  -0.250   3.739   3.246  2.8798  0.0570 -0.4673
  108SAPE  C31011185  -0.120   3.631   3.103  0.0754  0.1726  0.0229
  108SAPE  H10X11186  -0.057   3.721   3.086 -1.0309  0.7379 -1.2070
  108SAPE  H10Y11187  -0.129   3.580   3.005  0.8779 -0.2539  0.1584
  108SAPE  C31111188  -0.050   3.552   3.214  0.1590  0.8474  0.6088
  108SAPE  H11X11189  -0.128   3.478   3.241 -3.2374  4.0684  0.5819
  108SAPE  H11Y11190  -0.039   3.611   3.307 -0.5674 -1.7296  2.4323
  108SAPE  C31211191   0.078   3.487   3.169  0.0933 -0.4018 -0.7645
  108SAPE  H12X11192   0.152   3.570   3.174  0.2929 -0.5993 -0.3833
  108SAPE  H12Y11193   0.068   3.459   3.062 -1.8224 -1.4865 -0.3380
  108SAPE  C31311194   0.113   3.362   3.253 -0.1214 -0.6797  0.0735
  108SAPE  H13X11195   0.093   3.392   3.358 -0.5868  1.0993 -0.4895
  108SAPE  H13Y11196   0.220   3.334   3.241  0.2679  0.8903 -0.3478
  108SAPE  C31411197   0.030   3.231   3.218 -0.0074 -0.3300 -0.4473
  108SAPE  H14X11198   0.073   3.187   3.126 -1.7029 -1.1103 -0.9133
  108SAPE  H14Y11199  -0.072   3.265   3.190 -0.6125 -2.2172 -0.6759
  108SAPE  C31511200   0.021   3.131   3.331  0.4890  1.3837 -0.4894
  108SAPE  H15X11201  -0.074   3.143   3.387  1.8545  0.0850  2.3535
  108SAPE  H15Y11202   0.094   3.154   3.412  0.1948  1.2205 -0.1724
  108SAPE  C31611203   0.031   2.984   3.272  0.3400 -0.9531  0.2883
  108SAPE  H16X11204   0.113   2.958   3.202  1.1767 -0.0226  0.8924
  108SAPE  H16Y11205  -0.062   2.958   3.217  0.2563  1.0767 -0.6252
  108SAPE  C31711206   0.044   2.879   3.375 -0.0491 -0.1567 -0.3953
  108SAPE  H17X11207  -0.040   2.903   3.445  1.4034  0.9760  1.0372
  108SAPE  H17Y11208   0.139   2.901   3.428 -0.9648  2.5314  0.2736
  108SAPE  C31811209   0.047   2.737   3.326  0.2809  0.2436 -0.1120
  108SAPE  H18X11210  -0.043   2.727   3.261 -0.3269  0.8459  0.6094
  108SAPE  H18Y11211   0.060   2.667   3.412  0.1825 -3.0726 -2.5807
  108SAPE  H18Z11212   0.133   2.708   3.262  1.0297 -2.0231  1.7642
  109SAPE     N11213   4.918   1.500   2.017 -0.5370  0.3149 -0.4707
  109SAPE   HN111214   4.890   1.595   2.049  1.2187  0.2437  1.4863
  109SAPE   HN211215   4.872   1.472   1.928  0.0533 -0.1375 -0.6365
  109SAPE   HN311216   4.878   1.443   2.095  0.5289  0.3425  0.1192
  109SAPE   C1211217   5.068   1.494   2.002 -1.0087 -0.7672  0.3025
  109SAPE  H12A11218   5.120   1.472   2.098 -0.2956 -0.5834 -0.0371
  109SAPE  H12B11219   5.098   1.595   1.965 -0.4976 -0.9032  0.3363
  109SAPE   C1111220   5.112   1.400   1.885 -0.0134  0.9367 -0.0211
  109SAPE  H11A11221   5.218   1.422   1.860 -0.1214  0.1005 -1.3170
  109SAPE  H11B11222   5.050   1.420   1.796 -0.6127 -1.3925 -0.1827
  109SAPE     P11223   4.982   1.172   1.876  0.4857 -0.0203 -0.2581
  109SAPE   O1311224   4.957   1.201   1.732 -1.1613  0.5488  0.5973
  109SAPE   O1411225   5.027   1.036   1.910  0.1743  0.3073  0.1686
  109SAPE   O1211226   5.100   1.261   1.924 -0.2103 -0.5040 -0.0871
  109SAPE   O1111227   4.872   1.218   1.971  0.4472 -0.1293 -0.0347
  109SAPE    C111228   4.754   1.133   1.986 -0.3596 -0.4920  0.1547
  109SAPE    HA11229   4.704   1.125   1.887 -1.5057  0.9789  0.5833
  109SAPE    HB11230   4.777   1.030   2.022  1.1779 -0.7192 -1.3890
  109SAPE    C211231   4.649   1.203   2.087  0.2352 -0.1663  0.5158
  109SAPE    HS11232   4.641   1.311   2.060 -0.4653  0.1179  1.7921
  109SAPE   O2111233   4.696   1.179   2.222 -0.3585 -0.0650  0.6237
  109SAPE   C2111234   4.780   1.269   2.281  1.5423  0.2841 -0.1967
  109SAPE   O2211235   4.807   1.378   2.236  0.3567  0.3747 -0.1165
  109SAPE   C2211236   4.851   1.206   2.405  0.8094 -1.4889 -0.3475
  109SAPE   H2R11237   4.789   1.247   2.488  1.7736  1.8576 -1.1237
  109SAPE   H2S11238   4.847   1.095   2.404  2.6587 -1.5940  0.2922
  109SAPE    C311239   4.511   1.136   2.067  0.5535 -0.4992 -0.4995
  109SAPE    HX11240   4.518   1.026   2.075 -0.3161 -0.4903  0.5385
  109SAPE    HY11241   4.473   1.161   1.965  0.4960  3.7145  0.3718
  109SAPE   O3111242   4.421   1.201   2.163  0.8030  0.7373  0.6507
  109SAPE   C3111243   4.387   1.123   2.269 -0.1559  0.0947 -0.5814
  109SAPE   O3211244   4.418   1.005   2.288  0.3605 -0.4961  0.0949
  109SAPE   C3211245   4.319   1.213   2.368  0.3176  0.8756  0.3212
  109SAPE   H2X11246   4.213   1.183   2.366  0.8933 -1.4671  1.6749
  109SAPE   H2Y11247   4.329   1.315   2.324  0.2479 -0.3457 -2.7897
  109SAPE   C2311248   5.002   1.245   2.418 -0.3160  1.1170  0.6974
  109SAPE   H3R11249   5.061   1.188   2.492  1.2725 -2.5849 -3.0190
  109SAPE   H3S11250   4.998   1.355   2.436  0.0500  1.1446  0.6191
  109SAPE   C2411251   5.088   1.224   2.290  0.1048  0.4006 -0.6101
  109SAPE   H4R11252   5.179   1.287   2.301 -0.0235  0.5765 -0.5484
  109SAPE   H4S11253   5.035   1.259   2.199  0.4238  1.1181 -0.5310
  109SAPE   C2511254   5.132   1.076   2.269 -0.0587 -0.0821 -0.1005
  109SAPE   H5R11255   5.062   1.010   2.215  0.1287  0.1451 -0.6290
  109SAPE   C2611256   5.258   1.028   2.300  0.2993 -0.4737  0.6631
  109SAPE   H6R11257   5.282   0.926   2.267  0.3737  0.1169 -1.2591
  109SAPE   C2711258   5.379   1.090   2.363  0.3866 -0.4621 -0.1695
  109SAPE   H7R11259   5.411   1.025   2.447  0.2568  0.5841  0.7255
  109SAPE   H7S11260   5.354   1.187   2.413  4.1403  0.8954 -0.5937
  109SAPE   C2811261   5.489   1.095   2.263  0.5235  0.1865  0.1585
  109SAPE   H8R11262   5.456   1.081   2.159  0.9758  2.2621 -0.3019
  109SAPE   C2911263   5.616   1.115   2.279  0.5266  0.1214  0.2659
  109SAPE   H9R11264   5.678   1.118   2.188  2.2835  1.4956  1.4499
  109SAPE  C21011265   5.688   1.140   2.405  0.8363 -0.9282 -0.1641
  109SAPE  H10R11266   5.632   1.106   2.494  1.1367 -1.0913 -0.0373
  109SAPE  H10S11267   5.721   1.245   2.420 -0.7112 -0.2210 -1.3352
  109SAPE  C21111268   5.818   1.062   2.399 -0.4157  0.9502  0.2047
  109SAPE  H11R11269   5.869   1.088   2.305  0.5007 -1.1175  0.0741
  109SAPE  C21211270   5.860   0.956   2.477  0.7887  0.5481 -0.2176
  109SAPE  H12R11271   5.953   0.904   2.451  0.7321 -0.0616  0.7619
  109SAPE  C21311272   5.790   0.899   2.595 -0.4015  0.4295 -0.1419
  109SAPE  H13R11273   5.787   0.788   2.585  0.7798  0.1635  1.9194
  109SAPE  H13S11274   5.680   0.914   2.592 -1.0396 -2.7983  1.9718
  109SAPE  C21411275   5.837   0.948   2.727  0.4311  0.5736  0.0757
  109SAPE  H14R11276   5.902   1.037   2.722 -1.2619  1.9332  1.0832
  109SAPE  C21511277   5.832   0.891   2.850 -0.4071  0.9835  0.0874
  109SAPE  H15R11278   5.861   0.951   2.938 -0.1995 -0.7272  1.2294
  109SAPE  C21611279   5.760   0.757   2.874 -0.1096  0.1264 -0.1097
  109SAPE  H16R11280   5.796   0.708   2.967  0.3627 -1.0110 -0.8533
  109SAPE  H16S11281   5.778   0.679   2.796 -0.7461  0.1882 -0.3226
  109SAPE  C21711282   5.605   0.783   2.881  0.1412 -0.1138 -0.2777
  109SAPE  H17R11283   5.554   0.832   2.796  1.6531  2.6141  0.2570
  109SAPE  H17S11284   5.592   0.849   2.970  2.8493  0.4581 -0.2166
  109SAPE  C21811285   5.530   0.648   2.900 -0.3311 -0.3140  0.4117
  109SAPE  H18R11286   5.593   0.556   2.892  2.1333  1.2501  0.7072
  109SAPE  H18S11287   5.456   0.634   2.818  1.0883  1.1963 -1.2154
  109SAPE  C21911288   5.464   0.632   3.040  0.5483 -0.8810  0.0978
  109SAPE  H19R11289   5.547   0.623   3.114 -1.5503 -1.3786  2.5416
  109SAPE  H19S11290   5.402   0.541   3.043 -1.4155  0.4255  0.8652
  109SAPE  C22011291   5.382   0.751   3.088 -0.1276  0.9597  0.3235
  109SAPE  H20R11292   5.345   0.734   3.191  0.8355 -4.6565  0.0477
  109SAPE  H20S11293   5.300   0.774   3.017  1.3830  0.6912 -1.6271
  109SAPE  H20T11294   5.430   0.851   3.083 -0.1772  0.9236 -1.5662
  109SAPE   C3311295   4.369   1.181   2.509 -0.3418  0.2689  0.3254
  109SAPE   H3X11296   4.479   1.195   2.509  0.1855 -2.9466 -1.3697
  109SAPE   H3Y11297   4.363   1.071   2.527 -1.1997  0.4723  1.3551
  109SAPE   C3411298   4.321   1.262   2.626  0.6451  0.6431 -0.2085
  109SAPE   H4X11299   4.213   1.241   2.642  0.9934  0.0806  1.6458
  109SAPE   H4Y11300   4.343   1.364   2.590  2.1052  0.5016  0.2312
  109SAPE   C3511301   4.393   1.237   2.761  0.6760  0.3377 -0.3808
  109SAPE   H5X11302   4.502   1.243   2.741  0.5346  0.8650 -1.0672
  109SAPE   H5Y11303   4.367   1.135   2.795 -0.0089 -0.1604 -2.2610
  109SAPE   C3611304   4.370   1.335   2.873  0.2632  0.0933 -0.3107
  109SAPE   H6X11305   4.276   1.299   2.921  1.3165 -2.5323 -0.0658
  109SAPE   H6Y11306   4.345   1.436   2.833  0.3577 -0.4307 -1.7619
  109SAPE   C3711307   4.480   1.354   2.977  0.1757 -0.8036  0.1233
  109SAPE   H7X11308   4.566   1.391   2.919  0.1963  0.7254  1.0794
  109SAPE   H7Y11309   4.500   1.257   3.028 -0.6047 -0.7328  0.5896
  109SAPE   C3811310   4.447   1.474   3.082 -0.3888  0.3346  0.6124
  109SAPE   H8X11311   4.413   1.561   3.021  1.6486  0.8381  0.1309
  109SAPE   H8Y11312   4.539   1.508   3.133  1.4369 -2.5475 -0.5174
  109SAPE   C3911313   4.330   1.438   3.183 -0.1499  0.2695 -0.7829
  109SAPE   H9X11314   4.235   1.423   3.126 -1.0054  1.1494  0.3712
  109SAPE   H9Y11315   4.316   1.528   3.245  1.8466 -0.8722  1.4777
  109SAPE  C31011316   4.356   1.309   3.265 -1.0173  0.3150  0.0825
  109SAPE  H10X11317   4.436   1.311   3.341  0.0483 -1.9127 -0.9031
  109SAPE  H10Y11318   4.382   1.228   3.193 -0.2627  0.0528  0.6404
  109SAPE  C31111319   4.234   1.270   3.347 -0.0527  0.0463  1.6605
  109SAPE  H11X11320   4.237   1.165   3.381 -2.6547 -0.6663 -0.0436
  109SAPE  H11Y11321   4.153   1.276   3.271  2.3711  1.0530 -0.9761
  109SAPE  C31211322   4.197   1.368   3.465 -0.2117 -0.7932 -0.2160
  109SAPE  H12X11323   4.190   1.473   3.430  0.4857 -0.3589  0.8949
  109SAPE  H12Y11324   4.280   1.347   3.536 -0.7336 -1.8898  0.1020
  109SAPE  C31311325   4.070   1.338   3.539 -0.0531 -0.0692 -0.0416
  109SAPE  H13X11326   4.072   1.230   3.565 -1.9891 -0.4416 -1.2687
  109SAPE  H13Y11327   3.990   1.370   3.469 -0.3554  0.0945  0.3802
  109SAPE  C31411328   4.045   1.427   3.671  0.5796 -0.0657 -0.5604
  109SAPE  H14X11329   3.953   1.388   3.719 -0.2025  0.6702 -1.4280
  109SAPE  H14Y11330   4.028   1.532   3.639  0.1977  0.2497  0.6255
  109SAPE  C31511331   4.156   1.407   3.766 -0.1417  0.0725 -0.4964
  109SAPE  H15X11332   4.254   1.449   3.734 -0.9391  0.9523 -1.9185
  109SAPE  H15Y11333   4.157   1.299   3.791 -3.2264 -0.5837 -2.6245
  109SAPE  C31611334   4.129   1.477   3.902  0.6833  0.9224  0.0369
  109SAPE  H16X11335   4.035   1.433   3.943  2.2193 -1.9998  0.6824
  109SAPE  H16Y11336   4.114   1.585   3.880  0.5373  0.5858 -1.6201
  109SAPE  C31711337   4.237   1.454   4.002 -0.2560  0.1730 -0.5349
  109SAPE  H17X11338   4.329   1.490   3.951 -0.9637  1.7793 -0.7274
  109SAPE  H17Y11339   4.256   1.346   4.020 -1.3086  0.4432  3.0877
  109SAPE  C31811340   4.202   1.525   4.138  0.2389 -0.5314 -0.5266
  109SAPE  H18X11341   4.280   1.503   4.214  1.2458  0.9361 -1.0678
  109SAPE  H18Y11342   4.100   1.501   4.172 -0.6520  2.4065 -0.8266
  109SAPE  H18Z11343   4.212   1.633   4.112  0.3735 -0.3745  0.1751
  110SAPE     N11344   3.134   6.769   1.898  0.1659 -0.9245  0.6490
  110SAPE   HN111345   3.185   6.858   1.877 -4.6642  2.2787  0.8224
  110SAPE   HN211346   3.148   6.713   1.812  3.1332 -0.2820  0.6074
  110SAPE   HN311347   3.039   6.807   1.915 -0.0161 -0.4067 -1.2524
  110SAPE   C1211348   3.184   6.690   2.023 -0.2929  0.6279 -0.3474
  110SAPE  H12A11349   3.120   6.600   2.034 -0.7193  1.1400  1.8294
  110SAPE  H12B11350   3.174   6.756   2.111 -0.3426  0.8545 -0.5215
  110SAPE   C1111351   3.336   6.657   2.000 -0.2628  0.0462  0.1222
  110SAPE  H11A11352   3.381   6.624   2.096  2.1128  2.6731  0.0635
  110SAPE  H11B11353   3.386   6.755   1.982 -0.8263  0.7831  2.2696
  110SAPE     P11354   3.349   6.406   1.916  0.4623 -0.0330  0.2041
  110SAPE   O1311355   3.214   6.371   1.956  0.7498  0.1345  0.2307
  110SAPE   O1411356   3.402   6.324   1.802 -0.0571  0.2604 -0.1705
  110SAPE   O1211357   3.364   6.567   1.888  0.3614 -0.3016 -0.5042
  110SAPE   O1111358   3.439   6.385   2.044  0.2245  0.0095 -0.1982
  110SAPE    C111359   3.414   6.265   2.120 -0.8881  0.1172 -0.2079
  110SAPE    HA11360   3.387   6.175   2.060  0.4470 -0.4051 -0.0593
  110SAPE    HB11361   3.506   6.226   2.169 -1.6349 -0.5297  0.6942
  110SAPE    C211362   3.319   6.293   2.231  0.7511  0.3646  0.5358
  110SAPE    HS11363   3.222   6.319   2.184 -0.0197 -1.0040  1.2901
  110SAPE   O2111364   3.366   6.399   2.314  0.3008  0.4797 -0.0349
  110SAPE   C2111365   3.272   6.478   2.368  0.1579 -0.6792  0.1082
  110SAPE   O2211366   3.152   6.472   2.347 -0.1657  0.0518 -0.3926
  110SAPE   C2211367   3.341   6.573   2.467 -0.5901  0.1263  0.1113
  110SAPE   H2R11368   3.336   6.523   2.566  0.7608  0.9239  0.6089
  110SAPE   H2S11369   3.444   6.596   2.433  0.3686 -3.1075  0.4967
  110SAPE    C311370   3.298   6.167   2.319 -0.0053 -0.3170 -0.0363
  110SAPE    HX11371   3.257   6.083   2.259  1.2513 -2.4430  1.8984
  110SAPE    HY11372   3.394   6.123   2.353  0.2050 -0.5991 -0.9556
  110SAPE   O3111373   3.213   6.185   2.435 -0.8066 -0.3348 -0.7337
  110SAPE   C3111374   3.082   6.165   2.430 -0.0868  0.4710  0.3859
  110SAPE   O3211375   3.019   6.144   2.330  0.1540  0.2246  0.6575
  110SAPE   C3211376   3.026   6.186   2.566  0.7292  0.0299  0.2846
  110SAPE   H2X11377   2.971   6.281   2.554 -0.8216 -0.8490  0.2130
  110SAPE   H2Y11378   3.113   6.190   2.636  0.4814  0.2752  0.5787
  110SAPE   C2311379   3.269   6.711   2.490  0.4131 -0.1620 -0.0174
  110SAPE   H3R11380   3.163   6.681   2.475  0.6163 -1.0234  0.2234
  110SAPE   H3S11381   3.309   6.778   2.411 -0.2084  0.3221  0.0705
  110SAPE   C2411382   3.299   6.754   2.634 -0.1478  0.1487  0.3917
  110SAPE   H4R11383   3.409   6.760   2.650 -0.0697 -1.9348  0.8121
  110SAPE   H4S11384   3.272   6.681   2.714 -1.5760  1.9227  1.6331
  110SAPE   C2511385   3.246   6.887   2.668  0.3016 -0.7214 -0.3954
  110SAPE   H5R11386   3.249   6.954   2.580  2.1635 -2.5845 -1.8359
  110SAPE   C2611387   3.197   6.942   2.781 -0.1517 -0.1071  0.2416
  110SAPE   H6R11388   3.187   7.051   2.793  1.4856 -0.0542  1.4889
  110SAPE   C2711389   3.171   6.873   2.906 -0.3167 -0.0024 -0.2981
  110SAPE   H7R11390   3.163   6.763   2.888  1.6306 -0.1718 -0.4033
  110SAPE   H7S11391   3.076   6.907   2.952 -0.8460 -0.3464 -1.1058
  110SAPE   C2811392   3.282   6.880   3.008  0.1438 -0.8520  0.9784
  110SAPE   H8R11393   3.384   6.889   2.970  0.3095 -2.0271  1.1001
  110SAPE   C2911394   3.261   6.873   3.141 -0.0809 -0.5808  0.0754
  110SAPE   H9R11395   3.350   6.867   3.205  0.8962 -0.7838 -1.2532
  110SAPE  C21011396   3.135   6.863   3.217  0.2501  0.3608  0.1564
  110SAPE  H10R11397   3.124   6.756   3.247  2.0690  0.3546  0.9468
  110SAPE  H10S11398   3.047   6.868   3.150  1.1434  0.2541 -1.0472
  110SAPE  C21111399   3.117   6.952   3.337 -0.3392  0.0322  0.1171
  110SAPE  H11R11400   3.072   7.051   3.320 -3.7080 -0.7941  2.9658
  110SAPE  C21211401   3.147   6.918   3.460  0.1494 -0.4149 -0.7785
  110SAPE  H12R11402   3.128   6.984   3.545  1.1421 -0.9834 -0.0853
  110SAPE  C21311403   3.184   6.775   3.491 -0.4536  0.2466  0.5761
  110SAPE  H13R11404   3.236   6.727   3.405 -1.9979 -0.5755  0.0550
  110SAPE  H13S11405   3.099   6.706   3.511  0.2275 -1.2864 -1.4595
  110SAPE  C21411406   3.277   6.759   3.613  0.5434  0.7853 -0.0024
  110SAPE  H14R11407   3.227   6.741   3.709  0.7295  0.9675  0.1312
  110SAPE  C21511408   3.409   6.782   3.606 -0.2428 -0.4249  0.5247
  110SAPE  H15R11409   3.465   6.791   3.700  0.0459  1.6635  0.2074
  110SAPE  C21611410   3.492   6.810   3.476  0.6098 -0.0304 -0.9961
  110SAPE  H16R11411   3.472   6.915   3.445 -1.6305 -0.9404 -2.9452
  110SAPE  H16S11412   3.452   6.737   3.403  0.2388 -2.1997  1.2556
  110SAPE  C21711413   3.645   6.775   3.492  0.2022  0.3597  0.2245
  110SAPE  H17R11414   3.700   6.792   3.396 -0.7504  0.2563 -0.3554
  110SAPE  H17S11415   3.640   6.666   3.510  0.8513  0.4809  1.2166
  110SAPE  C21811416   3.712   6.846   3.611  0.1266 -0.0899  0.4988
  110SAPE  H18R11417   3.681   6.788   3.700  1.6645 -1.5586  0.1367
  110SAPE  H18S11418   3.681   6.951   3.626  0.9489  0.3889 -0.8831
  110SAPE  C21911419   3.868   6.850   3.608 -0.3408  0.0084  0.1347
  110SAPE  H19R11420   3.910   6.911   3.526 -0.6105  1.0416  0.7464
  110SAPE  H19S11421   3.885   6.744   3.578 -1.3946  0.2530 -1.4366
  110SAPE  C22011422   3.933   6.871   3.745 -0.6322 -0.5720  0.3761
  110SAPE  H20R11423   3.870   6.826   3.826  0.7815 -1.5591  0.9705
  110SAPE  H20S11424   3.955   6.977   3.771 -1.1920  0.9448 -4.4493
  110SAPE  H20T11425   4.035   6.829   3.747 -0.8252 -1.0484  0.4208
  110SAPE   C3311426   2.925   6.077   2.606  0.4596  0.0161  0.0385
  110SAPE   H3X11427   2.957   5.971   2.614 -0.7141 -0.3595  0.0758
  110SAPE   H3Y11428   2.845   6.086   2.529 -0.7658 -0.9183  1.1388
  110SAPE   C3411429   2.870   6.103   2.749 -0.4724 -0.3326 -0.5323
  110SAPE   H4X11430   2.835   6.209   2.748  0.8027  0.1577  1.1406
  110SAPE   H4Y11431   2.956   6.104   2.819  0.3506 -0.4059 -1.5233
  110SAPE   C3511432   2.757   6.013   2.795 -0.2543 -0.4973  0.4911
  110SAPE   H5X11433   2.789   5.907   2.804  0.3629 -0.3231  0.4112
  110SAPE   H5Y11434   2.667   6.026   2.730 -0.3657 -0.6650  0.6091
  110SAPE   C3611435   2.704   6.052   2.930 -0.6446 -0.4575  0.1730
  110SAPE   H6X11436   2.599   6.016   2.943 -1.9863  2.6836 -0.8806
  110SAPE   H6Y11437   2.696   6.163   2.932 -0.2113 -0.4216  0.0280
  110SAPE   C3711438   2.780   5.997   3.049  0.4199 -0.4568 -0.1304
  110SAPE   H7X11439   2.876   6.052   3.043  0.9374 -1.1163  1.5959
  110SAPE   H7Y11440   2.802   5.888   3.036  0.8716 -0.7070  2.3014
  110SAPE   C3811441   2.710   6.036   3.184 -0.6208  0.1894 -0.3665
  110SAPE   H8X11442   2.611   5.990   3.202  0.0171 -0.7922  0.7435
  110SAPE   H8Y11443   2.674   6.141   3.179  1.0692  0.7867 -0.5984
  110SAPE   C3911444   2.791   6.001   3.315  0.0837  0.4080  0.0065
  110SAPE   H9X11445   2.879   6.069   3.323  2.2159 -2.0923 -0.7484
  110SAPE   H9Y11446   2.831   5.897   3.306  1.1767  0.5522  2.4482
  110SAPE  C31011447   2.717   6.020   3.453  0.1216  0.1838  0.8541
  110SAPE  H10X11448   2.628   5.955   3.446  2.0213 -2.3708 -4.5047
  110SAPE  H10Y11449   2.685   6.126   3.461  0.1190  0.1556  1.2466
  110SAPE  C31111450   2.805   5.974   3.571 -0.2410 -0.3736 -0.4759
  110SAPE  H11X11451   2.905   6.022   3.567  0.1409 -1.0719  0.2776
  110SAPE  H11Y11452   2.832   5.866   3.561 -0.7178 -0.4807 -0.6415
  110SAPE  C31211453   2.735   6.000   3.707 -0.2027  0.3467  0.1855
  110SAPE  H12X11454   2.629   6.005   3.673 -0.1011 -1.3040 -0.4725
  110SAPE  H12Y11455   2.769   6.097   3.749  0.8045 -0.2872  0.8762
  110SAPE  C31311456   2.752   5.890   3.811  0.2384  0.1954  0.6017
  110SAPE  H13X11457   2.722   5.794   3.762  0.9612 -0.1618  0.8502
  110SAPE  H13Y11458   2.686   5.902   3.899  1.0332  1.7522  1.0117
  110SAPE  C31411459   2.894   5.882   3.860  0.3993 -0.1573  0.7156
  110SAPE  H14X11460   2.926   5.988   3.875  2.7122 -0.7029  0.0819
  110SAPE  H14Y11461   2.955   5.836   3.780 -0.8209  0.3939 -0.5631
  110SAPE  C31511462   2.917   5.800   3.989 -0.4581  0.4333  0.4954
  110SAPE  H15X11463   2.908   5.690   3.971  0.5100 -0.0894  2.8910
  110SAPE  H15Y11464   2.835   5.826   4.060  0.0682 -1.7732  2.0131
  110SAPE  C31611465   3.056   5.831   4.039  0.7589  0.5601 -0.1128
  110SAPE  H16X11466   3.051   5.941   4.046  0.3461  0.6815 -1.8997
  110SAPE  H16Y11467   3.129   5.792   3.965 -0.8410 -3.0031 -0.0381
  110SAPE  C31711468   3.083   5.776   4.177  0.1472  0.0878 -0.1154
  110SAPE  H17X11469   2.993   5.792   4.241 -1.3873 -1.3277 -1.8090
  110SAPE  H17Y11470   3.158   5.840   4.228  0.2071 -0.2552  0.2347
  110SAPE  C31811471   3.124   5.628   4.185 -0.5539  0.2212 -0.1670
  110SAPE  H18X11472   3.047   5.567   4.132 -0.3986  0.8411 -1.1414
  110SAPE  H18Y11473   3.129   5.597   4.291  0.3323 -1.8087 -0.7541
  110SAPE  H18Z11474   3.225   5.614   4.140 -0.3315 -0.9836  0.6498
  111SAPE     N11475   2.173   6.700   1.778 -0.1681 -0.6069 -0.2470
  111SAPE   HN111476   2.217   6.704   1.684  0.2794 -1.2235 -0.0712
  111SAPE   HN211477   2.230   6.752   1.848 -0.4103 -0.2335 -0.3275
  111SAPE   HN311478   2.163   6.599   1.802  0.2576 -1.1135 -2.0849
  111SAPE   C1211479   2.033   6.773   1.766 -0.2964 -0.1964  0.2266
  111SAPE  H12A11480   1.984   6.730   1.855  1.1337 -0.9258  0.6917
  111SAPE  H12B11481   1.993   6.730   1.672  1.4489 -0.3958 -0.4779
  111SAPE   C1111482   2.061   6.927   1.762 -0.8090  0.2593  0.2350
  111SAPE  H11A11483   1.963   6.976   1.748 -0.1421  1.1623 -1.6542
  111SAPE  H11B11484   2.118   6.964   1.674 -1.0379  0.5846  0.2224
  111SAPE     P11485   2.192   7.094   1.905  0.2525 -0.4609  0.1464
  111SAPE   O1311486   2.333   7.077   1.875 -0.1050 -0.0677 -0.0921
  111SAPE   O1411487   2.128   7.192   1.821  0.1637  0.4320 -0.0927
  111SAPE   O1211488   2.124   6.960   1.884  0.5232 -0.2077 -0.0681
  111SAPE   O1111489   2.168   7.120   2.059 -0.1288  0.4134 -0.1488
  111SAPE    C111490   2.242   7.037   2.148 -0.0849  0.1733  0.1989
  111SAPE    HA11491   2.176   6.953   2.180 -1.4422  1.0516 -0.2149
  111SAPE    HB11492   2.333   6.986   2.108 -0.3111  0.9615 -1.3961
  111SAPE    C211493   2.287   7.131   2.257 -0.1279 -0.3166 -0.7183
  111SAPE    HS11494   2.373   7.190   2.220 -1.6107  0.9652 -2.2845
  111SAPE   O2111495   2.323   7.051   2.368 -0.2094 -0.0810 -0.0692
  111SAPE   C2111496   2.395   7.100   2.466  0.0875  0.0811  0.7928
  111SAPE   O2211497   2.450   7.209   2.462 -0.2053  0.0808  0.3967
  111SAPE   C2211498   2.393   7.005   2.587  0.0000  0.1042  0.1153
  111SAPE   H2R11499   2.290   6.964   2.592 -1.1518  2.8924  2.2049
  111SAPE   H2S11500   2.468   6.927   2.564  0.1424  0.4798 -0.7273
  111SAPE    C311501   2.173   7.235   2.296 -0.3036  0.4792  0.1664
  111SAPE    HX11502   2.086   7.167   2.309  0.5836 -0.9989 -1.3827
  111SAPE    HY11503   2.145   7.296   2.207  0.3127  1.6121  0.7311
  111SAPE   O3111504   2.203   7.311   2.421  0.5783 -0.6280 -0.1989
  111SAPE   C3111505   2.291   7.410   2.403  0.7629  0.3434  0.6817
  111SAPE   O3211506   2.329   7.444   2.290  0.3119 -0.4631  0.1081
  111SAPE   C3211507   2.317   7.475   2.539  0.2511 -0.2070  1.1789
  111SAPE   H2X11508   2.391   7.407   2.588 -0.9176 -1.4457  1.2937
  111SAPE   H2Y11509   2.225   7.473   2.601 -0.5051  1.8410  0.1968
  111SAPE   C2311510   2.426   7.072   2.722  0.5116  0.6472  0.2355
  111SAPE   H3R11511   2.340   7.131   2.760 -0.1707 -0.7242  0.8950
  111SAPE   H3S11512   2.521   7.126   2.701  0.5573 -0.1721 -1.9009
  111SAPE   C2411513   2.438   6.965   2.833  0.0486  0.5129 -0.5865
  111SAPE   H4R11514   2.523   6.898   2.810 -0.2566 -1.1819  2.5467
  111SAPE   H4S11515   2.346   6.902   2.823  1.1849 -1.5609  1.0928
  111SAPE   C2511516   2.432   7.027   2.972  0.2363  0.5815 -0.3239
  111SAPE   H5R11517   2.345   7.092   2.993 -0.6570 -0.9414  0.8580
  111SAPE   C2611518   2.519   7.018   3.068 -0.2559 -0.7077  0.6274
  111SAPE   H6R11519   2.506   7.072   3.163  1.1813  1.5620 -0.4028
  111SAPE   C2711520   2.643   6.939   3.059 -0.6736  0.3756 -0.1244
  111SAPE   H7R11521   2.688   6.934   2.958  3.8038 -1.0475  1.6751
  111SAPE   H7S11522   2.607   6.835   3.075 -0.9544  0.4659 -0.1666
  111SAPE   C2811523   2.759   6.966   3.153  0.6018  0.6302 -0.0012
  111SAPE   H8R11524   2.858   6.979   3.108  1.4682 -0.5773  1.4573
  111SAPE   C2911525   2.758   6.946   3.287 -0.0506 -0.4265  0.5155
  111SAPE   H9R11526   2.853   6.959   3.341  0.8431 -2.3519 -0.5127
  111SAPE  C21011527   2.642   6.908   3.371 -0.1434  0.4059 -0.5546
  111SAPE  H10R11528   2.553   6.890   3.307 -0.4091  2.1207 -0.6956
  111SAPE  H10S11529   2.603   6.995   3.427 -0.1226  1.2188 -1.7785
  111SAPE  C21111530   2.673   6.806   3.480  0.4652 -0.1173  0.1906
  111SAPE  H11R11531   2.656   6.702   3.448  4.0693 -0.8105  0.0924
  111SAPE  C21211532   2.717   6.833   3.605 -0.1180 -0.6031 -0.4522
  111SAPE  H12R11533   2.713   6.756   3.683  1.4851 -0.7288 -0.4457
  111SAPE  C21311534   2.754   6.970   3.654 -0.7053  0.3423  0.2656
  111SAPE  H13R11535   2.660   7.000   3.706 -0.6458 -0.3305  0.7733
  111SAPE  H13S11536   2.780   7.045   3.576  2.2983 -1.8001 -1.0034
  111SAPE  C21411537   2.865   6.954   3.760  0.2771 -0.2123  0.4154
  111SAPE  H14R11538   2.897   6.852   3.787 -0.1414 -0.3735  0.3097
  111SAPE  C21511539   2.916   7.043   3.847  0.8586 -0.2600  0.0455
  111SAPE  H15R11540   3.002   7.011   3.908 -0.0738 -1.0789  0.9625
  111SAPE  C21611541   2.886   7.192   3.857  0.5887  0.4507  0.4636
  111SAPE  H16R11542   2.777   7.189   3.878 -0.2855 -2.6001 -3.3932
  111SAPE  H16S11543   2.914   7.247   3.764  1.8441 -0.6586  0.1551
  111SAPE  C21711544   2.959   7.245   3.980 -0.0649  0.6423 -0.2004
  111SAPE  H17R11545   3.066   7.231   3.952  0.0300  0.4469  0.2361
  111SAPE  H17S11546   2.939   7.184   4.071 -0.2461 -0.9835 -1.2944
  111SAPE  C21811547   2.932   7.382   4.033 -0.4979  0.2334 -0.3109
  111SAPE  H18R11548   2.839   7.377   4.095 -0.6997 -0.6773 -0.6613
  111SAPE  H18S11549   2.897   7.458   3.960 -0.5863  1.0540  0.5667
  111SAPE  C21911550   3.048   7.435   4.124 -0.2674 -0.2383  0.4235
  111SAPE  H19R11551   3.138   7.448   4.060 -1.5941  1.1793 -1.2713
  111SAPE  H19S11552   3.072   7.371   4.211 -0.3875 -0.2861  0.4211
  111SAPE  C22011553   3.019   7.571   4.184 -0.2646  0.0149  0.6784
  111SAPE  H20R11554   3.115   7.621   4.208 -0.1165 -0.7514  1.8036
  111SAPE  H20S11555   2.967   7.562   4.282  0.4185  0.1583  1.0589
  111SAPE  H20T11556   2.977   7.636   4.105 -0.4867 -2.0669 -0.9971
  111SAPE   C3311557   2.375   7.618   2.532  0.3031 -0.8036 -0.3910
  111SAPE   H3X11558   2.319   7.672   2.453  2.0477 -0.6843 -1.5867
  111SAPE   H3Y11559   2.474   7.603   2.484 -1.5041 -3.3040 -3.7553
  111SAPE   C3411560   2.389   7.699   2.670  0.5247  0.0253 -0.2125
  111SAPE   H4X11561   2.286   7.719   2.705  1.9767  1.6358  3.6306
  111SAPE   H4Y11562   2.426   7.801   2.645  1.1209 -0.7016 -2.6138
  111SAPE   C3511563   2.467   7.635   2.785 -0.1578  0.0186  0.3766
  111SAPE   H5X11564   2.572   7.608   2.761  0.4588  1.5793  1.1882
  111SAPE   H5Y11565   2.414   7.539   2.803 -1.1188  0.7830  1.8618
  111SAPE   C3611566   2.467   7.700   2.920  0.1556  0.0895 -0.1250
  111SAPE   H6X11567   2.361   7.712   2.951  0.2425  1.6493 -0.3700
  111SAPE   H6Y11568   2.515   7.800   2.910 -2.3950  1.4277  0.0610
  111SAPE   C3711569   2.537   7.615   3.032 -0.1324  0.0350  0.6986
  111SAPE   H7X11570   2.643   7.601   3.004 -0.1140 -1.3441  1.3496
  111SAPE   H7Y11571   2.491   7.513   3.033  0.6608 -0.3353  0.0338
  111SAPE   C3811572   2.519   7.685   3.168 -0.8187  0.2371 -0.0048
  111SAPE   H8X11573   2.418   7.676   3.211 -0.9742  1.5880 -0.0456
  111SAPE   H8Y11574   2.531   7.794   3.149 -1.7093  0.6279  1.5164
  111SAPE   C3911575   2.628   7.646   3.273 -0.0357 -0.2051  0.2310
  111SAPE   H9X11576   2.729   7.662   3.229 -0.9102  0.3268 -1.6667
  111SAPE   H9Y11577   2.628   7.535   3.278 -0.3202 -0.3715 -2.2971
  111SAPE  C31011578   2.619   7.724   3.404 -0.1537  0.1304  0.6021
  111SAPE  H10X11579   2.578   7.824   3.377  0.6151 -0.3275 -2.6316
  111SAPE  H10Y11580   2.720   7.757   3.436  0.8378 -1.3977 -0.7456
  111SAPE  C31111581   2.544   7.650   3.515 -0.1277  1.2310 -0.1017
  111SAPE  H11X11582   2.544   7.726   3.596  1.8186 -2.7738  4.0985
  111SAPE  H11Y11583   2.604   7.566   3.557 -0.4575  0.3949 -1.2412
  111SAPE  C31211584   2.402   7.615   3.472 -0.6382  0.1117  0.2898
  111SAPE  H12X11585   2.398   7.532   3.398  0.6239 -1.0895  1.5019
  111SAPE  H12Y11586   2.364   7.706   3.423 -0.1387 -1.1656 -2.7092
  111SAPE  C31311587   2.324   7.572   3.598  0.2516 -0.3044  0.7832
  111SAPE  H13X11588   2.355   7.639   3.681  0.8990  0.4878 -0.0800
  111SAPE  H13Y11589   2.365   7.471   3.621  1.4838 -0.5511 -2.0775
  111SAPE  C31411590   2.170   7.567   3.588  0.1272  0.1359 -0.8272
  111SAPE  H14X11591   2.141   7.494   3.509 -0.4263 -0.3394 -0.2045
  111SAPE  H14Y11592   2.150   7.672   3.558 -1.0821 -0.0773 -0.8121
  111SAPE  C31511593   2.100   7.540   3.724  0.4319  0.2184  0.6636
  111SAPE  H15X11594   2.139   7.612   3.799  1.2930  0.0020  0.4401
  111SAPE  H15Y11595   2.116   7.438   3.766 -1.0338 -0.8709 -1.2691
  111SAPE  C31611596   1.943   7.570   3.727 -1.1227 -0.1428  0.0018
  111SAPE  H16X11597   1.917   7.670   3.684  1.1084  1.2426  1.6383
  111SAPE  H16Y11598   1.909   7.567   3.832 -1.8484 -1.2476 -0.2519
  111SAPE  C31711599   1.873   7.459   3.657  0.2013  0.5086  0.1361
  111SAPE  H17X11600   1.880   7.363   3.711  3.0884  1.0860  0.9521
  111SAPE  H17Y11601   1.925   7.443   3.560 -1.0393 -1.0477 -0.3124
  111SAPE  C31811602   1.723   7.489   3.637  0.3952  0.4544 -0.2929
  111SAPE  H18X11603   1.698   7.570   3.565 -1.2623  1.1527  0.9860
  111SAPE  H18Y11604   1.674   7.514   3.734  0.1609 -1.0605 -0.0048
  111SAPE  H18Z11605   1.660   7.406   3.599 -1.3144  1.0134  1.1669
  112SAPE     N11606   6.943   5.173   2.004  0.2148 -0.3887 -0.4237
  112SAPE   HN111607   7.042   5.149   1.981  0.2901  0.2629 -0.7917
  112SAPE   HN211608   6.892   5.089   2.038 -1.8747  0.9173 -0.1777
  112SAPE   HN311609   6.888   5.201   1.921 -1.4090 -0.1117  0.6952
  112SAPE   C1211610   6.937   5.287   2.097 -0.1401  0.7778  0.2542
  112SAPE  H12A11611   7.010   5.269   2.179  1.9727  1.8616 -1.3144
  112SAPE  H12B11612   6.833   5.305   2.132  0.4868  4.0222  0.6996
  112SAPE   C1111613   6.971   5.416   2.019 -0.3649 -0.1975  0.5641
  112SAPE  H11A11614   7.081   5.428   2.013 -0.4562  0.2847 -0.2470
  112SAPE  H11B11615   6.938   5.499   2.084  0.9037  0.6927  0.0976
  112SAPE     P11616   6.792   5.530   1.872  0.3989 -0.3700  0.4278
  112SAPE   O1311617   6.862   5.661   1.876 -0.2019  0.0091 -0.4456
  112SAPE   O1411618   6.705   5.507   1.763 -0.5559  0.0173  0.3761
  112SAPE   O1211619   6.901   5.414   1.888  0.1527  0.0808 -0.4320
  112SAPE   O1111620   6.706   5.511   2.004  0.5557 -0.4964 -0.4991
  112SAPE    C111621   6.632   5.626   2.059  0.1761  0.0668  0.2706
  112SAPE    HA11622   6.704   5.692   2.112  1.0828 -1.3179  0.8273
  112SAPE    HB11623   6.587   5.677   1.971 -0.2624 -0.9522 -0.1113
  112SAPE    C211624   6.517   5.582   2.157  0.2095  0.0788 -0.0532
  112SAPE    HS11625   6.473   5.679   2.185  0.8955  0.6417 -0.8760
  112SAPE   O2111626   6.582   5.522   2.271  0.1425 -0.0658 -0.7510
  112SAPE   C2111627   6.655   5.597   2.362  0.3208  0.0001  1.4572
  112SAPE   O2211628   6.662   5.717   2.365  0.0340  0.6890  0.9337
  112SAPE   C2211629   6.723   5.507   2.456  0.3586  0.6386  0.1547
  112SAPE   H2R11630   6.731   5.410   2.404  2.0013  1.5242 -1.3713
  112SAPE   H2S11631   6.830   5.529   2.478  0.1346  2.5929 -0.5404
  112SAPE    C311632   6.418   5.480   2.098 -0.3153  0.5492  0.3306
  112SAPE    HX11633   6.471   5.386   2.071 -1.8998  0.4549 -2.9542
  112SAPE    HY11634   6.379   5.515   2.000 -1.8512 -0.7758  0.4303
  112SAPE   O3111635   6.306   5.454   2.185  0.8551 -0.8715 -0.4552
  112SAPE   C3111636   6.266   5.334   2.201  0.2015  0.1816 -0.2317
  112SAPE   O3211637   6.297   5.240   2.132 -0.4972  0.1692 -0.1988
  112SAPE   C3211638   6.186   5.324   2.329  0.2131 -0.0068 -0.2377
  112SAPE   H2X11639   6.153   5.218   2.332  0.7318 -0.1995 -1.1661
  112SAPE   H2Y11640   6.104   5.398   2.314  0.7278  0.7543  0.5914
  112SAPE   C2311641   6.640   5.473   2.583 -0.4243  0.1613  0.1725
  112SAPE   H3R11642   6.682   5.387   2.639  0.9013 -0.0207 -1.0517
  112SAPE   H3S11643   6.536   5.447   2.552 -0.1713 -0.9817  0.2592
  112SAPE   C2411644   6.636   5.586   2.688 -0.0568  0.4037 -0.3372
  112SAPE   H4R11645   6.563   5.567   2.770 -1.0526  0.7078 -1.1425
  112SAPE   H4S11646   6.609   5.684   2.645 -0.1155 -0.0247 -1.3141
  112SAPE   C2511647   6.778   5.604   2.739  0.8672 -0.4168 -0.7860
  112SAPE   H5R11648   6.836   5.661   2.666  0.6075 -1.0203 -1.4826
  112SAPE   C2611649   6.836   5.562   2.851  0.1858  0.4471 -0.4165
  112SAPE   H6R11650   6.939   5.599   2.865 -0.2545  1.8036 -0.6509
  112SAPE   C2711651   6.775   5.475   2.953  0.8763 -0.2706 -0.1248
  112SAPE   H7R11652   6.851   5.398   2.979  0.8667 -0.9287 -1.8894
  112SAPE   H7S11653   6.691   5.420   2.904 -2.1055  1.0999  3.0196
  112SAPE   C2811654   6.706   5.554   3.071  0.3954  0.3359 -1.0087
  112SAPE   H8R11655   6.635   5.631   3.037  1.5134  1.2277 -1.3529
  112SAPE   C2911656   6.729   5.533   3.206  0.3181  0.3734 -0.0582
  112SAPE   H9R11657   6.697   5.606   3.283  1.1949  4.2802 -3.0416
  112SAPE  C21011658   6.832   5.441   3.267  0.4179 -0.1231  0.1601
  112SAPE  H10R11659   6.911   5.412   3.195  1.7326  2.1255  0.6270
  112SAPE  H10S11660   6.783   5.346   3.300 -0.3853  0.0378 -0.5125
  112SAPE  C21111661   6.898   5.496   3.386  0.3755 -0.1869 -0.0230
  112SAPE  H11R11662   6.840   5.563   3.450 -0.0525  1.2816 -1.8587
  112SAPE  C21211663   7.029   5.486   3.414  0.3795 -0.5441  0.4779
  112SAPE  H12R11664   7.052   5.541   3.506  1.2362 -0.3556  0.1627
  112SAPE  C21311665   7.147   5.414   3.348  0.3086  0.1097 -0.2916
  112SAPE  H13R11666   7.239   5.476   3.354 -0.0527  0.6862 -0.6514
  112SAPE  H13S11667   7.124   5.403   3.240 -0.0226  1.4123 -0.3650
  112SAPE  C21411668   7.169   5.280   3.403 -0.5840  0.6997  0.2710
  112SAPE  H14R11669   7.148   5.204   3.325 -0.5097 -1.0439  1.8742
  112SAPE  C21511670   7.224   5.246   3.523 -0.0120 -0.6268  0.0987
  112SAPE  H15R11671   7.236   5.145   3.563  0.1779 -0.1585  1.2612
  112SAPE  C21611672   7.271   5.344   3.618 -1.0192 -0.9203 -0.2284
  112SAPE  H16R11673   7.179   5.390   3.660 -0.6321 -0.0861 -0.2784
  112SAPE  H16S11674   7.334   5.420   3.567  1.3148 -1.4037  1.7246
  112SAPE  C21711675   7.326   5.294   3.747 -0.5978  0.4659 -0.2665
  112SAPE  H17R11676   7.272   5.209   3.793  2.9929 -1.3006  1.1196
  112SAPE  H17S11677   7.338   5.373   3.824  1.0398 -1.3917  1.5000
  112SAPE  C21811678   7.467   5.247   3.729 -0.2654  0.1219  0.1778
  112SAPE  H18R11679   7.530   5.331   3.692  2.6168 -1.8021  0.4631
  112SAPE  H18S11680   7.485   5.159   3.665 -0.4338 -0.8551  1.4426
  112SAPE  C21911681   7.551   5.207   3.860 -0.6598 -0.2701  0.8147
  112SAPE  H19R11682   7.582   5.299   3.912  0.8114 -1.0508  1.3722
  112SAPE  H19S11683   7.645   5.160   3.823 -2.1800 -3.0325  0.1137
  112SAPE  C22011684   7.483   5.113   3.951 -0.7622  0.1335  0.2186
  112SAPE  H20R11685   7.460   5.013   3.908  0.1958 -0.3286  0.7611
  112SAPE  H20S11686   7.393   5.155   4.002 -0.3219  0.0602  1.0754
  112SAPE  H20T11687   7.559   5.097   4.031  0.9120 -0.0501 -1.3531
  112SAPE   C3311688   6.269   5.355   2.457 -0.6248  0.9408  0.1219
  112SAPE   H3X11689   6.318   5.454   2.462  0.6715  0.3324 -0.0162
  112SAPE   H3Y11690   6.353   5.282   2.457 -0.2633  1.2266  3.6379
  112SAPE   C3411691   6.187   5.353   2.591  0.5369 -0.1370  0.2225
  112SAPE   H4X11692   6.137   5.254   2.588  1.0667 -0.4450  1.1517
  112SAPE   H4Y11693   6.103   5.425   2.587  0.5550 -0.1200  0.1369
  112SAPE   C3511694   6.278   5.362   2.710 -0.3404  0.0934  0.1564
  112SAPE   H5X11695   6.338   5.454   2.695  0.1909 -0.3112 -0.2156
  112SAPE   H5Y11696   6.344   5.274   2.699  2.1579  2.1065 -2.6404
  112SAPE   C3611697   6.209   5.358   2.845  0.0438 -0.0083  0.4425
  112SAPE   H6X11698   6.116   5.296   2.849 -1.3602  1.7195 -2.3297
  112SAPE   H6Y11699   6.187   5.461   2.880 -1.4740 -0.5567  1.2256
  112SAPE   C3711700   6.309   5.323   2.957  0.3633  0.3334 -0.2031
  112SAPE   H7X11701   6.406   5.376   2.950  1.8716 -2.3197 -0.6580
  112SAPE   H7Y11702   6.338   5.216   2.946  1.0390  0.6928 -2.1852
  112SAPE   C3811703   6.246   5.336   3.097 -0.4612 -0.2773 -0.1682
  112SAPE   H8X11704   6.153   5.277   3.085 -0.3871 -0.4128 -0.0817
  112SAPE   H8Y11705   6.218   5.443   3.108 -2.8189 -0.9792  1.2188
  112SAPE   C3911706   6.338   5.283   3.211  0.3516  0.0402  1.0971
  112SAPE   H9X11707   6.431   5.344   3.216  0.6716 -0.2398 -0.8354
  112SAPE   H9Y11708   6.366   5.182   3.174  0.8598  0.8613 -0.9075
  112SAPE  C31011709   6.272   5.264   3.345 -0.3889 -0.0200 -0.4251
  112SAPE  H10X11710   6.171   5.221   3.329 -1.4766  1.1101  2.5834
  112SAPE  H10Y11711   6.265   5.363   3.397 -1.0374 -0.1496 -0.2609
  112SAPE  C31111712   6.350   5.178   3.448 -0.3563 -0.0507  0.2106
  112SAPE  H11X11713   6.368   5.076   3.409  2.3653  0.8530 -1.1511
  112SAPE  H11Y11714   6.287   5.165   3.539  0.7186 -0.1621  0.9583
  112SAPE  C31211715   6.474   5.256   3.501  0.1642 -0.4862  0.0951
  112SAPE  H12X11716   6.437   5.353   3.541  0.4824 -0.6629  0.8453
  112SAPE  H12Y11717   6.545   5.269   3.417 -2.6661 -1.6105 -2.6536
  112SAPE  C31311718   6.556   5.193   3.606  0.2371  0.6761  0.7241
  112SAPE  H13X11719   6.593   5.092   3.580  0.3259  0.0905  2.9100
  112SAPE  H13Y11720   6.485   5.177   3.690 -2.3384  1.0500 -1.2744
  112SAPE  C31411721   6.680   5.277   3.653  0.0407 -0.3069  0.2519
  112SAPE  H14X11722   6.762   5.271   3.578 -0.3047  0.2323 -0.1786
  112SAPE  H14Y11723   6.732   5.225   3.737  0.2658  0.6180  0.6975
  112SAPE  C31511724   6.649   5.411   3.720  0.0632  0.3174  0.3921
  112SAPE  H15X11725   6.547   5.394   3.761 -0.4714 -2.6305 -1.8607
  112SAPE  H15Y11726   6.640   5.502   3.657 -1.6354  1.5535  2.2905
  112SAPE  C31611727   6.746   5.452   3.827 -1.1651 -0.7778 -1.0381
  112SAPE  H16X11728   6.777   5.376   3.903 -0.4932  1.0046  0.5672
  112SAPE  H16Y11729   6.727   5.545   3.885  0.5638 -0.7705 -0.4251
  112SAPE  C31711730   6.877   5.494   3.760  0.1616  0.0151  0.3238
  112SAPE  H17X11731   6.843   5.579   3.696 -0.4246 -0.0259  0.5739
  112SAPE  H17Y11732   6.916   5.405   3.705 -2.0343 -0.3472 -0.7801
  112SAPE  C31811733   6.978   5.540   3.861 -0.0962  0.3976 -0.2175
  112SAPE  H18X11734   7.003   5.464   3.938  1.4428  1.4402  0.3651
  112SAPE  H18Y11735   6.941   5.626   3.920  1.4585 -0.4010  2.0792
  112SAPE  H18Z11736   7.075   5.571   3.816 -1.4478 -0.4279 -4.1310
  113SAPE     N11737   7.124   4.712   2.130  0.4894 -0.0656 -0.6553
  113SAPE   HN111738   7.203   4.647   2.113 -1.7164 -2.5450 -2.3884
  113SAPE   HN211739   7.066   4.657   2.197 -1.4661 -0.4420 -2.5312
  113SAPE   HN311740   7.064   4.725   2.045 -0.1190 -2.1397 -0.5980
  113SAPE   C1211741   7.184   4.842   2.180  0.3640 -0.4368  0.0008
  113SAPE  H12A11742   7.207   4.830   2.288  1.0656  1.0468  0.0331
  113SAPE  H12B11743   7.111   4.919   2.148  1.3373 -0.0434 -1.3916
  113SAPE   C1111744   7.316   4.863   2.100  0.7188  0.3926  0.6892
  113SAPE  H11A11745   7.366   4.961   2.113  1.7390  0.0290 -0.4086
  113SAPE  H11B11746   7.279   4.868   1.996 -1.0818  0.6878  1.2927
  113SAPE     P11747   7.540   4.743   2.043 -0.1729  0.3443  0.0816
  113SAPE   O1311748   7.589   4.600   2.033 -0.3955  0.5099  0.1120
  113SAPE   O1411749   7.531   4.823   1.920 -0.3681 -0.0763 -0.2509
  113SAPE   O1211750   7.403   4.748   2.116  0.5065  0.2613  0.0011
  113SAPE   O1111751   7.630   4.818   2.147 -0.3407 -0.0863 -0.1284
  113SAPE    C111752   7.675   4.747   2.260 -0.1353 -0.1019 -0.4767
  113SAPE    HA11753   7.712   4.645   2.237  0.1746 -0.2452  0.5682
  113SAPE    HB11754   7.762   4.803   2.302 -0.7440 -0.7858  1.8557
  113SAPE    C211755   7.591   4.750   2.388 -0.4822 -0.3466  0.5216
  113SAPE    HS11756   7.500   4.695   2.355 -2.7432  3.4201 -0.1129
  113SAPE   O2111757   7.551   4.884   2.412  0.4414  0.3924 -0.2207
  113SAPE   C2111758   7.435   4.905   2.483 -0.6709 -0.3723  0.6182
  113SAPE   O2211759   7.363   4.815   2.515 -0.2284 -0.2380 -0.0723
  113SAPE   C2211760   7.413   5.055   2.505 -0.6794 -0.5706 -0.1512
  113SAPE   H2R11761   7.478   5.108   2.431  1.2874  0.0608  1.9252
  113SAPE   H2S11762   7.303   5.069   2.510 -0.5243  0.4755  0.7000
  113SAPE    C311763   7.656   4.665   2.504  0.7935  0.2102 -0.2825
  113SAPE    HX11764   7.747   4.713   2.546  1.8964 -2.8178  1.0864
  113SAPE    HY11765   7.699   4.573   2.459  1.2898 -0.0340  0.6632
  113SAPE   O3111766   7.562   4.641   2.614  0.0844 -0.0709  0.6053
  113SAPE   C3111767   7.557   4.516   2.653  0.9025  0.6426 -0.6186
  113SAPE   O3211768   7.610   4.422   2.597 -0.2567  0.4065 -0.1056
  113SAPE   C3211769   7.477   4.503   2.783 -0.0437  0.3444  0.7861
  113SAPE   H2X11770   7.452   4.401   2.817  1.5716 -1.0128 -1.7935
  113SAPE   H2Y11771   7.375   4.540   2.759 -0.8887 -1.5081  1.4000
  113SAPE   C2311772   7.470   5.112   2.640  0.3563  0.5228 -0.6311
  113SAPE   H3R11773   7.455   5.030   2.713 -2.3895  2.7915  1.6096
  113SAPE   H3S11774   7.393   5.190   2.657 -2.5351 -1.8505 -1.9182
  113SAPE   C2411775   7.608   5.170   2.635  0.0837  0.0453  0.4500
  113SAPE   H4R11776   7.635   5.198   2.739 -0.1447 -3.2748  1.5339
  113SAPE   H4S11777   7.602   5.260   2.571  0.1509 -2.5289 -3.5229
  113SAPE   C2511778   7.716   5.084   2.571  0.5348  0.2264  0.0920
  113SAPE   H5R11779   7.716   5.084   2.461  0.9094  1.3848  0.0805
  113SAPE   C2611780   7.794   4.997   2.628  0.1335  0.0743 -0.7836
  113SAPE   H6R11781   7.871   4.954   2.563 -0.1721 -1.2647 -0.3001
  113SAPE   C2711782   7.792   4.959   2.778  0.0850 -0.1503 -0.3874
  113SAPE   H7R11783   7.693   4.911   2.786 -1.6896  2.8818 -2.0937
  113SAPE   H7S11784   7.786   5.052   2.838 -1.4321 -0.5984  0.2029
  113SAPE   C2811785   7.905   4.864   2.818 -0.1390  0.2318  0.2111
  113SAPE   H8R11786   7.962   4.817   2.736 -3.4497 -2.0555 -0.9757
  113SAPE   C2911787   7.908   4.814   2.939  0.3915 -0.0889  0.1311
  113SAPE   H9R11788   8.001   4.765   2.970  0.5521  0.2104  0.1244
  113SAPE  C21011789   7.813   4.851   3.055  0.3019  0.1248 -0.4923
  113SAPE  H10R11790   7.743   4.768   3.082 -0.6255  0.3239 -2.1180
  113SAPE  H10S11791   7.745   4.935   3.030  0.5101 -0.4764 -3.3323
  113SAPE  C21111792   7.882   4.883   3.180  0.0590  0.5309 -0.3753
  113SAPE  H11R11793   7.909   4.987   3.200 -0.4152  0.7088 -0.6576
  113SAPE  C21211794   7.936   4.803   3.275 -0.0899  0.2055 -0.2995
  113SAPE  H12R11795   7.993   4.837   3.363  1.6033  0.0588 -1.2911
  113SAPE  C21311796   7.923   4.656   3.254  0.5364  0.7704 -0.8196
  113SAPE  H13R11797   7.960   4.627   3.153  0.9791  1.2502 -0.8006
  113SAPE  H13S11798   7.816   4.626   3.248  0.3799  1.4282 -1.5603
  113SAPE  C21411799   8.002   4.586   3.361  0.5106  0.0187 -0.1934
  113SAPE  H14R11800   8.109   4.606   3.348  0.2735  0.0947 -2.2999
  113SAPE  C21511801   7.953   4.492   3.451  0.2415  0.7425 -0.9301
  113SAPE  H15R11802   8.020   4.449   3.528  0.7326 -0.8800 -2.2164
  113SAPE  C21611803   7.804   4.457   3.456 -0.4497  0.1381  0.5813
  113SAPE  H16R11804   7.758   4.485   3.359  3.4710  0.5159 -1.3955
  113SAPE  H16S11805   7.756   4.518   3.535 -1.1178  0.9558 -0.4443
  113SAPE  C21711806   7.782   4.309   3.466  0.2838  0.7108  0.2481
  113SAPE  H17R11807   7.859   4.258   3.529  0.3079  0.4215 -0.0089
  113SAPE  H17S11808   7.806   4.259   3.369 -2.4199 -1.2988  0.5029
  113SAPE  C21811809   7.641   4.261   3.502 -0.5740 -0.0490  0.0429
  113SAPE  H18R11810   7.574   4.323   3.439 -0.5776  0.9697  1.0298
  113SAPE  H18S11811   7.626   4.285   3.609  0.9949 -1.8525  0.7324
  113SAPE  C21911812   7.604   4.116   3.461 -0.8233  0.0288  0.2038
  113SAPE  H19R11813   7.683   4.050   3.504  1.1062  1.8426 -0.4020
  113SAPE  H19S11814   7.615   4.108   3.350 -2.9465 -0.3783 -0.0153
  113SAPE  C22011815   7.478   4.059   3.534 -0.2461  0.3640 -0.6057
  113SAPE  H20R11816   7.413   4.142   3.567 -0.8812 -0.7709  1.1372
  113SAPE  H20S11817   7.487   4.008   3.632 -0.9995  3.4646  1.1966
  113SAPE  H20T11818   7.428   3.987   3.465  0.1778  0.6978 -1.2763
  113SAPE   C3311819   7.550   4.574   2.905 -0.4964  0.4410  0.5114
  113SAPE   H3X11820   7.487   4.561   2.996  2.5558 -0.6912  2.6698
  113SAPE   H3Y11821   7.557   4.684   2.894 -3.4146  0.4585 -2.4179
  113SAPE   C3411822   7.689   4.513   2.928 -0.3223  0.0877  0.4668
  113SAPE   H4X11823   7.735   4.570   3.012 -0.6102 -0.1346  0.7795
  113SAPE   H4Y11824   7.763   4.536   2.848  1.5568 -1.7274  1.5710
  113SAPE   C3511825   7.691   4.365   2.975  0.2707 -0.7564 -0.2306
  113SAPE   H5X11826   7.670   4.291   2.895 -1.4885 -1.0662  0.4554
  113SAPE   H5Y11827   7.605   4.348   3.043 -0.4670 -1.3919 -1.2977
  113SAPE   C3611828   7.818   4.309   3.044 -0.5436 -0.7577 -0.3863
  113SAPE   H6X11829   7.805   4.330   3.152  2.1598 -0.6572 -0.0195
  113SAPE   H6Y11830   7.914   4.354   3.014 -0.8265  0.0649 -0.0833
  113SAPE   C3711831   7.812   4.152   3.031 -0.4192 -0.0644  0.4026
  113SAPE   H7X11832   7.816   4.131   2.922 -1.7885  0.4766  0.2310
  113SAPE   H7Y11833   7.719   4.102   3.065  0.1120 -1.0104  0.5192
  113SAPE   C3811834   7.937   4.089   3.088  0.7736 -0.5061  0.5826
  113SAPE   H8X11835   8.029   4.125   3.037  0.5691 -0.3986  0.2877
  113SAPE   H8Y11836   7.946   4.111   3.196 -1.1145 -1.5450  0.9897
  113SAPE   C3911837   7.940   3.936   3.065  0.3989  0.5974  0.2102
  113SAPE   H9X11838   8.041   3.901   3.098  0.5303  1.2518  0.5014
  113SAPE   H9Y11839   7.938   3.892   2.962  0.6502  0.2492  0.3500
  113SAPE  C31011840   7.845   3.848   3.160 -0.0191 -0.2247 -0.3127
  113SAPE  H10X11841   7.744   3.892   3.155 -0.8512 -1.8141  1.3202
  113SAPE  H10Y11842   7.884   3.852   3.264  0.2808 -1.4071 -0.3566
  113SAPE  C31111843   7.837   3.706   3.116 -0.2340 -0.3075  0.5904
  113SAPE  H11X11844   7.924   3.649   3.155  1.3864  2.4073  1.2315
  113SAPE  H11Y11845   7.837   3.703   3.005  0.6136  0.0603  0.5718
  113SAPE  C31211846   7.706   3.639   3.159 -0.7930  0.3608 -0.4499
  113SAPE  H12X11847   7.688   3.547   3.100 -1.0470 -0.3463  0.7161
  113SAPE  H12Y11848   7.620   3.707   3.137 -1.7890 -1.2171 -1.6885
  113SAPE  C31311849   7.706   3.599   3.306  0.2639 -0.1123  0.5610
  113SAPE  H13X11850   7.715   3.686   3.375 -0.8240  0.6403 -0.2253
  113SAPE  H13Y11851   7.794   3.533   3.326 -0.2822 -0.7506  0.9032
  113SAPE  C31411852   7.577   3.521   3.346 -0.6754  0.2765 -0.3954
  113SAPE  H14X11853   7.566   3.436   3.276  2.7911 -1.8823  1.3845
  113SAPE  H14Y11854   7.485   3.582   3.333 -2.2084 -2.0647 -1.0915
  113SAPE  C31511855   7.573   3.463   3.492 -0.3517 -0.8610  0.3828
  113SAPE  H15X11856   7.661   3.396   3.494  1.8208  1.8281 -0.3183
  113SAPE  H15Y11857   7.477   3.406   3.502 -0.4918 -0.6970 -0.0144
  113SAPE  C31611858   7.592   3.579   3.595  0.2577  0.2222 -0.4917
  113SAPE  H16X11859   7.486   3.608   3.613 -0.2965 -1.8528 -0.1480
  113SAPE  H16Y11860   7.641   3.670   3.556 -1.7385  1.5000 -0.1334
  113SAPE  C31711861   7.667   3.536   3.719 -0.2572  0.5592  0.4602
  113SAPE  H17X11862   7.617   3.457   3.779  1.0375 -1.0897 -0.5412
  113SAPE  H17Y11863   7.669   3.621   3.790  0.9534  1.1334 -0.2110
  113SAPE  C31811864   7.817   3.497   3.691 -0.1850  0.0064  0.8000
  113SAPE  H18X11865   7.845   3.598   3.654 -1.8727  0.5010  0.7632
  113SAPE  H18Y11866   7.814   3.409   3.622 -3.1035  0.3858  0.2904
  113SAPE  H18Z11867   7.860   3.465   3.788  1.5641  0.2007  0.1195
  114SAPE     N11868   2.543   5.765   1.785 -0.3742  0.1097 -0.3229
  114SAPE   HN111869   2.622   5.767   1.717 -1.2895  0.5364 -1.4170
  114SAPE   HN211870   2.571   5.772   1.885  3.4102  0.1857 -1.2234
  114SAPE   HN311871   2.485   5.682   1.764  3.4119 -3.4543  1.8408
  114SAPE   C1211872   2.451   5.877   1.750  1.0547 -0.2822 -0.1187
  114SAPE  H12A11873   2.369   5.875   1.825 -2.3389 -0.2630 -3.5279
  114SAPE  H12B11874   2.411   5.864   1.648  0.4252  3.5599 -0.5150
  114SAPE   C1111875   2.516   6.011   1.760  0.0091  0.5411 -0.2564
  114SAPE  H11A11876   2.459   6.086   1.701 -1.3462 -0.9113 -0.8672
  114SAPE  H11B11877   2.616   5.999   1.714  1.3783  0.1064  2.6212
  114SAPE     P11878   2.601   6.180   1.941 -0.1593 -0.2112 -0.4563
  114SAPE   O1311879   2.738   6.186   1.893 -0.0262  0.4350  0.1236
  114SAPE   O1411880   2.529   6.301   1.898  0.1085 -0.2256  0.7590
  114SAPE   O1211881   2.527   6.050   1.898  0.3796 -0.3235  0.0083
  114SAPE   O1111882   2.597   6.187   2.100 -0.2241  0.7931  0.2039
  114SAPE    C111883   2.494   6.120   2.168  0.4202 -0.0289 -0.0328
  114SAPE    HA11884   2.468   6.019   2.130  0.7702  0.2799 -1.1413
  114SAPE    HB11885   2.515   6.114   2.277  0.3611  1.1262  0.0590
  114SAPE    C211886   2.364   6.214   2.168  0.0591  0.6292 -0.3845
  114SAPE    HS11887   2.331   6.226   2.063 -0.0775 -0.8281 -0.5370
  114SAPE   O2111888   2.410   6.338   2.216 -0.5643  0.0015  0.2064
  114SAPE   C2111889   2.341   6.446   2.200 -0.4136  0.2922 -0.1263
  114SAPE   O2211890   2.231   6.455   2.149  0.1341 -0.8112 -0.2622
  114SAPE   C2211891   2.424   6.566   2.241  0.9711  0.3471 -0.8767
  114SAPE   H2R11892   2.481   6.542   2.333  1.3385  2.5064 -0.4926
  114SAPE   H2S11893   2.498   6.576   2.158  1.2464  1.2429 -0.5250
  114SAPE    C311894   2.250   6.158   2.258  0.3452  0.4159  0.5558
  114SAPE    HX11895   2.216   6.063   2.211  0.2613 -0.3187  2.0580
  114SAPE    HY11896   2.158   6.220   2.258  0.0941  0.0540  0.3667
  114SAPE   O3111897   2.299   6.144   2.395 -0.1723 -0.0946  0.0884
  114SAPE   C3111898   2.278   6.240   2.493 -0.0548 -0.1093  0.1445
  114SAPE   O3211899   2.211   6.336   2.480  0.2991 -0.2059 -0.3932
  114SAPE   C3211900   2.361   6.203   2.617 -0.0194 -0.0683  0.1802
  114SAPE   H2X11901   2.431   6.123   2.584 -0.6063 -0.2685 -0.6164
  114SAPE   H2Y11902   2.285   6.162   2.686 -0.4973 -1.8581 -1.3091
  114SAPE   C2311903   2.339   6.694   2.252  0.1592 -0.1851 -0.4655
  114SAPE   H3R11904   2.279   6.699   2.159 -1.2872 -1.3506  0.3502
  114SAPE   H3S11905   2.416   6.773   2.251 -0.0943  0.1439  1.4710
  114SAPE   C2411906   2.246   6.704   2.379 -1.5593  0.2599  0.0217
  114SAPE   H4R11907   2.160   6.638   2.353 -1.1244  0.3926 -1.8924
  114SAPE   H4S11908   2.202   6.806   2.375 -1.8846  0.0868 -1.8714
  114SAPE   C2511909   2.310   6.656   2.503 -0.7414 -0.1690  0.0144
  114SAPE   H5R11910   2.411   6.612   2.496 -0.4259  0.7588 -2.0682
  114SAPE   C2611911   2.248   6.671   2.618 -0.2499 -0.4059 -0.2898
  114SAPE   H6R11912   2.299   6.635   2.709  2.7910 -0.0377 -1.7397
  114SAPE   C2711913   2.115   6.735   2.649 -0.2860 -0.7731 -0.3538
  114SAPE   H7R11914   2.057   6.757   2.557  0.1789 -2.2875 -1.0368
  114SAPE   H7S11915   2.138   6.833   2.696 -1.9178 -0.2256 -0.6194
  114SAPE   C2811916   2.024   6.646   2.739  0.0832 -0.3486  0.1130
  114SAPE   H8R11917   1.983   6.558   2.688 -2.2003  0.5756  0.2798
  114SAPE   C2911918   2.002   6.666   2.873  0.8408 -0.1285 -0.0744
  114SAPE   H9R11919   1.944   6.591   2.928 -1.9556  0.8318 -1.5727
  114SAPE  C21011920   2.044   6.783   2.967  0.0391  0.3169  0.3992
  114SAPE  H10R11921   1.958   6.849   2.989 -1.2595 -1.6301  1.4794
  114SAPE  H10S11922   2.122   6.845   2.918 -0.3823  1.5284  1.2153
  114SAPE  C21111923   2.094   6.721   3.093 -0.7769 -0.3939 -0.1903
  114SAPE  H11R11924   2.167   6.639   3.095  1.2886  1.3389  1.3785
  114SAPE  C21211925   2.047   6.747   3.218 -0.0800 -0.1944 -0.0346
  114SAPE  H12R11926   2.086   6.683   3.298 -1.4643 -0.6820  0.2717
  114SAPE  C21311927   1.944   6.841   3.259  0.3815 -1.0818 -0.2163
  114SAPE  H13R11928   1.899   6.809   3.355 -1.0429  2.2907  0.3603
  114SAPE  H13S11929   1.858   6.827   3.190 -1.1102 -0.6066  1.4800
  114SAPE  C21411930   1.988   6.988   3.267  0.0302 -0.2975  0.7863
  114SAPE  H14R11931   2.063   7.015   3.192 -0.9008 -0.7157 -0.3253
  114SAPE  C21511932   1.941   7.082   3.347  0.5080 -0.0102 -0.3711
  114SAPE  H15R11933   1.976   7.185   3.328  2.2353 -0.8195 -1.8725
  114SAPE  C21611934   1.837   7.072   3.456 -0.3315  0.2509  0.5723
  114SAPE  H16R11935   1.879   7.100   3.555  1.3439 -0.1771  0.0118
  114SAPE  H16S11936   1.785   6.974   3.465 -1.5285  0.8291  0.1616
  114SAPE  C21711937   1.712   7.155   3.413  0.2886 -0.1608  0.0261
  114SAPE  H17R11938   1.735   7.263   3.398  0.6817 -0.2137  0.2623
  114SAPE  H17S11939   1.634   7.148   3.492  0.9182 -2.3395  0.5258
  114SAPE  C21811940   1.654   7.108   3.278  0.2786 -0.5298  0.6489
  114SAPE  H18R11941   1.608   7.008   3.287 -0.5674 -0.2347 -0.2052
  114SAPE  H18S11942   1.732   7.095   3.199 -2.3174  1.0348 -2.3772
  114SAPE  C21911943   1.547   7.214   3.226  0.1830 -0.1158  0.3972
  114SAPE  H19R11944   1.516   7.187   3.123  1.7084 -1.7862  0.3365
  114SAPE  H19S11945   1.589   7.317   3.228  0.9816 -0.4534  1.3428
  114SAPE  C22011946   1.427   7.230   3.317 -0.2480  0.6111  0.0252
  114SAPE  H20R11947   1.335   7.272   3.270  0.2106  1.6431  0.0094
  114SAPE  H20S11948   1.458   7.294   3.403  1.1799 -0.8653  0.6551
  114SAPE  H20T11949   1.411   7.128   3.358  2.7150  0.1708  0.3112
  114SAPE   C3311950   2.441   6.317   2.678  0.2861  0.0559 -0.2324
  114SAPE   H3X11951   2.461   6.392   2.598  0.4254  0.1965 -0.0648
  114SAPE   H3Y11952   2.541   6.277   2.705 -0.5631 -1.4543  0.8287
  114SAPE   C3411953   2.365   6.384   2.792 -0.1062  0.2994 -0.1734
  114SAPE   H4X11954   2.266   6.393   2.742  0.2696  1.2864 -0.7437
  114SAPE   H4Y11955   2.409   6.480   2.826 -1.5379 -0.0351  2.9565
  114SAPE   C3511956   2.357   6.295   2.918 -0.3944  0.3200 -0.0036
  114SAPE   H5X11957   2.460   6.257   2.938 -0.3081 -0.8989 -2.4479
  114SAPE   H5Y11958   2.293   6.206   2.899  0.6435 -0.5327  0.4010
  114SAPE   C3611959   2.324   6.369   3.044 -0.2766  0.5074  0.1259
  114SAPE   H6X11960   2.301   6.284   3.112  2.0810 -0.4286 -0.1555
  114SAPE   H6Y11961   2.233   6.429   3.022 -1.1772 -1.5553 -2.2063
  114SAPE   C3711962   2.429   6.462   3.109  0.6727 -0.3895 -0.4323
  114SAPE   H7X11963   2.443   6.560   3.059  1.8408  0.5142  1.5448
  114SAPE   H7Y11964   2.531   6.419   3.108  1.4282  1.3107  0.0356
  114SAPE   C3811965   2.394   6.493   3.257  0.8770  0.3671  0.1063
  114SAPE   H8X11966   2.284   6.509   3.260  0.8997  0.8858 -1.1359
  114SAPE   H8Y11967   2.435   6.592   3.284 -0.0002  1.1004 -1.1229
  114SAPE   C3911968   2.442   6.388   3.359  0.4177  0.9261  0.0435
  114SAPE   H9X11969   2.553   6.377   3.359  0.3087 -0.7614  2.1476
  114SAPE   H9Y11970   2.400   6.288   3.338 -2.8256  2.2987 -0.6047
  114SAPE  C31011971   2.428   6.436   3.502  0.0698  0.1123 -0.1424
  114SAPE  H10X11972   2.323   6.441   3.540  0.7090  1.1643  1.5688
  114SAPE  H10Y11973   2.460   6.542   3.501  1.6448 -0.3214  0.9858
  114SAPE  C31111974   2.516   6.370   3.611  0.5890 -0.8739  0.6438
  114SAPE  H11X11975   2.624   6.381   3.589  0.9165 -0.0860  2.4662
  114SAPE  H11Y11976   2.486   6.263   3.624 -1.5771 -0.3744  0.1773
  114SAPE  C31211977   2.500   6.431   3.751 -0.2108 -0.6583 -0.5898
  114SAPE  H12X11978   2.509   6.541   3.754  0.1654 -0.6996 -0.1460
  114SAPE  H12Y11979   2.583   6.389   3.810 -1.3383 -1.6349  0.3633
  114SAPE  C31311980   2.364   6.391   3.809 -0.6245 -0.4749 -0.3366
  114SAPE  H13X11981   2.358   6.280   3.818  1.0719 -0.7004 -1.5195
  114SAPE  H13Y11982   2.281   6.415   3.739  0.0952 -1.4928 -1.5846
  114SAPE  C31411983   2.311   6.457   3.945 -0.5141  0.1078  0.4382
  114SAPE  H14X11984   2.303   6.567   3.932 -0.6800 -0.0476 -1.0650
  114SAPE  H14Y11985   2.399   6.426   4.005 -0.5896 -2.4151 -0.6421
  114SAPE  C31511986   2.188   6.380   3.991 -0.1334 -0.2828 -0.1392
  114SAPE  H15X11987   2.210   6.271   3.993 -0.2865 -0.3162 -0.2426
  114SAPE  H15Y11988   2.100   6.395   3.924 -1.0610  0.8261  1.2822
  114SAPE  C31611989   2.145   6.420   4.130 -0.1901  0.1004  0.0331
  114SAPE  H16X11990   2.229   6.423   4.203 -0.5421  2.8124  0.4497
  114SAPE  H16Y11991   2.088   6.338   4.177 -1.6369  1.2723  0.3818
  114SAPE  C31711992   2.062   6.546   4.145  0.5095 -0.1839 -0.4524
  114SAPE  H17X11993   1.976   6.536   4.075  2.1933 -4.7861 -2.2393
  114SAPE  H17Y11994   2.117   6.642   4.134 -0.0902  0.2095 -0.0564
  114SAPE  C31811995   1.992   6.543   4.282  0.1672  0.2129 -0.0851
  114SAPE  H18X11996   2.064   6.557   4.366 -0.4084  0.9820  0.2916
  114SAPE  H18Y11997   1.941   6.447   4.308 -1.1239  1.0653  0.6663
  114SAPE  H18Z11998   1.924   6.629   4.298  0.3620  0.4362 -0.4619
  115SAPE     N11999   0.345   6.151   1.916  0.6867 -0.0736 -0.3896
  115SAPE   HN112000   0.382   6.078   1.980  1.3876  1.8817  1.5735
  115SAPE   HN212001   0.378   6.138   1.819  0.4892 -0.4616 -0.4055
  115SAPE   HN312002   0.372   6.246   1.948  0.9467 -0.1526 -0.3728
  115SAPE   C1212003   0.200   6.138   1.919 -0.4768  0.5632 -0.2969
  115SAPE  H12A12004   0.179   6.036   1.880  1.0761  0.2894 -0.4827
  115SAPE  H12B12005   0.145   6.212   1.856 -0.0849  1.4303  0.3663
  115SAPE   C1112006   0.146   6.146   2.067  0.0265  0.3203 -0.0225
  115SAPE  H11A12007   0.161   6.046   2.113  1.5800  0.7796  0.5376
  115SAPE  H11B12008   0.036   6.161   2.070 -0.2476 -0.3173 -3.0749
  115SAPE     P12009   0.152   6.389   2.159  0.5135 -0.2058  0.0334
  115SAPE   O1312010   0.269   6.472   2.187 -0.4212 -0.3481 -0.1656
  115SAPE   O1412011   0.075   6.413   2.036  0.0365 -0.4538  0.8317
  115SAPE   O1212012   0.205   6.242   2.155  0.2950 -0.2686  0.0508
  115SAPE   O1112013   0.061   6.387   2.284 -0.2025 -0.0873  0.3184
  115SAPE    C112014   0.095   6.343   2.416 -0.3395  0.3100 -0.1594
  115SAPE    HA12015   0.203   6.361   2.433 -0.4473  1.5138 -0.6929
  115SAPE    HB12016   0.044   6.410   2.488  1.0054  1.0454  0.1540
  115SAPE    C212017   0.058   6.187   2.449  0.0424 -0.3817 -0.0356
  115SAPE    HS12018   0.074   6.135   2.352 -1.0792 -1.8856  0.5465
  115SAPE   O2112019  -0.068   6.193   2.510  0.1914  0.7234 -0.2093
  115SAPE   C2112020  -0.142   6.074   2.496 -0.1177  0.6529  0.2031
  115SAPE   O2212021  -0.100   5.977   2.435  0.1541 -0.0982  0.2419
  115SAPE   C2212022  -0.271   6.086   2.569 -0.1470 -0.2430  0.5874
  115SAPE   H2R12023  -0.269   6.187   2.616  2.3331 -0.0720  0.2249
  115SAPE   H2S12024  -0.349   6.084   2.490  0.8535  0.3437 -0.4294
  115SAPE    C312025   0.166   6.122   2.533  0.0127 -0.8030  0.2735
  115SAPE    HX12026   0.257   6.134   2.471  0.5947 -0.7524  1.1238
  115SAPE    HY12027   0.150   6.012   2.529 -0.9809 -0.7126 -4.9481
  115SAPE   O3112028   0.182   6.181   2.671 -0.7040  0.0567  0.1910
  115SAPE   C3112029   0.110   6.119   2.754 -0.5323 -0.2101 -0.9176
  115SAPE   O3212030   0.027   6.031   2.737 -0.0996  0.1996  0.5129
  115SAPE   C3212031   0.116   6.175   2.902  0.6691 -0.2915  0.0350
  115SAPE   H2X12032   0.197   6.251   2.905  0.2995  0.1827 -1.1474
  115SAPE   H2Y12033   0.152   6.091   2.964  0.6174  1.2261  2.2149
  115SAPE   C2312034  -0.301   5.984   2.685 -0.4937  0.1806  0.4583
  115SAPE   H3R12035  -0.211   5.979   2.749  0.0355 -1.2122 -0.3355
  115SAPE   H3S12036  -0.304   5.880   2.643  2.0529  0.4969 -0.6830
  115SAPE   C2412037  -0.421   6.007   2.779  0.4473 -0.2996 -0.1200
  115SAPE   H4R12038  -0.509   5.964   2.727  0.3990 -0.4870  0.1188
  115SAPE   H4S12039  -0.429   6.112   2.815  2.0707 -0.4875  0.9038
  115SAPE   C2512040  -0.431   5.917   2.899 -0.3251  0.8119  0.1227
  115SAPE   H5R12041  -0.469   5.814   2.891 -0.7203  0.9272  0.4981
  115SAPE   C2612042  -0.406   5.952   3.031  0.4364  0.0397  0.1623
  115SAPE   H6R12043  -0.442   5.890   3.115  2.3291 -1.0568  0.2181
  115SAPE   C2712044  -0.368   6.092   3.078 -0.2968  0.8612  0.1933
  115SAPE   H7R12045  -0.320   6.146   2.994 -2.1359  1.8290 -0.2757
  115SAPE   H7S12046  -0.299   6.083   3.165 -1.0383  1.0213  0.8012
  115SAPE   C2812047  -0.495   6.157   3.119 -0.1208 -0.4400 -0.2243
  115SAPE   H8R12048  -0.568   6.180   3.040 -1.4430 -1.4542  0.6556
  115SAPE   C2912049  -0.540   6.177   3.246  0.2812 -0.2586 -0.2372
  115SAPE   H9R12050  -0.639   6.220   3.265  0.7251  0.1321  1.4162
  115SAPE  C21012051  -0.474   6.152   3.374 -0.9599 -0.0980 -0.5259
  115SAPE  H10R12052  -0.525   6.204   3.457 -1.6076 -3.0896  1.1074
  115SAPE  H10S12053  -0.367   6.181   3.367 -1.5412  2.2280 -0.6409
  115SAPE  C21112054  -0.475   6.001   3.412  0.1197  0.5316 -0.1780
  115SAPE  H11R12055  -0.499   5.930   3.331  0.9411  1.0620 -0.8931
  115SAPE  C21212056  -0.447   5.956   3.538  0.1517  0.6751  0.2469
  115SAPE  H12R12057  -0.450   5.847   3.550 -0.6722  0.1155 -3.6271
  115SAPE  C21312058  -0.406   6.035   3.652  0.6272 -0.4569  0.3286
  115SAPE  H13R12059  -0.454   6.135   3.660 -0.9220 -1.0790 -0.6978
  115SAPE  H13S12060  -0.298   6.059   3.648  0.7144 -0.5542  1.6602
  115SAPE  C21412061  -0.413   5.965   3.782  0.8255  0.2418 -0.1714
  115SAPE  H14R12062  -0.492   5.890   3.795  1.5584 -0.9508 -2.1398
  115SAPE  C21512063  -0.350   6.004   3.898 -0.1474  0.0786  0.9709
  115SAPE  H15R12064  -0.371   5.951   3.992  1.4542 -0.0132  1.3068
  115SAPE  C21612065  -0.250   6.116   3.913  0.1921  0.1971  0.0352
  115SAPE  H16R12066  -0.261   6.171   4.008  0.3510 -1.2038  0.8901
  115SAPE  H16S12067  -0.260   6.205   3.847 -1.5802  0.0429  0.0494
  115SAPE  C21712068  -0.099   6.081   3.893  0.5552 -0.3087 -0.4368
  115SAPE  H17R12069  -0.047   6.178   3.889 -0.6513  0.5570  2.2581
  115SAPE  H17S12070  -0.075   6.017   3.806  0.4082 -1.5384  0.3894
  115SAPE  C21812071  -0.054   6.007   4.024  0.0810  0.0433  0.2236
  115SAPE  H18R12072  -0.145   5.958   4.065  0.0268  0.5850  0.7623
  115SAPE  H18S12073  -0.015   6.082   4.096  0.5611  1.3811 -1.3704
  115SAPE  C21912074   0.056   5.891   4.007  0.4828 -0.0268  0.3725
  115SAPE  H19R12075   0.008   5.800   3.965 -1.7628  1.7838 -1.2571
  115SAPE  H19S12076   0.084   5.871   4.113 -0.4714 -1.4240  0.3915
  115SAPE  C22012077   0.182   5.917   3.936  0.4526  0.2517  0.8800
  115SAPE  H20R12078   0.230   6.006   3.983  2.5932  0.5351 -1.5896
  115SAPE  H20S12079   0.169   5.946   3.829  0.0939  0.7648  1.0592
  115SAPE  H20T12080   0.250   5.830   3.937  2.0187  1.3939 -0.1147
  115SAPE   C3312081  -0.021   6.236   2.958 -0.9450 -0.2820 -0.3686
  115SAPE   H3X12082  -0.015   6.238   3.069 -0.5074 -0.0268 -0.3969
  115SAPE   H3Y12083  -0.107   6.168   2.938  0.0227 -0.6491 -3.9082
  115SAPE   C3412084  -0.042   6.378   2.908 -0.1487 -0.3962  0.0022
  115SAPE   H4X12085  -0.034   6.375   2.797 -0.8274  0.2522 -0.0686
  115SAPE   H4Y12086   0.040   6.445   2.941 -0.4400 -0.1859  0.3093
  115SAPE   C3512087  -0.173   6.444   2.946  0.2614  0.1078 -0.5272
  115SAPE   H5X12088  -0.258   6.375   2.926  1.1734 -1.4445  0.7662
  115SAPE   H5Y12089  -0.188   6.522   2.867  2.6368  1.6107  0.3958
  115SAPE   C3612090  -0.174   6.499   3.088 -0.1195  0.0260  0.0967
  115SAPE   H6X12091  -0.274   6.545   3.103 -0.0128  0.5510 -0.7223
  115SAPE   H6Y12092  -0.096   6.577   3.091  0.6084 -0.7067  0.5910
  115SAPE   C3712093  -0.148   6.405   3.204 -0.2690 -0.0779 -0.4696
  115SAPE   H7X12094  -0.039   6.386   3.214 -0.5669 -0.7839  2.2779
  115SAPE   H7Y12095  -0.198   6.307   3.188  0.2125 -0.4718  0.3600
  115SAPE   C3812096  -0.193   6.464   3.341  0.4251 -0.2704 -0.5357
  115SAPE   H8X12097  -0.178   6.380   3.412  0.6067 -0.0774 -0.3428
  115SAPE   H8Y12098  -0.300   6.493   3.333  1.0353  1.7986 -2.2067
  115SAPE   C3912099  -0.117   6.589   3.389  0.2628 -0.3114 -0.2167
  115SAPE   H9X12100  -0.161   6.675   3.334 -1.5066 -1.6356 -0.9628
  115SAPE   H9Y12101  -0.009   6.575   3.367  0.7442  0.0661  1.7178
  115SAPE  C31012102  -0.138   6.620   3.540  0.4487 -0.0508  0.3132
  115SAPE  H10X12103  -0.247   6.619   3.560 -0.4827  0.2877 -3.7796
  115SAPE  H10Y12104  -0.099   6.724   3.545 -0.1475  0.1920  0.0560
  115SAPE  C31112105  -0.051   6.519   3.621 -0.3007  0.5770 -0.1707
  115SAPE  H11X12106   0.056   6.526   3.589  0.7960  0.0059  2.9958
  115SAPE  H11Y12107  -0.084   6.415   3.601  0.1599  0.4449 -0.2711
  115SAPE  C31212108  -0.079   6.566   3.756  0.7211 -0.2363 -0.1853
  115SAPE  H12X12109  -0.190   6.563   3.769  0.6417 -0.6756 -0.9277
  115SAPE  H12Y12110  -0.050   6.673   3.752  2.1839 -0.6539 -2.2580
  115SAPE  C31312111  -0.011   6.480   3.863  0.2002 -0.6420  1.0565
  115SAPE  H13X12112   0.100   6.483   3.854  0.4390 -2.4908  2.8750
  115SAPE  H13Y12113  -0.051   6.380   3.835 -0.3077 -0.0073 -0.6227
  115SAPE  C31412114  -0.040   6.521   4.015 -0.1308  0.3488 -0.2009
  115SAPE  H14X12115  -0.146   6.550   4.031 -0.1426 -0.6028  1.6672
  115SAPE  H14Y12116   0.026   6.607   4.039  0.6824 -0.2816 -0.1407
  115SAPE  C31512117  -0.008   6.397   4.105 -0.9180 -0.2557  0.0071
  115SAPE  H15X12118  -0.081   6.319   4.073  0.3095 -0.7154 -1.8588
  115SAPE  H15Y12119  -0.036   6.421   4.209  1.0851 -0.4132  0.6205
  115SAPE  C31612120   0.136   6.342   4.085  0.1820 -1.1018  0.2499
  115SAPE  H16X12121   0.146   6.305   3.981 -0.4721 -0.2701 -0.1199
  115SAPE  H16Y12122   0.143   6.245   4.139 -1.4760 -1.0696  0.5978
  115SAPE  C31712123   0.256   6.424   4.139 -0.0011 -0.2607 -0.0134
  115SAPE  H17X12124   0.234   6.456   4.243 -0.6245 -1.0213  0.0947
  115SAPE  H17Y12125   0.266   6.516   4.077  0.5393  0.1876  0.7192
  115SAPE  C31812126   0.391   6.352   4.135 -0.1395 -0.0879  0.4749
  115SAPE  H18X12127   0.423   6.352   4.029 -1.3660  2.9167  0.0021
  115SAPE  H18Y12128   0.397   6.248   4.175  2.3650 -1.3715 -2.8289
  115SAPE  H18Z12129   0.476   6.401   4.187  0.6753 -1.0997  0.1239
  116SAPE     N12130   6.945   0.793   2.143 -0.5176 -0.3825 -0.0097
  116SAPE   HN112131   6.923   0.868   2.211  2.4282  0.6685 -0.0811
  116SAPE   HN212132   6.912   0.698   2.169  0.4933 -1.1673 -1.4476
  116SAPE   HN312133   7.048   0.802   2.130 -0.3480 -2.1301 -0.0998
  116SAPE   C1212134   6.888   0.825   2.007 -0.9424  0.1813 -0.0270
  116SAPE  H12A12135   6.877   0.743   1.933 -1.0266  0.2858 -0.1319
  116SAPE  H12B12136   6.944   0.911   1.965  0.0909  0.7270  2.2922
  116SAPE   C1112137   6.750   0.891   2.022 -0.1258 -0.2670 -0.0910
  116SAPE  H11A12138   6.694   0.817   2.083  0.1501 -0.2831  0.1455
  116SAPE  H11B12139   6.706   0.912   1.922 -0.9459 -0.7242  0.1677
  116SAPE     P12140   6.712   1.153   2.040 -0.5005 -0.0878 -0.1804
  116SAPE   O1312141   6.785   1.168   1.914  0.1443 -0.6567 -0.4303
  116SAPE   O1412142   6.566   1.157   2.023 -0.3517 -0.1497  0.2229
  116SAPE   O1212143   6.761   1.011   2.105  0.2822 -0.2213  0.0475
  116SAPE   O1112144   6.751   1.266   2.145  0.1474  0.7896 -0.5113
  116SAPE    C112145   6.819   1.246   2.272 -0.5522  0.8390  0.0494
  116SAPE    HA12146   6.818   1.339   2.332  1.9620  0.9660 -0.0386
  116SAPE    HB12147   6.763   1.170   2.331 -1.4086  0.5937 -1.0354
  116SAPE    C212148   6.969   1.206   2.243  0.0867  0.1930 -0.1012
  116SAPE    HS12149   6.977   1.122   2.171  0.0947  1.0467 -1.1216
  116SAPE   O2112150   7.031   1.175   2.370  0.6360  0.1537  0.0066
  116SAPE   C2112151   7.004   1.058   2.411 -0.0838  0.0376  1.1177
  116SAPE   O2212152   6.930   0.971   2.358  0.4269 -0.6550 -0.2327
  116SAPE   C2212153   7.075   1.042   2.555 -0.1864 -0.2622  0.5381
  116SAPE   H2R12154   7.016   1.103   2.627  1.4877  2.4013 -0.1960
  116SAPE   H2S12155   7.064   0.937   2.588 -2.3514 -1.1675 -2.5970
  116SAPE    C312156   7.038   1.323   2.166  0.2250 -0.2276  0.3145
  116SAPE    HX12157   6.968   1.343   2.082  1.0964  1.7387  0.0058
  116SAPE    HY12158   7.142   1.304   2.131 -0.1476 -0.8033 -0.5199
  116SAPE   O3112159   7.026   1.441   2.249  0.4573 -0.0634 -0.1548
  116SAPE   C3112160   7.132   1.480   2.312  0.3017  0.0446 -0.2027
  116SAPE   O3212161   7.240   1.426   2.310  0.2781  0.2657  0.2448
  116SAPE   C3212162   7.110   1.608   2.398  0.2072  0.4071  0.0464
  116SAPE   H2X12163   7.089   1.694   2.331 -0.7977 -0.8072 -1.2665
  116SAPE   H2Y12164   7.209   1.625   2.445  0.4565  2.0299 -1.0057
  116SAPE   C2312165   7.219   1.096   2.557  0.1923  0.5499  0.1978
  116SAPE   H3R12166   7.226   1.206   2.556  1.4755  0.4731 -0.1325
  116SAPE   H3S12167   7.278   1.067   2.467  0.1746  3.0792 -0.6976
  116SAPE   C2412168   7.288   1.024   2.679  0.1736 -0.8016 -0.6447
  116SAPE   H4R12169   7.399   1.028   2.671  0.1169 -0.8152 -1.4675
  116SAPE   H4S12170   7.268   0.915   2.673 -1.5347 -0.5363 -0.2657
  116SAPE   C2512171   7.233   1.071   2.815  0.3659 -0.3278  0.1790
  116SAPE   H5R12172   7.124   1.078   2.831  0.6546  0.8311  1.8324
  116SAPE   C2612173   7.305   1.110   2.920  0.3463  0.0216  0.0615
  116SAPE   H6R12174   7.243   1.155   2.999  0.1258 -0.7750  0.3493
  116SAPE   C2712175   7.458   1.110   2.934 -0.5454 -0.2002 -0.0091
  116SAPE   H7R12176   7.512   1.121   2.837  2.1901 -1.0854  1.3272
  116SAPE   H7S12177   7.490   1.011   2.973 -0.2461  0.4326  1.4251
  116SAPE   C2812178   7.492   1.224   3.030 -0.4772  0.7903  0.4125
  116SAPE   H8R12179   7.459   1.320   2.988 -0.9249 -0.2505 -1.7331
  116SAPE   C2912180   7.558   1.212   3.150 -0.9196 -0.1008 -1.0685
  116SAPE   H9R12181   7.564   1.305   3.209 -0.4634 -1.4727  1.1662
  116SAPE  C21012182   7.635   1.093   3.201 -0.3377 -0.0475  0.0359
  116SAPE  H10R12183   7.695   1.068   3.111 -0.6666 -0.8738  0.0390
  116SAPE  H10S12184   7.567   1.006   3.214 -1.2178  0.2683 -2.0731
  116SAPE  C21112185   7.722   1.101   3.324 -0.2383  0.0792 -0.4063
  116SAPE  H11R12186   7.826   1.135   3.312 -0.1342  0.5873  1.4977
  116SAPE  C21212187   7.705   1.045   3.447  0.0629 -0.0062  0.3788
  116SAPE  H12R12188   7.797   1.049   3.508  0.1513  1.4030  0.1905
  116SAPE  C21312189   7.586   0.966   3.505  0.1669 -0.4753  0.2344
  116SAPE  H13R12190   7.539   0.904   3.426 -1.7747 -1.4114  2.0283
  116SAPE  H13S12191   7.510   1.035   3.547 -0.2627 -0.2066 -0.9662
  116SAPE  C21412192   7.619   0.853   3.603 -0.0745  0.5550 -0.5737
  116SAPE  H14R12193   7.663   0.765   3.554 -0.9560  1.4968 -3.2919
  116SAPE  C21512194   7.622   0.875   3.736 -0.0215 -0.1792  0.3208
  116SAPE  H15R12195   7.664   0.803   3.808 -1.0661  0.9049  2.0964
  116SAPE  C21612196   7.581   1.009   3.801  0.3657 -0.0366  0.2637
  116SAPE  H16R12197   7.472   1.028   3.813  0.2109  1.6262 -2.8334
  116SAPE  H16S12198   7.616   1.093   3.737  1.2536  0.4209  1.3062
  116SAPE  C21712199   7.639   1.034   3.937  0.9056  0.2145  0.0133
  116SAPE  H17R12200   7.620   1.143   3.947 -3.1624 -0.2366 -1.0166
  116SAPE  H17S12201   7.746   1.009   3.954  0.8997 -1.3071 -1.8203
  116SAPE  C21812202   7.544   0.962   4.041  0.9861  0.4093  0.8280
  116SAPE  H18R12203   7.531   0.859   4.002 -2.0612  1.5174 -1.5201
  116SAPE  H18S12204   7.439   1.000   4.043 -1.0142 -4.4219  1.6599
  116SAPE  C21912205   7.616   0.964   4.182  0.2325 -0.3805 -0.5801
  116SAPE  H19R12206   7.614   1.063   4.232  2.8340  0.3747 -1.8062
  116SAPE  H19S12207   7.723   0.941   4.168  0.7671  0.7540  1.3537
  116SAPE  C22012208   7.556   0.861   4.279  0.0604  0.0856 -1.1992
  116SAPE  H20R12209   7.448   0.878   4.299  0.5280  0.6720  1.0527
  116SAPE  H20S12210   7.604   0.857   4.379 -0.2390 -0.5600 -1.0778
  116SAPE  H20T12211   7.573   0.758   4.240  3.9111  0.3403 -0.5202
  116SAPE   C3312212   7.001   1.596   2.496  0.6892  0.0143  0.3924
  116SAPE   H3X12213   6.907   1.584   2.439  0.7048  0.4736  0.2706
  116SAPE   H3Y12214   6.994   1.689   2.555 -0.0467  0.8057 -0.8879
  116SAPE   C3412215   7.024   1.483   2.598  0.7286  0.1894  0.1501
  116SAPE   H4X12216   7.128   1.494   2.637  1.1092 -1.1977 -0.4317
  116SAPE   H4Y12217   7.024   1.386   2.544  1.1276  0.9780 -1.3152
  116SAPE   C3512218   6.930   1.493   2.716 -0.2793  0.6860 -0.1394
  116SAPE   H5X12219   6.825   1.486   2.683 -0.4353  2.0515 -0.0116
  116SAPE   H5Y12220   6.931   1.599   2.751  0.6059  0.7421 -0.3085
  116SAPE   C3612221   6.970   1.397   2.826  0.6245  0.3498  0.8467
  116SAPE   H6X12222   7.073   1.428   2.854  0.6086  0.8665  0.3587
  116SAPE   H6Y12223   6.971   1.294   2.785  0.7080 -0.0598  1.8512
  116SAPE   C3712224   6.882   1.411   2.954  0.5343 -0.1673 -0.1842
  116SAPE   H7X12225   6.862   1.316   3.008  2.0187  0.2641  1.1898
  116SAPE   H7Y12226   6.777   1.436   2.926  0.0830 -1.1033  0.6204
  116SAPE   C3812227   6.944   1.519   3.047  0.6387  0.4936  0.6010
  116SAPE   H8X12228   6.908   1.622   3.029  1.7818  0.6128 -1.3341
  116SAPE   H8Y12229   7.052   1.541   3.030  0.1470  2.7648  0.1606
  116SAPE   C3912230   6.923   1.505   3.195  0.2312  0.2104 -0.5100
  116SAPE   H9X12231   6.822   1.466   3.221 -0.6936  2.4619 -0.4877
  116SAPE   H9Y12232   6.938   1.596   3.256 -0.0835 -0.6738  0.9352
  116SAPE  C31012233   7.024   1.401   3.259 -0.4184 -0.0617  0.0855
  116SAPE  H10X12234   7.129   1.434   3.247 -0.1603 -1.2086 -1.0412
  116SAPE  H10Y12235   7.005   1.305   3.206 -1.6929  1.2415 -1.9474
  116SAPE  C31112236   6.983   1.370   3.408 -0.4066 -0.3929  0.0957
  116SAPE  H11X12237   6.875   1.345   3.415 -1.0852  1.8795 -1.1628
  116SAPE  H11Y12238   6.996   1.466   3.462  1.7433  0.7662 -2.2786
  116SAPE  C31212239   7.064   1.258   3.486 -0.1262 -0.6353  0.1984
  116SAPE  H12X12240   7.163   1.306   3.505  0.2067 -0.6864 -1.2897
  116SAPE  H12Y12241   7.081   1.163   3.431 -1.0387 -1.1692  0.8127
  116SAPE  C31312242   7.022   1.235   3.635 -0.7496  0.6097 -0.4134
  116SAPE  H13X12243   6.925   1.181   3.631 -0.4608  0.1312 -1.3339
  116SAPE  H13Y12244   7.002   1.335   3.678  0.1602  1.8586 -2.7091
  116SAPE  C31412245   7.143   1.160   3.699  0.3767  0.3284 -0.1051
  116SAPE  H14X12246   7.235   1.221   3.698 -0.2068  1.2247 -0.9317
  116SAPE  H14Y12247   7.156   1.074   3.630 -1.4925  0.0233 -0.1420
  116SAPE  C31512248   7.108   1.099   3.835 -0.2761  0.0580  0.3816
  116SAPE  H15X12249   6.999   1.079   3.846  0.0324 -1.4288  1.0296
  116SAPE  H15Y12250   7.122   1.179   3.911 -1.2054  0.5293  0.0697
  116SAPE  C31612251   7.184   0.976   3.880  0.1466  0.2457 -0.3840
  116SAPE  H16X12252   7.279   1.014   3.925 -1.2731  0.2865  2.8980
  116SAPE  H16Y12253   7.208   0.911   3.793  0.1360 -0.9605  0.4759
  116SAPE  C31712254   7.108   0.897   3.991 -0.3473  0.5114 -0.7581
  116SAPE  H17X12255   7.074   0.968   4.069  1.7293  2.0889 -1.2080
  116SAPE  H17Y12256   7.195   0.841   4.034  0.8981  2.1390 -1.0690
  116SAPE  C31812257   7.008   0.794   3.933 -0.4449 -0.1631 -0.2449
  116SAPE  H18X12258   6.924   0.843   3.879  1.0554 -0.0716 -2.6779
  116SAPE  H18Y12259   6.974   0.727   4.014  0.3880 -0.3453 -0.0364
  116SAPE  H18Z12260   7.067   0.737   3.858  1.6901 -0.5974  1.6514
  117SOPE     N12261   2.313   3.341   5.972 -0.5415  0.8132  0.1557
  117SOPE   HN112262   2.295   3.278   5.890 -2.7735 -0.4730  1.5419
  117SOPE   HN212263   2.359   3.427   5.935  0.1323  1.5507  2.5657
  117SOPE   HN312264   2.379   3.306   6.044  0.2277  2.4179  0.2765
  117SOPE   C1212265   2.177   3.369   6.027  0.1111  0.1169  0.5083
  117SOPE  H12A12266   2.109   3.281   6.030  1.3658 -0.9775 -1.1739
  117SOPE  H12B12267   2.132   3.441   5.956 -2.4389 -2.1455 -0.3601
  117SOPE   C1112268   2.183   3.414   6.177 -0.1595  0.1427 -0.3586
  117SOPE  H11A12269   2.081   3.447   6.205 -0.5124 -1.3274  0.1686
  117SOPE  H11B12270   2.232   3.513   6.187 -0.6903  0.3193  0.5341
  117SOPE     P12271   2.374   3.304   6.324  0.0425  0.1964 -0.4438
  117SOPE   O1312272   2.399   3.178   6.392 -0.5664  0.1683  0.0421
  117SOPE   O1412273   2.392   3.428   6.395 -0.0978 -0.3003  0.3057
  117SOPE   O1212274   2.228   3.310   6.264 -0.3408  0.1235 -0.0558
  117SOPE   O1112275   2.463   3.312   6.198 -0.3034  0.3343  0.9191
  117SOPE    C112276   2.573   3.218   6.192 -0.4884  0.3168 -0.1411
  117SOPE    HA12277   2.535   3.116   6.169  2.2075 -0.7317 -0.4287
  117SOPE    HB12278   2.635   3.219   6.285  1.3522  2.5978 -1.2719
  117SOPE    C212279   2.682   3.255   6.087 -0.1870 -0.4185  0.0109
  117SOPE    HS12280   2.737   3.346   6.120  1.5989 -1.8894  1.3506
  117SOPE   O2112281   2.610   3.274   5.967  0.2343 -0.1015  0.4797
  117SOPE   C2112282   2.671   3.360   5.886 -0.5413 -0.1128  0.4054
  117SOPE   O2212283   2.752   3.439   5.927 -0.6068 -0.4761 -0.2247
  117SOPE   C2212284   2.626   3.338   5.743  0.9727 -0.1531  0.2285
  117SOPE   H2R12285   2.526   3.387   5.731  0.0946 -1.6256  1.1627
  117SOPE   H2S12286   2.615   3.231   5.714 -0.6869  0.0928 -0.1658
  117SOPE    C312287   2.780   3.137   6.071 -0.0166 -0.1933 -0.8763
  117SOPE    HX12288   2.717   3.051   6.040 -0.1819 -1.3745  2.3531
  117SOPE    HY12289   2.823   3.112   6.170  1.4421  2.7203 -0.6837
  117SOPE   O3112290   2.878   3.168   5.978 -0.7429  0.4906  0.3207
  117SOPE   C3112291   2.995   3.219   6.026 -0.3667  0.3321 -0.1932
  117SOPE   O3212292   3.032   3.216   6.140 -0.2784  0.0175  0.2647
  117SOPE   C3212293   3.077   3.270   5.906  0.1371 -0.8754  0.1106
  117SOPE   H2X12294   3.150   3.344   5.945 -1.0286  0.5640 -0.3359
  117SOPE   H2Y12295   3.004   3.319   5.837  0.3070 -0.1260  0.4480
  117SOPE   C2312296   2.728   3.404   5.646 -0.1868 -0.3409 -0.1699
  117SOPE   H3R12297   2.827   3.352   5.644  0.4860  0.8844  0.1714
  117SOPE   H3S12298   2.742   3.509   5.677 -0.6181 -0.2325 -0.3333
  117SOPE   C2412299   2.674   3.407   5.498 -0.6769  0.3470 -0.3977
  117SOPE   H4R12300   2.653   3.305   5.460  2.3867  0.0695 -1.6481
  117SOPE   H4S12301   2.575   3.456   5.491 -1.3772 -1.2890 -4.6309
  117SOPE   C2512302   2.775   3.477   5.411  0.4269 -0.0978  0.6367
  117SOPE   H5R12303   2.769   3.579   5.456 -3.7462  0.0577  0.0812
  117SOPE   H5S12304   2.880   3.442   5.423  1.1117  1.8407  0.7103
  117SOPE   C2612305   2.722   3.456   5.265 -0.2963  0.1804 -0.2434
  117SOPE   H6R12306   2.711   3.347   5.245 -1.4999  0.2643 -0.1115
  117SOPE   H6S12307   2.615   3.485   5.253  0.2311  3.0765  1.1603
  117SOPE   C2712308   2.811   3.528   5.157  0.1780  0.0521  0.2422
  117SOPE   H7R12309   2.801   3.637   5.175  2.1919  0.5669 -1.3281
  117SOPE   H7S12310   2.912   3.486   5.179 -0.2440 -1.0081  0.2224
  117SOPE   C2812311   2.771   3.494   5.015 -0.0581  0.2097  0.2342
  117SOPE   H8R12312   2.774   3.383   5.011  2.5299  0.2274 -0.2841
  117SOPE   H8S12313   2.666   3.521   4.993  0.4742  0.1557 -2.8527
  117SOPE   C2912314   2.871   3.554   4.923  0.1750 -1.0084 -0.0728
  117SOPE   H9112315   2.975   3.549   4.960  0.2380  1.0357  0.1470
  117SOPE  C21012316   2.844   3.624   4.812  0.3338  0.6234  0.1384
  117SOPE  H10112317   2.927   3.675   4.760  1.4712 -1.3783 -0.1236
  117SOPE  C21112318   2.708   3.647   4.757  1.0188 -0.4251 -0.0003
  117SOPE  H11R12319   2.685   3.755   4.745  0.2749 -0.4868  0.8023
  117SOPE  H11S12320   2.628   3.610   4.824 -0.2256  2.4453  0.2512
  117SOPE  C21212321   2.692   3.586   4.616 -0.6689 -0.1605 -0.0271
  117SOPE  H12R12322   2.583   3.585   4.596 -0.7491 -2.2703  0.2434
  117SOPE  H12S12323   2.728   3.481   4.610  2.2742  0.6444  1.6160
  117SOPE  C21312324   2.760   3.676   4.509 -0.8344  0.5302 -0.1321
  117SOPE  H13R12325   2.863   3.701   4.544 -1.1717  1.0529  0.5140
  117SOPE  H13S12326   2.711   3.770   4.476  0.3830  1.4766  0.6387
  117SOPE  C21412327   2.779   3.588   4.376 -0.4979 -0.7069  0.4282
  117SOPE  H14R12328   2.817   3.487   4.400  0.4941 -0.6635 -0.8460
  117SOPE  H14S12329   2.854   3.643   4.314 -1.1338 -0.3282 -0.0212
  117SOPE  C21512330   2.650   3.564   4.294  0.3276 -0.7621 -0.1307
  117SOPE  H15R12331   2.603   3.659   4.262  0.9996 -0.3141  0.1922
  117SOPE  H15S12332   2.570   3.533   4.365  1.7436 -1.7484  1.0919
  117SOPE  C21612333   2.672   3.457   4.193 -0.1750 -0.2385  0.3857
  117SOPE  H16R12334   2.569   3.418   4.180  0.4944 -1.0560 -3.4015
  117SOPE  H16S12335   2.732   3.369   4.224 -0.8322 -1.4889 -1.6924
  117SOPE  C21712336   2.730   3.494   4.059  0.0922 -0.2372 -0.5781
  117SOPE  H17R12337   2.840   3.497   4.075 -0.1668  0.1585  1.3181
  117SOPE  H17S12338   2.698   3.596   4.028  1.1845  0.2059 -0.3125
  117SOPE  C21812339   2.695   3.402   3.939 -0.7097 -0.2146 -0.0892
  117SOPE  H18R12340   2.759   3.415   3.849 -0.4898  1.1347  0.2447
  117SOPE  H18S12341   2.586   3.408   3.918 -0.5684  0.3400 -0.7179
  117SOPE  H18T12342   2.723   3.301   3.975  3.8927  1.4799  1.8733
  117SOPE   C3312343   3.157   3.169   5.825  0.1274  0.1511 -0.4482
  117SOPE   H3X12344   3.231   3.127   5.897 -0.6597 -2.6907 -1.1508
  117SOPE   H3Y12345   3.216   3.212   5.741  1.4389 -1.8531 -0.6254
  117SOPE   C3412346   3.082   3.038   5.789 -0.2678 -0.2787 -0.1968
  117SOPE   H4X12347   3.023   2.998   5.874 -0.2416  1.5623  0.7454
  117SOPE   H4Y12348   3.164   2.966   5.768 -0.2453 -0.2326 -0.2689
  117SOPE   C3512349   2.977   3.060   5.674  0.6346 -0.0726  0.7948
  117SOPE   H5X12350   2.897   3.122   5.719  0.8669 -1.7759  3.7923
  117SOPE   H5Y12351   2.942   2.958   5.646 -1.8788  1.2548 -1.3369
  117SOPE   C3612352   3.043   3.110   5.544 -0.1444  0.0177  0.9174
  117SOPE   H6X12353   3.144   3.065   5.533  0.7514  2.2374 -0.6188
  117SOPE   H6Y12354   3.075   3.216   5.560  0.4660 -0.3016  1.9228
  117SOPE   C3712355   2.953   3.105   5.416  0.6184  0.2508 -0.4288
  117SOPE   H7X12356   2.871   3.173   5.445  2.1603  0.9287  2.8250
  117SOPE   H7Y12357   2.906   3.005   5.402 -1.3220  1.3071 -1.8390
  117SOPE   C3812358   3.027   3.143   5.293 -0.2470 -0.7033 -0.1897
  117SOPE   H8X12359   3.119   3.082   5.281  0.3631  0.0070  0.7210
  117SOPE   H8Y12360   3.068   3.245   5.306 -2.2260 -0.0513  1.5614
  117SOPE   C3912361   2.932   3.128   5.173 -0.0698  0.3036  0.1632
  117SOPE   H9X12362   2.833   3.175   5.188  0.3729  1.2703  0.1382
  117SOPE   H9Y12363   2.909   3.021   5.154 -1.0206  0.8548 -2.1021
  117SOPE  C31012364   3.000   3.183   5.043  0.7700  0.3726  0.2234
  117SOPE  H10X12365   3.103   3.141   5.038  1.0666  1.1784 -3.1747
  117SOPE  H10Y12366   3.003   3.293   5.057 -0.2257  0.7915 -2.2586
  117SOPE  C31112367   2.935   3.160   4.911  0.5678  0.4572  0.2495
  117SOPE  H11X12368   2.838   3.215   4.915  0.2923 -0.0804  2.4244
  117SOPE  H11Y12369   2.897   3.056   4.898  1.4559 -0.0150  1.2617
  117SOPE  C31212370   3.013   3.192   4.785 -0.3181 -0.5859  0.2697
  117SOPE  H12X12371   3.100   3.122   4.777 -0.1452 -0.4405  0.8104
  117SOPE  H12Y12372   3.050   3.296   4.774  1.2128 -0.8805  2.1115
  117SOPE  C31312373   2.928   3.168   4.657 -0.0530  0.0504 -0.5895
  117SOPE  H13X12374   2.828   3.217   4.660 -1.1724 -2.0933 -0.7597
  117SOPE  H13Y12375   2.905   3.059   4.657 -1.2547  0.2783  0.4350
  117SOPE  C31412376   2.997   3.195   4.522  0.3842  0.2333  0.3116
  117SOPE  H14X12377   3.079   3.121   4.512 -1.2640 -1.8565  1.4521
  117SOPE  H14Y12378   3.036   3.298   4.505  0.3593 -0.0573 -1.7345
  117SOPE  C31512379   2.905   3.157   4.406  0.2904  0.0947  0.1807
  117SOPE  H15X12380   2.836   3.238   4.374 -1.2085 -1.2560 -0.1238
  117SOPE  H15Y12381   2.858   3.063   4.440 -0.3706  0.6346  0.7706
  117SOPE  C31612382   2.988   3.121   4.278  0.9491 -0.7803 -0.7102
  117SOPE  H16X12383   2.917   3.066   4.213  1.4083 -0.1974 -1.7347
  117SOPE  H16Y12384   3.072   3.057   4.313  1.6693  0.1480 -0.6977
  117SOPE  C31712385   3.025   3.242   4.187 -0.0959 -0.3310 -0.6719
  117SOPE  H17X12386   3.082   3.312   4.252 -1.5674 -0.6407  1.0372
  117SOPE  H17Y12387   2.936   3.301   4.157  0.2595  0.0738 -0.9318
  117SOPE  C31812388   3.089   3.195   4.064 -0.1897  0.5049  0.5747
  117SOPE  H18X12389   3.026   3.128   4.002  0.8330  1.9203 -2.1510
  117SOPE  H18Y12390   3.181   3.135   4.084 -0.5538 -0.7605 -1.3282
  117SOPE  H18Z12391   3.129   3.276   4.000 -0.4187 -1.1080 -1.7121
  118SOPE     N12392   5.147   5.519   6.270  0.4163  0.6055  0.0453
  118SOPE   HN112393   5.108   5.426   6.294  1.2348  0.5732  1.3891
  118SOPE   HN212394   5.170   5.503   6.170 -1.8283  1.8954 -0.7380
  118SOPE   HN312395   5.228   5.525   6.335  0.8727  0.3349 -0.4938
  118SOPE   C1212396   5.044   5.624   6.289 -0.5304 -0.2280 -0.7834
  118SOPE  H12A12397   5.094   5.724   6.294 -0.2864 -0.3886  0.1902
  118SOPE  H12B12398   5.012   5.607   6.394  2.1790  0.9358  0.3289
  118SOPE   C1112399   4.941   5.627   6.180  0.2173  0.4886  0.0980
  118SOPE  H11A12400   4.860   5.699   6.206  0.2033  1.7605 -3.0501
  118SOPE  H11B12401   4.893   5.528   6.169 -0.4097  0.6486  1.2795
  118SOPE     P12402   5.017   5.795   5.982 -0.1287 -0.0182 -0.2613
  118SOPE   O1312403   5.147   5.867   5.991  0.5630 -0.2211  0.0122
  118SOPE   O1412404   4.902   5.876   6.024 -0.1684  0.3922  0.0628
  118SOPE   O1212405   5.010   5.658   6.057  0.4240  0.1877  0.2298
  118SOPE   O1112406   5.001   5.752   5.826  0.2081 -0.6222  0.1684
  118SOPE    C112407   4.922   5.833   5.739  0.3936 -0.2914  0.4485
  118SOPE    HA12408   4.981   5.889   5.663  0.1953  0.9006  1.1415
  118SOPE    HB12409   4.864   5.916   5.784 -1.2701 -1.8819  1.3679
  118SOPE    C212410   4.809   5.748   5.673  0.1534 -0.6584 -0.5324
  118SOPE    HS12411   4.769   5.678   5.750  2.1009 -0.1898  0.9775
  118SOPE   O2112412   4.869   5.681   5.558  0.0786  0.1014 -0.6281
  118SOPE   C2112413   4.796   5.617   5.478 -0.5132 -0.2068 -0.0713
  118SOPE   O2212414   4.679   5.591   5.494 -0.3616 -0.1075 -0.2021
  118SOPE   C2212415   4.888   5.582   5.360 -0.3322 -0.3387  0.0389
  118SOPE   H2R12416   4.984   5.549   5.403  0.2859 -0.7536 -1.5758
  118SOPE   H2S12417   4.893   5.663   5.284  1.7245 -0.4716 -0.0170
  118SOPE    C312418   4.683   5.840   5.637 -0.3219  0.0368  0.1467
  118SOPE    HX12419   4.663   5.911   5.720 -2.0031 -0.9924  0.6833
  118SOPE    HY12420   4.594   5.774   5.636  0.3097 -0.9036  1.7268
  118SOPE   O3112421   4.702   5.903   5.505 -0.4623 -0.6885 -0.1491
  118SOPE   C3112422   4.646   6.029   5.503 -0.0216  0.0457  0.3152
  118SOPE   O3212423   4.593   6.086   5.595  0.1101 -0.1942  0.3312
  118SOPE   C3212424   4.666   6.075   5.361  0.2260 -0.2776 -0.0016
  118SOPE   H2X12425   4.588   6.023   5.301 -0.2161 -0.7386  0.9461
  118SOPE   H2Y12426   4.763   6.041   5.319 -1.0527 -2.3742 -1.4458
  118SOPE   C2312427   4.845   5.455   5.278  0.4582 -0.0726 -0.1777
  118SOPE   H3R12428   4.803   5.484   5.179  0.9669  1.1516 -0.0446
  118SOPE   H3S12429   4.757   5.406   5.325  1.2685 -2.6756 -1.1844
  118SOPE   C2412430   4.956   5.350   5.267  0.3422 -0.4021  0.0596
  118SOPE   H4R12431   5.027   5.389   5.192 -2.2957  2.9120 -0.9863
  118SOPE   H4S12432   4.997   5.320   5.366  2.3120 -4.4957 -1.7726
  118SOPE   C2512433   4.884   5.219   5.238 -0.2395 -0.0508  0.1229
  118SOPE   H5R12434   4.803   5.200   5.312 -1.7715  1.3591 -1.0938
  118SOPE   H5S12435   4.831   5.235   5.141  0.9933  2.0438 -0.2596
  118SOPE   C2612436   4.980   5.108   5.212  0.0343  0.3747 -0.1196
  118SOPE   H6R12437   5.055   5.092   5.292 -0.8756 -0.5452  0.5742
  118SOPE   H6S12438   4.927   5.011   5.203 -1.1534  0.6589  2.7678
  118SOPE   C2712439   5.053   5.127   5.081 -0.5920 -0.4795 -0.7608
  118SOPE   H7R12440   4.976   5.136   5.002  0.8947 -2.7974 -2.6125
  118SOPE   H7S12441   5.110   5.223   5.083 -1.5184  0.0860 -0.6215
  118SOPE   C2812442   5.140   5.004   5.043  0.2535  0.1838  0.2119
  118SOPE   H8R12443   5.210   5.003   5.130  0.7315  0.6906 -0.1581
  118SOPE   H8S12444   5.078   4.913   5.047 -1.2611  1.2092  0.8242
  118SOPE   C2912445   5.205   5.009   4.905 -0.6673 -0.6162 -0.0737
  118SOPE   H9112446   5.265   5.098   4.882 -3.3358  0.9971 -1.2694
  118SOPE  C21012447   5.211   4.912   4.814  0.4367 -0.2808 -0.1625
  118SOPE  H10112448   5.242   4.951   4.717 -0.8246 -0.7424 -0.7678
  118SOPE  C21112449   5.164   4.769   4.808  0.2150 -0.2805  0.1614
  118SOPE  H11R12450   5.137   4.742   4.703  0.8479  1.3783 -0.4671
  118SOPE  H11S12451   5.077   4.755   4.875  0.8029  0.6492  1.1381
  118SOPE  C21212452   5.276   4.664   4.829 -0.8508 -0.3182  0.2623
  118SOPE  H12R12453   5.344   4.692   4.912 -0.1786 -0.0305 -0.3763
  118SOPE  H12S12454   5.346   4.661   4.743 -2.0975 -1.4916 -0.7538
  118SOPE  C21312455   5.225   4.528   4.858  0.1892 -0.7174 -1.0633
  118SOPE  H13R12456   5.147   4.497   4.785  0.8803 -2.0907 -1.2421
  118SOPE  H13S12457   5.177   4.525   4.958 -3.2939  2.4256 -2.4069
  118SOPE  C21412458   5.335   4.415   4.852 -0.1221 -0.1451 -0.6875
  118SOPE  H14R12459   5.403   4.423   4.765  0.1118 -1.5745 -0.6690
  118SOPE  H14S12460   5.274   4.324   4.832 -1.9432  0.8157  0.2478
  118SOPE  C21512461   5.416   4.395   4.983  0.0285  0.1684 -0.1275
  118SOPE  H15R12462   5.456   4.490   5.025  1.2667 -0.7605  0.8588
  118SOPE  H15S12463   5.509   4.344   4.951  0.3053  0.7040 -0.1757
  118SOPE  C21612464   5.336   4.314   5.085 -0.5007  0.4343  0.1823
  118SOPE  H16R12465   5.311   4.213   5.045  0.1708  0.7574 -1.1009
  118SOPE  H16S12466   5.249   4.372   5.122  0.6417  1.3029  1.5959
  118SOPE  C21712467   5.423   4.303   5.206  0.3337 -0.5058 -0.0420
  118SOPE  H17R12468   5.460   4.406   5.225  0.5394 -0.4572 -0.6890
  118SOPE  H17S12469   5.515   4.241   5.200  0.0276 -0.8432 -1.4699
  118SOPE  C21812470   5.340   4.244   5.326 -0.2347  0.0404 -0.1419
  118SOPE  H18R12471   5.236   4.280   5.334  0.7922  3.3213 -0.3101
  118SOPE  H18S12472   5.378   4.273   5.427 -0.1939 -3.5308  1.0291
  118SOPE  H18T12473   5.358   4.134   5.323  1.2386  0.2147  0.8696
  118SOPE   C3312474   4.635   6.224   5.347  0.0586 -0.3917 -0.8998
  118SOPE   H3X12475   4.655   6.268   5.447 -2.3350 -0.8699 -0.1582
  118SOPE   H3Y12476   4.531   6.247   5.315  0.2798  1.7656 -0.2328
  118SOPE   C3412477   4.738   6.292   5.250  0.3147  0.4479 -0.7689
  118SOPE   H4X12478   4.841   6.286   5.292 -0.1416 -0.4072  0.2764
  118SOPE   H4Y12479   4.701   6.396   5.240 -2.5211 -0.5315 -1.5274
  118SOPE   C3512480   4.721   6.241   5.111 -0.2750  0.2463  0.2762
  118SOPE   H5X12481   4.616   6.257   5.080 -0.7108  0.0417  1.5896
  118SOPE   H5Y12482   4.736   6.131   5.114 -0.5226  0.2258  2.3633
  118SOPE   C3612483   4.803   6.306   4.998 -0.2078  0.5646 -0.4338
  118SOPE   H6X12484   4.790   6.417   5.004  1.6156  0.7441  1.0179
  118SOPE   H6Y12485   4.753   6.272   4.905  0.3173  0.9175 -0.8595
  118SOPE   C3712486   4.943   6.248   5.000  0.1090  0.4336  0.0849
  118SOPE   H7X12487   4.929   6.139   4.981 -1.7559  1.0218 -2.4964
  118SOPE   H7Y12488   4.992   6.278   5.094  1.7502  0.9870 -0.9196
  118SOPE   C3812489   5.020   6.311   4.888 -0.6134  0.0703 -0.7669
  118SOPE   H8X12490   5.125   6.335   4.912  0.1008 -2.8054 -0.7783
  118SOPE   H8Y12491   4.975   6.413   4.876 -1.0890 -0.2375 -1.7474
  118SOPE   C3912492   5.017   6.237   4.755 -0.1276  0.0690  0.0012
  118SOPE   H9X12493   4.912   6.225   4.720 -0.2699  0.5579  0.2638
  118SOPE   H9Y12494   5.067   6.137   4.759 -0.9000 -0.2873  1.1091
  118SOPE  C31012495   5.097   6.323   4.652 -0.3133 -0.2261  0.3338
  118SOPE  H10X12496   5.203   6.322   4.687 -0.3775 -1.4799  0.5444
  118SOPE  H10Y12497   5.049   6.423   4.649 -0.2753 -0.2317 -1.7576
  118SOPE  C31112498   5.084   6.280   4.507 -0.0994  0.2189  0.6692
  118SOPE  H11X12499   4.981   6.291   4.465  0.4635  0.4166 -0.7064
  118SOPE  H11Y12500   5.116   6.175   4.494 -2.2096 -0.2961 -0.8100
  118SOPE  C31212501   5.158   6.362   4.412 -0.0955 -0.2877 -0.2369
  118SOPE  H12X12502   5.264   6.330   4.418  0.2327  0.9483  1.0211
  118SOPE  H12Y12503   5.161   6.469   4.439  3.4093 -0.0549 -1.0376
  118SOPE  C31312504   5.097   6.362   4.270 -0.3467 -0.2549  0.4635
  118SOPE  H13X12505   5.154   6.437   4.211 -1.7093  0.8879  0.5381
  118SOPE  H13Y12506   4.991   6.393   4.279 -1.0177 -2.1402 -0.6518
  118SOPE  C31412507   5.107   6.233   4.192 -0.8187  0.1958 -0.6745
  118SOPE  H14X12508   5.102   6.263   4.085 -0.2886 -0.0950 -0.7852
  118SOPE  H14Y12509   5.027   6.162   4.221 -0.7637  0.3487 -0.1281
  118SOPE  C31512510   5.244   6.169   4.208  0.8923  0.0902  0.6031
  118SOPE  H15X12511   5.261   6.145   4.316 -1.9350  2.1695  1.6461
  118SOPE  H15Y12512   5.328   6.241   4.203  1.9973 -1.0858  1.4470
  118SOPE  C31612513   5.264   6.054   4.106  0.5749 -0.0589 -0.0905
  118SOPE  H16X12514   5.239   6.104   4.009  0.1802  2.7523  1.3537
  118SOPE  H16Y12515   5.189   5.977   4.130  0.6467  0.1992  0.9939
  118SOPE  C31712516   5.407   6.001   4.101  0.1782  0.4739  0.4085
  118SOPE  H17X12517   5.431   5.953   4.198 -1.6414  1.3711  1.3575
  118SOPE  H17Y12518   5.480   6.084   4.089  1.7560 -1.0458 -1.0817
  118SOPE  C31812519   5.421   5.904   3.986  0.0033 -0.1826 -0.2675
  118SOPE  H18X12520   5.344   5.825   4.000  0.7634 -0.9639 -0.3751
  118SOPE  H18Y12521   5.524   5.864   3.998  1.1181  2.4570 -0.3951
  118SOPE  H18Z12522   5.418   5.948   3.884 -0.7384 -0.3230 -0.3121
  119SOPE     N12523   5.279   5.679   5.729  0.5483  0.8308 -0.5715
  119SOPE   HN112524   5.188   5.701   5.775 -0.1561 -0.1393 -1.4313
  119SOPE   HN212525   5.303   5.578   5.736  2.4713  1.2128 -1.1396
  119SOPE   HN312526   5.350   5.715   5.795  1.5148 -1.7124 -0.1099
  119SOPE   C1212527   5.288   5.752   5.597 -0.4172 -0.8011  0.1305
  119SOPE  H12A12528   5.196   5.733   5.537  0.5732  0.0048 -1.7193
  119SOPE  H12B12529   5.373   5.706   5.543  1.8253 -2.4378  4.5365
  119SOPE   C1112530   5.313   5.897   5.613 -1.0798 -0.3815 -0.3218
  119SOPE  H11A12531   5.236   5.934   5.684 -1.6088  0.3602 -1.2543
  119SOPE  H11B12532   5.301   5.958   5.521  1.2037  0.8009  0.0828
  119SOPE     P12533   5.498   5.938   5.801 -0.5355 -0.2009 -0.7002
  119SOPE   O1312534   5.462   5.824   5.886 -0.0547  0.4654 -0.2113
  119SOPE   O1412535   5.454   6.066   5.856 -0.5207 -0.1537  0.1612
  119SOPE   O1212536   5.451   5.917   5.657  0.0273 -0.0734  0.1530
  119SOPE   O1112537   5.656   5.935   5.798  0.0665 -0.1108  0.0450
  119SOPE    C112538   5.737   6.019   5.726 -0.2066  0.9327 -0.0001
  119SOPE    HA12539   5.756   6.110   5.785 -1.6224  0.0179  1.9816
  119SOPE    HB12540   5.685   6.045   5.631  0.2297 -1.1512 -0.8739
  119SOPE    C212541   5.858   5.944   5.659  0.5475 -0.6578 -0.0758
  119SOPE    HS12542   5.910   5.913   5.752  1.0334 -0.7474 -0.3757
  119SOPE   O2112543   5.942   6.043   5.592  0.5777 -0.3023 -0.1933
  119SOPE   C2112544   6.069   6.002   5.571  0.0795 -0.1148  0.3503
  119SOPE   O2212545   6.118   5.892   5.598  0.3141  0.2619  0.0168
  119SOPE   C2212546   6.144   6.113   5.508 -0.2278 -0.0188  0.5836
  119SOPE   H2R12547   6.205   6.161   5.588  0.7206  1.3186 -0.8991
  119SOPE   H2S12548   6.081   6.193   5.465  0.3827  0.9466  1.4282
  119SOPE    C312549   5.837   5.823   5.565 -0.3844 -0.3308 -0.7429
  119SOPE    HX12550   5.773   5.748   5.617 -2.0839  0.3391 -1.7465
  119SOPE    HY12551   5.923   5.759   5.538 -0.8176 -0.9234 -0.7410
  119SOPE   O3112552   5.768   5.872   5.450 -0.1095 -0.0920 -0.2413
  119SOPE   C3112553   5.659   5.807   5.412 -0.8480  0.4779 -0.3529
  119SOPE   O3212554   5.623   5.700   5.451 -0.2373  0.6197  0.1394
  119SOPE   C3212555   5.581   5.895   5.311  0.1113  0.1324 -0.3350
  119SOPE   H2X12556   5.476   5.912   5.345 -0.4504 -0.6156 -1.6022
  119SOPE   H2Y12557   5.568   5.821   5.229 -1.8762  0.5671 -0.4663
  119SOPE   C2312558   6.242   6.071   5.394 -0.0592 -0.8293 -0.7194
  119SOPE   H3R12559   6.302   5.983   5.426 -1.6390 -1.6756  0.0526
  119SOPE   H3S12560   6.298   6.166   5.389 -0.9440 -0.3033 -0.9326
  119SOPE   C2412561   6.170   6.041   5.264 -0.1615  0.3737 -0.4112
  119SOPE   H4R12562   6.230   5.961   5.216  0.3981 -0.6301  1.8082
  119SOPE   H4S12563   6.073   5.998   5.299 -0.1702  1.4372  0.9570
  119SOPE   C2512564   6.136   6.163   5.187  0.0089  0.5517 -0.1554
  119SOPE   H5R12565   6.061   6.231   5.233 -0.9838  1.8533 -3.4135
  119SOPE   H5S12566   6.229   6.222   5.170  1.1375 -1.6490 -2.1780
  119SOPE   C2612567   6.063   6.135   5.055 -0.4599  0.5016 -0.4112
  119SOPE   H6R12568   6.109   6.045   5.009  0.6044  0.3763  0.8287
  119SOPE   H6S12569   5.964   6.094   5.085 -0.1034 -0.5778 -0.6684
  119SOPE   C2712570   6.060   6.258   4.966  0.0335  0.2290  0.9886
  119SOPE   H7R12571   6.001   6.343   5.008 -3.6059  0.0660 -3.1797
  119SOPE   H7S12572   6.164   6.296   4.959  0.5787 -1.0746  1.6362
  119SOPE   C2812573   6.021   6.235   4.824 -1.0109  0.4603  0.7462
  119SOPE   H8R12574   6.045   6.316   4.752 -2.4773 -0.5902 -1.0286
  119SOPE   H8S12575   6.096   6.160   4.793 -0.5319  0.6745  1.3644
  119SOPE   C2912576   5.880   6.190   4.797 -0.7365  0.2521 -0.2618
  119SOPE   H9112577   5.847   6.114   4.870  1.3668 -0.4012  0.0779
  119SOPE  C21012578   5.797   6.241   4.709 -0.6835 -1.1497  0.1915
  119SOPE  H10112579   5.704   6.186   4.687  0.0297 -1.8254 -1.3103
  119SOPE  C21112580   5.819   6.356   4.612  0.5489 -0.6650  0.8031
  119SOPE  H11R12581   5.898   6.343   4.535 -0.5109 -0.1520 -0.4233
  119SOPE  H11S12582   5.846   6.444   4.675  2.4113  0.1894 -1.0569
  119SOPE  C21212583   5.690   6.408   4.545  0.5131 -0.4040 -0.2488
  119SOPE  H12R12584   5.707   6.514   4.517 -3.1608  0.3644 -0.0449
  119SOPE  H12S12585   5.610   6.414   4.623  1.8062 -2.3679  1.3495
  119SOPE  C21312586   5.627   6.317   4.436  0.0320  0.4179 -0.3557
  119SOPE  H13R12587   5.528   6.365   4.420 -1.3033 -1.0422  2.7150
  119SOPE  H13S12588   5.613   6.211   4.469  1.2697  0.3798  0.1053
  119SOPE  C21412589   5.702   6.331   4.304 -0.9937 -0.7528  0.2356
  119SOPE  H14R12590   5.679   6.240   4.244  1.8001 -2.3491  1.3887
  119SOPE  H14S12591   5.811   6.316   4.314 -1.1764 -2.2046  0.2811
  119SOPE  C21512592   5.674   6.467   4.230  0.2146  0.5607 -0.5356
  119SOPE  H15R12593   5.765   6.487   4.169 -0.0422 -1.2908 -1.6141
  119SOPE  H15S12594   5.680   6.548   4.305 -0.0619 -1.2618  1.5790
  119SOPE  C21612595   5.539   6.470   4.167  0.2138  0.1663 -0.1619
  119SOPE  H16R12596   5.464   6.441   4.243 -0.1238  0.4013 -0.3974
  119SOPE  H16S12597   5.536   6.400   4.081 -3.5644  0.7871 -0.7091
  119SOPE  C21712598   5.502   6.607   4.093  0.9058  0.1593  0.0036
  119SOPE  H17R12599   5.589   6.650   4.039  0.7581  0.2432 -0.1673
  119SOPE  H17S12600   5.480   6.683   4.170  1.1097 -0.6674  0.9021
  119SOPE  C21812601   5.385   6.594   4.004  0.0948 -0.5310  0.3104
  119SOPE  H18R12602   5.361   6.685   3.944 -0.0528 -0.6258  0.2257
  119SOPE  H18S12603   5.297   6.565   4.064  1.6720 -1.4328  2.2928
  119SOPE  H18T12604   5.397   6.511   3.930  1.8613 -0.4566  0.4694
  119SOPE   C3312605   5.635   6.026   5.248  0.2725  0.6013 -0.5831
  119SOPE   H3X12606   5.725   5.991   5.194 -0.1967 -0.4684 -0.7132
  119SOPE   H3Y12607   5.661   6.093   5.333  0.4764 -0.1691 -0.0173
  119SOPE   C3412608   5.534   6.085   5.156  0.3101 -0.6729 -0.4876
  119SOPE   H4X12609   5.433   6.068   5.199  0.7065 -0.7718  0.4268
  119SOPE   H4Y12610   5.539   6.024   5.064  1.4374  0.1224 -0.9654
  119SOPE   C3512611   5.546   6.229   5.118 -0.6521 -0.2605 -0.3587
  119SOPE   H5X12612   5.644   6.242   5.068  0.6753  2.1541  2.5660
  119SOPE   H5Y12613   5.552   6.305   5.199 -0.7734  0.6294 -1.1688
  119SOPE   C3612614   5.447   6.288   5.016 -0.6206 -0.4827  0.0853
  119SOPE   H6X12615   5.360   6.326   5.073 -0.2320  0.0137  0.3533
  119SOPE   H6Y12616   5.422   6.210   4.941  1.2021 -2.0292  0.9844
  119SOPE   C3712617   5.512   6.414   4.952 -0.4200  1.0549  0.4897
  119SOPE   H7X12618   5.607   6.390   4.900 -1.0312 -1.2242  0.2900
  119SOPE   H7Y12619   5.537   6.486   5.032 -0.2140  0.5457  0.8911
  119SOPE   C3812620   5.420   6.483   4.851  0.2603 -0.1981 -0.6244
  119SOPE   H8X12621   5.320   6.498   4.896  0.2049  2.6511 -1.5014
  119SOPE   H8Y12622   5.398   6.415   4.766  0.3589 -0.4588 -0.4435
  119SOPE   C3912623   5.485   6.614   4.788 -0.7319  0.1615  0.4226
  119SOPE   H9X12624   5.585   6.594   4.744 -1.2295  1.5911 -1.4912
  119SOPE   H9Y12625   5.493   6.689   4.869  0.4021  0.8697 -0.3145
  119SOPE  C31012626   5.392   6.666   4.668 -0.4201  0.1773  0.2305
  119SOPE  H10X12627   5.295   6.700   4.711 -0.8080 -0.6114  0.0053
  119SOPE  H10Y12628   5.354   6.583   4.605 -2.7919  0.9007  0.6249
  119SOPE  C31112629   5.469   6.759   4.571 -0.0657 -0.0889  0.0034
  119SOPE  H11X12630   5.564   6.715   4.534  1.3882  2.4261  0.4879
  119SOPE  H11Y12631   5.498   6.850   4.629  0.1644  0.9815 -1.7182
  119SOPE  C31212632   5.375   6.795   4.445  0.3835  0.0140 -0.0028
  119SOPE  H12X12633   5.278   6.827   4.487 -0.3343 -1.7611 -0.2273
  119SOPE  H12Y12634   5.359   6.707   4.379  0.9959  1.4544 -2.2140
  119SOPE  C31312635   5.421   6.913   4.360 -0.4456  0.3167  0.6096
  119SOPE  H13X12636   5.526   6.890   4.331 -0.7465 -1.6025  0.8711
  119SOPE  H13Y12637   5.417   7.001   4.428  1.0026 -0.8139  2.2481
  119SOPE  C31412638   5.339   6.942   4.242 -0.4091  0.4236 -0.1406
  119SOPE  H14X12639   5.231   6.937   4.269 -0.3227  2.0968  0.6549
  119SOPE  H14Y12640   5.347   6.857   4.171  0.8423 -0.8106  1.4075
  119SOPE  C31512641   5.374   7.065   4.161 -0.7126 -0.4738  0.2052
  119SOPE  H15X12642   5.483   7.069   4.144 -0.6340  1.1115  0.8909
  119SOPE  H15Y12643   5.345   7.153   4.222 -1.0817 -1.5921  1.7236
  119SOPE  C31612644   5.305   7.061   4.027  0.1668 -0.1873  0.7271
  119SOPE  H16X12645   5.200   7.027   4.041  0.9819 -2.2871  2.0162
  119SOPE  H16Y12646   5.350   6.983   3.963 -0.2270 -0.3406  0.6319
  119SOPE  C31712647   5.289   7.197   3.949 -0.4735  0.2121  0.4876
  119SOPE  H17X12648   5.389   7.217   3.904 -0.9427  0.2779 -0.5628
  119SOPE  H17Y12649   5.263   7.274   4.025  1.9074  1.5346  0.0715
  119SOPE  C31812650   5.180   7.198   3.838  0.2848 -0.2773 -0.7198
  119SOPE  H18X12651   5.153   7.304   3.823 -4.8952 -1.3058 -0.5747
  119SOPE  H18Y12652   5.090   7.142   3.872 -1.2679  1.8235 -1.2208
  119SOPE  H18Z12653   5.211   7.155   3.740 -0.4060 -0.6311 -0.7844
  120SOPE     N12654   6.175   0.512   6.169  0.3595  0.3982 -0.6874
  120SOPE   HN112655   6.107   0.510   6.247  0.1505 -0.5966 -0.8777
  120SOPE   HN212656   6.134   0.529   6.074  0.7397  0.8518 -0.7765
  120SOPE   HN312657   6.206   0.413   6.174 -0.0619  0.3172  3.0177
  120SOPE   C1212658   6.283   0.616   6.181  0.5245 -0.0488  0.1179
  120SOPE  H12A12659   6.374   0.571   6.137  0.4817 -0.4559  0.4436
  120SOPE  H12B12660   6.302   0.639   6.288  1.3780  2.4716 -0.5015
  120SOPE   C1112661   6.233   0.743   6.101  0.4458  0.1892 -0.3827
  120SOPE  H11A12662   6.236   0.710   5.995  1.8448  0.3900 -0.4244
  120SOPE  H11B12663   6.298   0.827   6.134  0.6980 -0.1715  0.0582
  120SOPE     P12664   6.040   0.920   6.130  0.3755 -0.1749  0.1940
  120SOPE   O1312665   6.138   1.022   6.179  0.2889  0.1147  0.2638
  120SOPE   O1412666   5.908   0.925   6.186 -0.2689  0.6693  0.4040
  120SOPE   O1212667   6.097   0.773   6.152  0.3575 -0.1459  0.3949
  120SOPE   O1112668   6.041   0.925   5.971 -0.2942  0.5542  0.3107
  120SOPE    C112669   5.979   0.820   5.899  0.0946  0.3728 -0.6768
  120SOPE    HA12670   5.934   0.744   5.965  1.0963  0.8840  0.6253
  120SOPE    HB12671   6.061   0.767   5.846  1.1213  0.6697  0.5783
  120SOPE    C212672   5.873   0.868   5.805  0.0300 -0.6319  0.0807
  120SOPE    HS12673   5.810   0.784   5.767  1.1693 -1.9965  1.0759
  120SOPE   O2112674   5.936   0.940   5.694  0.0080  0.0977  0.3880
  120SOPE   C2112675   5.935   0.873   5.583  0.6180 -0.0169  0.7917
  120SOPE   O2212676   5.900   0.760   5.564  0.2582  0.1043  0.5956
  120SOPE   C2212677   5.967   0.970   5.475  0.1857  0.0306 -0.9799
  120SOPE   H2R12678   6.077   0.981   5.465  0.4053 -0.9892  0.0615
  120SOPE   H2S12679   5.927   1.069   5.506  2.3347  1.5097 -2.6231
  120SOPE    C312680   5.770   0.971   5.870  0.6521 -0.8376 -0.1654
  120SOPE    HX12681   5.827   1.056   5.912  1.5681 -1.7081  0.3880
  120SOPE    HY12682   5.728   0.927   5.962  0.3376  1.0790  0.6515
  120SOPE   O3112683   5.662   1.012   5.778 -0.3918  0.4078 -0.0937
  120SOPE   C3112684   5.563   0.929   5.776  0.3860 -0.4029  0.9541
  120SOPE   O3212685   5.544   0.837   5.855  0.0201 -0.3603 -0.7042
  120SOPE   C3212686   5.470   0.954   5.659 -0.7151 -0.3900  0.7234
  120SOPE   H2X12687   5.430   1.057   5.669 -1.8496 -0.6507 -0.7911
  120SOPE   H2Y12688   5.393   0.874   5.661  0.3284 -1.4729 -0.5873
  120SOPE   C2312689   5.914   0.939   5.334  0.4360 -0.0253 -0.3845
  120SOPE   H3R12690   5.803   0.932   5.338  0.2544  2.5886  1.7584
  120SOPE   H3S12691   5.953   0.844   5.292  1.0697  0.9852 -2.2232
  120SOPE   C2412692   5.939   1.050   5.232 -1.0304  0.2473  0.0167
  120SOPE   H4R12693   5.905   1.141   5.285  1.9730  0.8589  1.0720
  120SOPE   H4S12694   6.050   1.049   5.221 -1.0986 -2.1103 -1.1790
  120SOPE   C2512695   5.888   1.022   5.089 -0.8326 -0.8534 -0.1826
  120SOPE   H5R12696   5.786   0.979   5.100 -0.1460 -2.5985 -0.2536
  120SOPE   H5S12697   5.888   1.123   5.043 -0.8915  1.4020  4.2727
  120SOPE   C2612698   5.992   0.948   5.008  0.4290  0.1421  0.3165
  120SOPE   H6R12699   6.092   0.995   5.017  1.6467 -1.8054 -2.0338
  120SOPE   H6S12700   6.008   0.850   5.055 -1.8008 -0.7050 -0.5206
  120SOPE   C2712701   5.961   0.927   4.862 -0.4704 -0.5036  0.3409
  120SOPE   H7R12702   5.864   0.875   4.845 -0.2852 -0.1268 -2.2761
  120SOPE   H7S12703   5.924   1.022   4.818 -3.8670 -1.9926 -0.3079
  120SOPE   C2812704   6.075   0.860   4.778  0.9810 -0.2398  0.5508
  120SOPE   H8R12705   6.142   0.945   4.756 -1.8155  2.8728  3.0536
  120SOPE   H8S12706   6.123   0.780   4.839  1.8025 -0.7771 -0.7580
  120SOPE   C2912707   6.028   0.802   4.644  0.3450 -0.1936 -0.2573
  120SOPE   H9112708   5.920   0.790   4.626 -0.4057  0.8192  2.8995
  120SOPE  C21012709   6.108   0.747   4.554 -0.2001 -0.4213  0.6487
  120SOPE  H10112710   6.058   0.691   4.474 -0.2315  0.1710  0.2481
  120SOPE  C21112711   6.257   0.732   4.568  0.4270  0.6619  0.3913
  120SOPE  H11R12712   6.290   0.632   4.603  0.3229 -0.1925 -1.7740
  120SOPE  H11S12713   6.296   0.813   4.632  2.0990 -0.4416  0.8279
  120SOPE  C21212714   6.314   0.763   4.431 -0.2420  0.3412 -0.5120
  120SOPE  H12R12715   6.418   0.799   4.445 -0.9765  2.6278 -0.5490
  120SOPE  H12S12716   6.263   0.854   4.391 -3.9204 -0.6154  1.5119
  120SOPE  C21312717   6.315   0.657   4.322  0.2220  0.6279 -0.4654
  120SOPE  H13R12718   6.211   0.645   4.285  0.2537 -0.3897 -0.2621
  120SOPE  H13S12719   6.350   0.559   4.362  2.5381  2.4944  2.5592
  120SOPE  C21412720   6.418   0.681   4.212 -0.2010 -0.5483 -0.3982
  120SOPE  H14R12721   6.508   0.629   4.253 -0.8405 -2.8149 -1.6730
  120SOPE  H14S12722   6.436   0.790   4.201  1.3419 -0.7604 -0.2457
  120SOPE  C21512723   6.375   0.644   4.073  0.0149 -0.5923  0.3415
  120SOPE  H15R12724   6.268   0.672   4.075 -0.2625 -1.5799 -0.0197
  120SOPE  H15S12725   6.378   0.534   4.054 -2.0953 -0.2246 -2.7636
  120SOPE  C21612726   6.447   0.722   3.957 -0.3032  0.3746  0.5362
  120SOPE  H16R12727   6.432   0.832   3.967  0.3117  0.4196  0.9991
  120SOPE  H16S12728   6.391   0.680   3.871 -1.0645 -1.1860  1.7385
  120SOPE  C21712729   6.605   0.694   3.951  0.0116 -0.0391  0.3219
  120SOPE  H17R12730   6.638   0.588   3.956  0.7999  0.2403  1.1252
  120SOPE  H17S12731   6.656   0.727   4.044 -0.7582 -2.2996  1.6458
  120SOPE  C21812732   6.666   0.749   3.822 -0.1289  0.0224  0.8607
  120SOPE  H18R12733   6.770   0.711   3.811  0.1726  1.3934 -2.1248
  120SOPE  H18S12734   6.661   0.860   3.818 -1.0672 -0.0294  0.0379
  120SOPE  H18T12735   6.611   0.709   3.734  2.1961 -0.0060 -0.6581
  120SOPE   C3312736   5.548   0.933   5.526 -0.2635  0.4905  0.3174
  120SOPE   H3X12737   5.597   0.836   5.544  0.4166  0.2715 -2.4117
  120SOPE   H3Y12738   5.623   1.014   5.512 -1.6710  1.6952 -0.5586
  120SOPE   C3412739   5.455   0.924   5.408  0.0756  0.2048 -0.4381
  120SOPE   H4X12740   5.380   1.006   5.404  1.1427  1.4044  2.0777
  120SOPE   H4Y12741   5.394   0.834   5.430  0.0609 -0.0498 -1.4553
  120SOPE   C3512742   5.514   0.913   5.266  0.2588 -0.7114  0.0032
  120SOPE   H5X12743   5.594   0.837   5.262  0.8015 -0.1424 -0.0944
  120SOPE   H5Y12744   5.566   1.011   5.256  3.6743 -2.4152 -0.2112
  120SOPE   C3612745   5.410   0.904   5.148 -0.1608  0.8207  0.0313
  120SOPE   H6X12746   5.335   0.984   5.167 -1.8466 -0.4229 -1.1012
  120SOPE   H6Y12747   5.359   0.806   5.161  0.4434 -0.0219 -3.0168
  120SOPE   C3712748   5.475   0.906   5.007  0.4467 -0.1259 -0.2635
  120SOPE   H7X12749   5.409   0.852   4.935 -0.9277  1.9380 -0.6517
  120SOPE   H7Y12750   5.579   0.867   5.000 -0.3990 -2.3731 -1.2999
  120SOPE   C3812751   5.486   1.044   4.938  0.3712 -0.6178 -0.0798
  120SOPE   H8X12752   5.537   1.112   5.010  1.5472 -0.3364 -1.1565
  120SOPE   H8Y12753   5.392   1.096   4.909  0.3378  0.7418  2.2244
  120SOPE   C3912754   5.578   1.042   4.814 -0.3782 -0.1706 -0.0391
  120SOPE   H9X12755   5.682   1.019   4.844 -0.3666 -2.9367 -1.9150
  120SOPE   H9Y12756   5.581   1.140   4.761  1.0438 -0.8294 -1.2405
  120SOPE  C31012757   5.550   0.933   4.706  0.2251 -0.5413 -0.2304
  120SOPE  H10X12758   5.446   0.938   4.668  0.3050 -1.3914 -0.5815
  120SOPE  H10Y12759   5.564   0.836   4.759 -0.4948 -1.1094 -1.0479
  120SOPE  C31112760   5.652   0.947   4.591  0.0596 -0.4381  0.2478
  120SOPE  H11X12761   5.757   0.957   4.624 -0.7667  2.6906  2.2923
  120SOPE  H11Y12762   5.637   1.038   4.529  0.2675 -0.0856  0.7213
  120SOPE  C31212763   5.650   0.820   4.506 -0.4227  0.7623  0.2653
  120SOPE  H12X12764   5.545   0.796   4.478  0.3701 -0.6388 -1.8348
  120SOPE  H12Y12765   5.668   0.726   4.562 -1.0403  0.2283 -0.3975
  120SOPE  C31312766   5.735   0.818   4.377  0.7395  0.3238  0.3735
  120SOPE  H13X12767   5.810   0.900   4.370  1.7752 -0.6328 -0.0175
  120SOPE  H13Y12768   5.657   0.842   4.301  0.1181 -0.4901  0.7430
  120SOPE  C31412769   5.797   0.680   4.352 -0.2915  0.2112 -0.1437
  120SOPE  H14X12770   5.732   0.596   4.385  0.8048  0.0477  1.7270
  120SOPE  H14Y12771   5.884   0.676   4.420  0.6631 -1.6501 -1.3925
  120SOPE  C31512772   5.854   0.653   4.212  0.2742  0.3529  0.3495
  120SOPE  H15X12773   5.769   0.647   4.141 -0.1162  1.5680  0.6931
  120SOPE  H15Y12774   5.900   0.552   4.209  0.7064  0.4283  2.4934
  120SOPE  C31612775   5.946   0.756   4.150 -0.0528 -0.5105  0.3606
  120SOPE  H16X12776   6.035   0.775   4.213  1.1404 -2.4069 -0.6410
  120SOPE  H16Y12777   5.894   0.853   4.136  0.7210 -0.0761  0.4786
  120SOPE  C31712778   5.999   0.715   4.017 -0.7481  0.2461  0.2521
  120SOPE  H17X12779   6.047   0.615   4.027  0.1041  0.4969 -1.0426
  120SOPE  H17Y12780   6.080   0.783   3.983 -2.1285  2.8835  1.9660
  120SOPE  C31812781   5.897   0.711   3.912  0.0153  0.1639 -0.3105
  120SOPE  H18X12782   5.846   0.808   3.893 -1.5420 -0.5657 -0.0123
  120SOPE  H18Y12783   5.817   0.637   3.935  0.2050  0.2873  0.7613
  120SOPE  H18Z12784   5.942   0.688   3.813  1.4320  2.8357 -0.3760
  121SOPE     N12785   5.264   6.134   6.040  0.5760 -0.1348 -0.4864
  121SOPE   HN112786   5.328   6.101   5.965  0.5548 -2.4108  0.4192
  121SOPE   HN212787   5.224   6.043   6.070  0.3307  0.4367  0.9943
  121SOPE   HN312788   5.191   6.202   6.011  1.0190  0.1531 -0.9575
  121SOPE   C1212789   5.351   6.187   6.150 -0.0825 -0.0199 -0.9781
  121SOPE  H12A12790   5.427   6.111   6.179  0.4395  1.0497  0.6276
  121SOPE  H12B12791   5.288   6.211   6.238  1.1759  2.7303 -0.7394
  121SOPE   C1112792   5.421   6.320   6.098 -0.1449  0.0175 -0.3978
  121SOPE  H11A12793   5.341   6.397   6.096 -0.9317 -0.7603 -0.0118
  121SOPE  H11B12794   5.478   6.300   6.005  0.6575 -0.5324  0.1926
  121SOPE     P12795   5.621   6.460   6.167  0.0532  0.0166 -0.1367
  121SOPE   O1312796   5.748   6.395   6.131  0.2439 -0.8431 -0.4027
  121SOPE   O1412797   5.625   6.559   6.280 -0.5763  0.4854 -0.5022
  121SOPE   O1212798   5.519   6.344   6.207  0.0724  0.6107 -0.3839
  121SOPE   O1112799   5.559   6.524   6.042  0.0201  0.2253  0.7103
  121SOPE    C112800   5.567   6.653   6.000 -0.3525 -0.3868 -0.4337
  121SOPE    HA12801   5.663   6.698   6.034 -0.9723 -0.5225  1.6700
  121SOPE    HB12802   5.489   6.714   6.049 -2.3344 -1.3827 -2.2104
  121SOPE    C212803   5.553   6.659   5.841  0.6399 -0.1190 -0.4177
  121SOPE    HS12804   5.447   6.681   5.819  0.1971 -0.1918  1.4110
  121SOPE   O2112805   5.611   6.542   5.783 -0.4682  0.1843  0.3789
  121SOPE   C2112806   5.527   6.443   5.753  0.3478 -0.1340  0.3060
  121SOPE   O2212807   5.403   6.434   5.766  0.1145 -0.2002  0.0501
  121SOPE   C2212808   5.604   6.326   5.696  0.3264 -0.4108 -0.3622
  121SOPE   H2R12809   5.539   6.236   5.692  1.9579 -1.6977  0.5878
  121SOPE   H2S12810   5.675   6.301   5.778 -0.2981  1.2428  0.7482
  121SOPE    C312811   5.636   6.783   5.788  0.0056 -0.6757  0.1022
  121SOPE    HX12812   5.740   6.745   5.786 -0.0278 -0.8129  0.6703
  121SOPE    HY12813   5.634   6.868   5.859  0.6521 -1.5724  1.2361
  121SOPE   O3112814   5.587   6.833   5.660  0.3692 -0.6652  0.2655
  121SOPE   C3112815   5.662   6.826   5.551  0.3860 -0.3233  0.0144
  121SOPE   O3212816   5.776   6.786   5.551  0.0184  0.0779 -0.2154
  121SOPE   C3212817   5.583   6.883   5.434 -0.2722 -1.4226 -0.0864
  121SOPE   H2X12818   5.529   6.974   5.468  0.6614  0.2946 -2.8662
  121SOPE   H2Y12819   5.516   6.804   5.393  0.5293 -1.5817 -1.1351
  121SOPE   C2312820   5.673   6.335   5.562 -0.5548 -0.1837 -0.3500
  121SOPE   H3R12821   5.636   6.419   5.499 -0.9329 -0.5602 -0.6301
  121SOPE   H3S12822   5.661   6.242   5.503  0.5867 -2.1930  2.4185
  121SOPE   C2412823   5.828   6.362   5.574 -0.5037 -0.1052 -0.4619
  121SOPE   H4R12824   5.852   6.439   5.651  1.3498 -1.0742  0.0110
  121SOPE   H4S12825   5.879   6.275   5.621  1.1673  0.5312 -1.0163
  121SOPE   C2512826   5.880   6.416   5.444 -0.5451  0.3950 -0.6765
  121SOPE   H5R12827   5.897   6.326   5.380  0.4321 -1.0259  1.4595
  121SOPE   H5S12828   5.795   6.471   5.397 -2.0529 -0.8132  0.5196
  121SOPE   C2612829   6.012   6.496   5.467  0.4558 -0.6148 -0.9372
  121SOPE   H6R12830   5.983   6.589   5.520 -1.4609 -0.9353 -1.3314
  121SOPE   H6S12831   6.074   6.441   5.542  1.3791  3.8743  1.9434
  121SOPE   C2712832   6.090   6.519   5.338 -0.2079 -0.2373 -0.4069
  121SOPE   H7R12833   6.166   6.598   5.355 -1.7602  1.4874 -1.1073
  121SOPE   H7S12834   6.145   6.428   5.306 -0.1521 -0.4158  0.1867
  121SOPE   C2812835   6.004   6.569   5.215 -0.0399 -0.2318  0.2364
  121SOPE   H8R12836   6.055   6.528   5.126 -0.0112  1.6415 -0.6366
  121SOPE   H8S12837   5.902   6.525   5.207 -0.6317  1.3587 -1.9718
  121SOPE   C2912838   5.994   6.722   5.203 -0.1501  0.4394  0.3632
  121SOPE   H9112839   5.978   6.771   5.300  1.5349  1.7608  0.0304
  121SOPE  C21012840   6.000   6.800   5.093  0.6594  0.1973 -1.5673
  121SOPE  H10112841   6.001   6.909   5.105  1.0301 -0.0717  2.0906
  121SOPE  C21112842   6.025   6.758   4.952  0.3262 -0.4155  0.1065
  121SOPE  H11R12843   6.019   6.648   4.936 -1.0185 -0.3642  0.0969
  121SOPE  H11S12844   6.123   6.795   4.916  0.1208  0.4141  0.3745
  121SOPE  C21212845   5.916   6.816   4.866  0.3178  0.0390 -0.5187
  121SOPE  H12R12846   5.939   6.921   4.838  1.4133  0.1150  0.5487
  121SOPE  H12S12847   5.814   6.807   4.910  0.6285 -2.4617 -0.1516
  121SOPE  C21312848   5.899   6.743   4.734  0.3944 -0.2972 -0.0499
  121SOPE  H13R12849   5.804   6.684   4.734  0.6593 -0.7740  2.0199
  121SOPE  H13S12850   5.980   6.667   4.725  1.2256  0.7267 -1.8875
  121SOPE  C21412851   5.880   6.830   4.609  0.4498 -0.6461 -0.3176
  121SOPE  H14R12852   5.961   6.906   4.616  0.4931 -0.7718  0.6014
  121SOPE  H14S12853   5.778   6.872   4.600  0.3659 -0.6112  0.6889
  121SOPE  C21512854   5.901   6.753   4.482 -0.3658 -0.4405 -0.1615
  121SOPE  H15R12855   5.827   6.670   4.473 -0.7970  0.0970 -2.0127
  121SOPE  H15S12856   6.001   6.705   4.479  0.3882  1.0690 -0.0727
  121SOPE  C21612857   5.884   6.846   4.369 -0.2110 -1.0458  0.4366
  121SOPE  H16R12858   5.801   6.918   4.387  1.1585  0.6280  0.2435
  121SOPE  H16S12859   5.862   6.789   4.276  0.5200 -1.6452  0.6135
  121SOPE  C21712860   6.006   6.930   4.338 -0.6701  0.2458  0.6229
  121SOPE  H17R12861   6.086   6.853   4.336 -2.0590 -1.2411 -0.0275
  121SOPE  H17S12862   6.016   7.001   4.423 -2.9969 -0.4498  1.5586
  121SOPE  C21812863   5.999   7.011   4.209 -0.1672  0.5578  0.6693
  121SOPE  H18R12864   6.094   7.068   4.199 -0.7245  1.0943 -2.9258
  121SOPE  H18S12865   5.917   7.085   4.203  0.4683  1.2158 -0.1651
  121SOPE  H18T12866   5.983   6.944   4.123 -2.8804  0.9169  0.8147
  121SOPE   C3312867   5.684   6.915   5.319 -0.4539  0.1169 -0.5065
  121SOPE   H3X12868   5.753   6.830   5.298  2.5245  2.2684 -0.1240
  121SOPE   H3Y12869   5.760   6.980   5.368 -0.4361 -1.3414  1.5037
  121SOPE   C3412870   5.635   6.968   5.189  0.0639 -0.0184  0.4464
  121SOPE   H4X12871   5.708   7.020   5.122 -0.8650  0.7504  0.0116
  121SOPE   H4Y12872   5.561   7.047   5.215  1.7910  2.4099 -1.4805
  121SOPE   C3512873   5.564   6.876   5.086 -0.2829  0.5895  0.5083
  121SOPE   H5X12874   5.596   6.770   5.082  2.6315  1.4364 -2.7011
  121SOPE   H5Y12875   5.583   6.915   4.984 -0.8908  1.2332  0.6317
  121SOPE   C3612876   5.411   6.873   5.109 -0.6570  0.4587 -0.3041
  121SOPE   H6X12877   5.383   6.870   5.217  0.2090  2.9299  0.0453
  121SOPE   H6Y12878   5.371   6.785   5.055 -0.4952  0.8999 -1.1516
  121SOPE   C3712879   5.338   6.997   5.060 -0.2917  0.4515 -0.0123
  121SOPE   H7X12880   5.388   7.092   5.090  0.3871  0.9757 -2.5559
  121SOPE   H7Y12881   5.232   6.996   5.096  0.2866  0.1486  1.7607
  121SOPE   C3812882   5.336   7.009   4.903 -0.1917 -0.0497 -0.5355
  121SOPE   H8X12883   5.283   6.921   4.860 -1.3002  1.0914 -1.5955
  121SOPE   H8Y12884   5.434   7.003   4.853 -0.6176  1.3174 -1.5908
  121SOPE   C3912885   5.276   7.141   4.853  0.2415  0.2522 -0.8236
  121SOPE   H9X12886   5.341   7.223   4.890 -0.1490 -0.7852  2.5566
  121SOPE   H9Y12887   5.171   7.152   4.888  1.0575  1.4160  1.4690
  121SOPE  C31012888   5.256   7.152   4.701 -0.0866 -0.4392 -0.2415
  121SOPE  H10X12889   5.182   7.078   4.665 -1.7252  0.4976  1.1008
  121SOPE  H10Y12890   5.355   7.141   4.650 -0.0501  1.7099 -0.7137
  121SOPE  C31112891   5.199   7.285   4.664  0.4259  0.6330  0.1880
  121SOPE  H11X12892   5.253   7.368   4.713 -0.5708  1.3544  0.0920
  121SOPE  H11Y12893   5.096   7.295   4.704  0.3668  2.0544 -0.2843
  121SOPE  C31212894   5.183   7.306   4.508  0.1966 -0.5689  0.2395
  121SOPE  H12X12895   5.278   7.274   4.462 -0.5792  1.1665 -2.8206
  121SOPE  H12Y12896   5.167   7.416   4.500 -0.3094 -0.5652  1.0987
  121SOPE  C31312897   5.060   7.260   4.434 -0.0484  0.3194 -0.3084
  121SOPE  H13X12898   4.970   7.270   4.499  0.4189 -1.5586  0.7206
  121SOPE  H13Y12899   5.072   7.149   4.430  0.4620  0.2337  1.9349
  121SOPE  C31412900   5.031   7.316   4.294  0.1318  0.1914 -0.4923
  121SOPE  H14X12901   5.129   7.306   4.241  1.9779 -0.2071  2.7063
  121SOPE  H14Y12902   5.014   7.423   4.315  1.9784  0.1252  1.8541
  121SOPE  C31512903   4.915   7.247   4.223 -0.2985  0.1751 -0.1889
  121SOPE  H15X12904   4.912   7.139   4.245 -0.3066  0.2473  0.1745
  121SOPE  H15Y12905   4.933   7.251   4.114  0.8132 -0.1133 -0.0308
  121SOPE  C31612906   4.783   7.297   4.276  0.5354  0.4154  0.3397
  121SOPE  H16X12907   4.754   7.400   4.247  0.0330  0.3105  0.4638
  121SOPE  H16Y12908   4.790   7.281   4.385 -1.1814 -3.4299  0.0636
  121SOPE  C31712909   4.670   7.203   4.227 -0.3687 -0.3914  0.0974
  121SOPE  H17X12910   4.592   7.208   4.305  0.7831  1.9187  1.2033
  121SOPE  H17Y12911   4.695   7.096   4.212 -1.2269 -0.7380  1.0489
  121SOPE  C31812912   4.607   7.263   4.103 -0.0820 -0.4488  0.1892
  121SOPE  H18X12913   4.563   7.360   4.133  0.5651  0.1376 -0.7127
  121SOPE  H18Y12914   4.524   7.200   4.063 -0.0042 -0.8481  0.6591
  121SOPE  H18Z12915   4.681   7.279   4.022  0.2588  0.1753  0.6203
  122SOPE     N12916   6.660   7.119   6.134 -0.4376 -0.0883 -0.5837
  122SOPE   HN112917   6.596   7.133   6.054 -2.5163  2.4905  1.3347
  122SOPE   HN212918   6.757   7.105   6.099 -1.2351 -1.6962 -2.2992
  122SOPE   HN312919   6.643   7.028   6.182 -3.8646  0.3849 -0.6908
  122SOPE   C1212920   6.645   7.238   6.228 -0.5852  0.0417 -0.0790
  122SOPE  H12A12921   6.718   7.317   6.198 -0.1626 -0.3994 -0.2166
  122SOPE  H12B12922   6.676   7.198   6.327 -2.1542  0.1279  0.4752
  122SOPE   C1112923   6.500   7.278   6.239  0.8171  0.1731  0.2386
  122SOPE  H11A12924   6.499   7.387   6.263  0.7935  0.5092 -1.1609
  122SOPE  H11B12925   6.457   7.223   6.325 -1.9713 -0.8573 -1.6450
  122SOPE     P12926   6.269   7.232   6.123 -0.3082 -0.4897 -0.1083
  122SOPE   O1312927   6.208   7.363   6.163  0.1276  0.3097  0.4214
  122SOPE   O1412928   6.232   7.116   6.211 -0.0339  0.2734  0.1260
  122SOPE   O1212929   6.424   7.256   6.120  0.2370  0.1378 -0.1223
  122SOPE   O1112930   6.230   7.190   5.978 -0.2884 -0.5690 -0.0140
  122SOPE    C112931   6.273   7.268   5.858  0.1117 -0.0162  0.2359
  122SOPE    HA12932   6.382   7.285   5.854  0.1442 -0.2750 -0.0385
  122SOPE    HB12933   6.226   7.369   5.861  2.8955  1.4583 -1.6497
  122SOPE    C212934   6.233   7.200   5.727 -0.6755  0.3911  0.2518
  122SOPE    HS12935   6.126   7.179   5.748 -0.5745 -1.3165 -0.7806
  122SOPE   O2112936   6.302   7.075   5.713 -0.4298  0.4672  0.6725
  122SOPE   C2112937   6.245   6.977   5.633 -0.3080 -0.7045  0.6400
  122SOPE   O2212938   6.126   6.980   5.600 -0.6687  0.4463  0.1374
  122SOPE   C2212939   6.346   6.869   5.600 -0.2136 -0.4530 -0.6630
  122SOPE   H2R12940   6.288   6.782   5.562 -0.6002 -1.6002  2.2744
  122SOPE   H2S12941   6.401   6.840   5.692 -1.4047 -0.3171  0.1090
  122SOPE    C312942   6.254   7.292   5.604  1.0848 -0.3046  0.1871
  122SOPE    HX12943   6.364   7.305   5.596  1.3257 -0.8324  2.0582
  122SOPE    HY12944   6.215   7.393   5.629 -0.4144 -0.7386 -0.3015
  122SOPE   O3112945   6.191   7.231   5.485 -0.7011 -0.4585 -0.0595
  122SOPE   C3112946   6.087   7.290   5.434  0.0602  0.4037 -0.0705
  122SOPE   O3212947   6.051   7.407   5.461 -0.2687  0.1820 -0.0142
  122SOPE   C3212948   6.014   7.204   5.333  0.0867 -0.5392  0.0412
  122SOPE   H2X12949   5.914   7.194   5.379  0.6416 -0.6569  1.2599
  122SOPE   H2Y12950   6.062   7.105   5.322  1.6106  0.1132  0.4213
  122SOPE   C2312951   6.443   6.919   5.495  0.5897  0.4467  1.0870
  122SOPE   H3R12952   6.522   6.846   5.466 -0.1990  0.4853 -1.3766
  122SOPE   H3S12953   6.495   7.011   5.529  1.6066  0.1605  0.3561
  122SOPE   C2412954   6.371   6.946   5.364  0.2833  0.0356  0.1010
  122SOPE   H4R12955   6.396   6.860   5.299 -4.7112 -1.5033 -0.1201
  122SOPE   H4S12956   6.261   6.950   5.377  0.3484  0.5807  0.5465
  122SOPE   C2512957   6.410   7.074   5.287 -0.2929  0.1080  0.3546
  122SOPE   H5R12958   6.417   7.158   5.359  2.2153 -0.7529  1.2031
  122SOPE   H5S12959   6.511   7.059   5.244 -0.1742 -1.0963  0.9939
  122SOPE   C2612960   6.328   7.127   5.169  0.5278  0.6603  0.0349
  122SOPE   H6R12961   6.221   7.134   5.196  0.6597  0.2980  0.6624
  122SOPE   H6S12962   6.359   7.232   5.150  1.2730  0.6467  1.0993
  122SOPE   C2712963   6.332   7.035   5.044 -0.9847  0.4009 -0.1547
  122SOPE   H7R12964   6.442   7.040   5.035 -0.6831 -0.0883  2.5435
  122SOPE   H7S12965   6.313   6.927   5.060  0.9663 -0.1844 -1.4177
  122SOPE   C2812966   6.248   7.089   4.930 -0.0716 -0.0253 -0.4644
  122SOPE   H8R12967   6.140   7.087   4.955 -0.6935 -2.6395 -2.8612
  122SOPE   H8S12968   6.272   7.197   4.919  0.5040 -0.2036 -1.0054
  122SOPE   C2912969   6.273   7.014   4.800 -0.3628 -0.0439 -0.6016
  122SOPE   H9112970   6.325   6.918   4.814  2.1897  1.1253 -1.4473
  122SOPE  C21012971   6.243   7.056   4.677  0.0329 -0.2255  0.2193
  122SOPE  H10112972   6.266   6.989   4.593 -1.4998 -1.4894  0.7429
  122SOPE  C21112973   6.183   7.186   4.640 -0.5168  0.6339  0.6021
  122SOPE  H11R12974   6.118   7.227   4.720 -1.2130  1.6445 -0.4415
  122SOPE  H11S12975   6.114   7.170   4.554  0.5304  0.8901 -0.3126
  122SOPE  C21212976   6.281   7.299   4.620  0.3334 -0.4923 -0.1634
  122SOPE  H12R12977   6.347   7.287   4.532  0.3295  0.4523 -0.3073
  122SOPE  H12S12978   6.344   7.311   4.710 -2.1637  2.3881  1.3946
  122SOPE  C21312979   6.199   7.433   4.601  0.4725  0.7768 -0.5612
  122SOPE  H13R12980   6.123   7.430   4.520  0.1617  1.9297 -0.3409
  122SOPE  H13S12981   6.265   7.514   4.563  0.7645  1.0591  0.5328
  122SOPE  C21412982   6.126   7.494   4.722  0.3028 -0.2703 -0.5064
  122SOPE  H14R12983   6.048   7.421   4.755  0.8752 -2.3310 -3.3432
  122SOPE  H14S12984   6.077   7.588   4.688 -0.1812  0.3906  1.8415
  122SOPE  C21512985   6.219   7.523   4.835 -0.6953  1.5427 -0.1159
  122SOPE  H15R12986   6.300   7.584   4.789 -2.5097  2.2020 -2.6494
  122SOPE  H15S12987   6.259   7.430   4.881  0.4440  1.9819 -0.1655
  122SOPE  C21612988   6.149   7.605   4.940  0.7791  0.3849 -0.4829
  122SOPE  H16R12989   6.049   7.566   4.969  0.2571  2.2128  0.2852
  122SOPE  H16S12990   6.137   7.708   4.900  0.9115  0.4430 -0.3732
  122SOPE  C21712991   6.235   7.606   5.065 -0.5092  0.7399  0.0555
  122SOPE  H17R12992   6.320   7.667   5.029  0.9976 -2.2929 -1.9285
  122SOPE  H17S12993   6.265   7.499   5.078 -2.2406  0.2473  0.2160
  122SOPE  C21812994   6.164   7.649   5.193  0.4191  0.3200  0.2475
  122SOPE  H18R12995   6.103   7.739   5.170 -0.0712 -0.8049 -3.7029
  122SOPE  H18S12996   6.235   7.666   5.277  1.4556  0.0644 -0.5457
  122SOPE  H18T12997   6.095   7.568   5.222  0.6597  0.6298  1.7512
  122SOPE   C3312998   5.993   7.280   5.203 -0.1762  0.0401  0.5298
  122SOPE   H3X12999   6.087   7.297   5.145  0.1745 -3.7913 -0.3478
  122SOPE   H3Y13000   5.943   7.376   5.226 -1.5041 -0.4270 -0.3060
  122SOPE   C3413001   5.892   7.210   5.111 -0.1152  1.1040 -0.4296
  122SOPE   H4X13002   5.791   7.217   5.157 -0.0721  1.8389 -0.4274
  122SOPE   H4Y13003   5.928   7.107   5.091  1.8270  2.0847 -2.4768
  122SOPE   C3513004   5.883   7.279   4.977  0.5432  0.5466  0.7698
  122SOPE   H5X13005   5.971   7.263   4.911 -1.3629 -1.1368 -1.5212
  122SOPE   H5Y13006   5.873   7.388   4.999 -1.2595  0.7044 -0.6347
  122SOPE   C3613007   5.760   7.217   4.906 -0.1707 -0.3480 -0.9309
  122SOPE   H6X13008   5.669   7.227   4.970  1.9841  1.3802  2.1454
  122SOPE   H6Y13009   5.773   7.107   4.901  0.2714 -0.4465  1.2595
  122SOPE   C3713010   5.747   7.263   4.759  0.1468  0.3219 -0.7347
  122SOPE   H7X13011   5.845   7.242   4.712  1.1370  3.3625 -0.2627
  122SOPE   H7Y13012   5.733   7.374   4.753 -1.0324  0.3747  1.7509
  122SOPE   C3813013   5.635   7.192   4.683 -0.7136 -0.1768  0.2798
  122SOPE   H8X13014   5.545   7.196   4.747  0.2530 -2.2775  1.8709
  122SOPE   H8Y13015   5.669   7.088   4.665  0.6175  0.1905  0.5524
  122SOPE   C3913016   5.593   7.253   4.550  0.1165 -0.2553 -0.4328
  122SOPE   H9X13017   5.560   7.357   4.571 -0.6129 -0.7579  1.1201
  122SOPE   H9Y13018   5.507   7.192   4.513  1.1495 -1.3223 -1.1351
  122SOPE  C31013019   5.709   7.256   4.454  0.3197  0.6154  0.2427
  122SOPE  H10X13020   5.765   7.160   4.455  1.8023  1.4271 -0.7641
  122SOPE  H10Y13021   5.772   7.331   4.506  0.7244 -0.2292  1.0075
  122SOPE  C31113022   5.686   7.301   4.310 -0.2491  0.6620  0.1317
  122SOPE  H11X13023   5.603   7.241   4.267  0.5967 -1.1014  0.8410
  122SOPE  H11Y13024   5.779   7.286   4.253 -0.7773 -0.6082 -0.4376
  122SOPE  C31213025   5.649   7.451   4.294 -0.4476 -0.4789 -0.1485
  122SOPE  H12X13026   5.743   7.510   4.305 -0.8207 -0.1377  1.3625
  122SOPE  H12Y13027   5.579   7.473   4.377 -1.1672  1.5599 -1.2223
  122SOPE  C31313028   5.581   7.490   4.160 -0.8200  0.3516  0.0361
  122SOPE  H13X13029   5.533   7.590   4.167  0.5492  0.9450  1.2350
  122SOPE  H13Y13030   5.501   7.412   4.153  0.8592 -1.4354 -0.1269
  122SOPE  C31413031   5.665   7.475   4.031 -0.0356  0.1001 -0.4109
  122SOPE  H14X13032   5.690   7.367   4.022 -1.9681 -0.4478  0.2691
  122SOPE  H14Y13033   5.760   7.530   4.045  0.3009 -0.0175 -2.0541
  122SOPE  C31513034   5.583   7.508   3.906 -0.2164 -0.6970 -0.2742
  122SOPE  H15X13035   5.475   7.487   3.921 -0.7964  0.9618 -1.7624
  122SOPE  H15Y13036   5.611   7.447   3.818  1.8644  0.1896 -0.2864
  122SOPE  C31613037   5.595   7.658   3.862 -0.8655  0.2158  0.2997
  122SOPE  H16X13038   5.696   7.664   3.815 -0.9861 -2.4832 -0.4900
  122SOPE  H16Y13039   5.591   7.714   3.958 -1.5677 -1.9313  1.6027
  122SOPE  C31713040   5.491   7.713   3.759 -0.4095  0.6733 -0.4271
  122SOPE  H17X13041   5.535   7.805   3.714  1.1113  0.7671  1.1521
  122SOPE  H17Y13042   5.403   7.742   3.820  0.2958 -1.5046  1.7460
  122SOPE  C31813043   5.448   7.616   3.650 -0.7674  0.5857  0.2133
  122SOPE  H18X13044   5.430   7.517   3.695  0.1752  1.2014  2.0201
  122SOPE  H18Y13045   5.522   7.617   3.567 -0.5926  1.7694  0.3615
  122SOPE  H18Z13046   5.360   7.666   3.604 -1.8065 -0.1643  1.3387
  123SOPE     N13047   3.198   1.404   1.631  0.2210  0.6574 -0.3778
  123SOPE   HN113048   3.184   1.325   1.697  1.1968  1.9026  1.3975
  123SOPE   HN213049   3.109   1.456   1.620  1.3060  2.6769 -0.0295
  123SOPE   HN313050   3.216   1.355   1.541  0.2328  0.9439 -0.5323
  123SOPE   C1213051   3.314   1.493   1.655 -0.4408 -0.1660  0.2830
  123SOPE  H12A13052   3.408   1.439   1.635 -2.0680 -3.0665 -0.0474
  123SOPE  H12B13053   3.315   1.526   1.761  2.0926  2.0531 -0.3235
  123SOPE   C1113054   3.314   1.621   1.566  0.3152  0.7476 -0.3720
  123SOPE  H11A13055   3.338   1.590   1.462  2.3548 -0.2850  0.3610
  123SOPE  H11B13056   3.398   1.682   1.606  0.0428  0.8940 -0.0214
  123SOPE     P13057   3.150   1.794   1.693 -0.0117  0.7630 -0.0470
  123SOPE   O1313058   3.083   1.713   1.800 -0.0215 -0.2401  0.0263
  123SOPE   O1413059   3.085   1.913   1.641 -0.9555 -0.1674  0.5810
  123SOPE   O1213060   3.188   1.692   1.572  0.3383 -0.0536  0.1285
  123SOPE   O1113061   3.294   1.843   1.741  0.4578  0.0459  0.2468
  123SOPE    C113062   3.316   1.916   1.856  0.0157  0.2622  0.1994
  123SOPE    HA13063   3.225   1.937   1.916 -0.4589  1.3501 -0.8445
  123SOPE    HB13064   3.367   2.013   1.838  1.5136 -0.6272 -0.4598
  123SOPE    C213065   3.408   1.845   1.956  0.5397  0.2973 -0.5330
  123SOPE    HS13066   3.357   1.752   1.990 -2.1893  1.7329 -0.3767
  123SOPE   O2113067   3.439   1.936   2.064  0.1888 -0.5312  0.7093
  123SOPE   C2113068   3.437   1.880   2.184 -0.0006 -0.8116  0.1103
  123SOPE   O2213069   3.421   1.764   2.206 -0.5497 -0.5408 -0.5085
  123SOPE   C2213070   3.462   1.976   2.301 -0.0930  0.4832  0.1156
  123SOPE   H2R13071   3.373   2.015   2.354 -0.7251 -1.2774  0.3926
  123SOPE   H2S13072   3.519   2.065   2.265  0.3702  0.9595  1.9304
  123SOPE    C313073   3.540   1.798   1.887  0.7152  0.7711 -0.6765
  123SOPE    HX13074   3.576   1.891   1.839  1.6923  1.3489  1.0741
  123SOPE    HY13075   3.524   1.726   1.804  0.1670 -2.1215  1.7336
  123SOPE   O3113076   3.639   1.760   1.985 -0.3419  0.3161 -0.0075
  123SOPE   C3113077   3.645   1.632   2.015  0.0083 -0.3575  0.5015
  123SOPE   O3213078   3.572   1.543   1.974 -0.3213 -0.1446  0.2838
  123SOPE   C3213079   3.762   1.614   2.115  0.2892  0.3687  0.8208
  123SOPE   H2X13080   3.830   1.701   2.110 -1.2961  1.5622 -1.1501
  123SOPE   H2Y13081   3.820   1.532   2.067  0.2947  1.0690 -0.4057
  123SOPE   C2313082   3.562   1.900   2.391  0.2200  0.4883  0.0254
  123SOPE   H3R13083   3.660   1.897   2.337  0.2980 -2.0011  0.1774
  123SOPE   H3S13084   3.536   1.798   2.425  1.2056 -0.8905 -3.0099
  123SOPE   C2413085   3.583   1.986   2.510  0.4905  0.2610 -0.6762
  123SOPE   H4R13086   3.616   2.090   2.490  1.0415 -0.2338 -2.5171
  123SOPE   H4S13087   3.488   1.982   2.567  0.8541 -0.1673 -0.0977
  123SOPE   C2513088   3.688   1.929   2.609 -0.9009 -0.3857 -0.1468
  123SOPE   H5R13089   3.672   1.821   2.633  3.0551 -1.9181 -3.3131
  123SOPE   H5S13090   3.790   1.932   2.566 -0.9292 -2.5450 -0.4792
  123SOPE   C2613091   3.661   2.006   2.740 -0.3388  0.5683 -0.4085
  123SOPE   H6R13092   3.693   2.111   2.726  1.1697  0.4206  1.4721
  123SOPE   H6S13093   3.557   1.997   2.778 -0.8788  0.5348 -1.8484
  123SOPE   C2713094   3.746   1.959   2.856 -0.6057 -0.0716 -0.2520
  123SOPE   H7R13095   3.854   1.970   2.830 -0.7162  0.7666 -0.4126
  123SOPE   H7S13096   3.734   2.022   2.947  1.1594  1.1161 -0.7869
  123SOPE   C2813097   3.733   1.820   2.918 -0.5489 -0.7500 -0.0267
  123SOPE   H8R13098   3.772   1.734   2.860  1.0580 -2.0281  2.7872
  123SOPE   H8S13099   3.808   1.831   2.998  1.4297  3.1519 -2.1259
  123SOPE   C2913100   3.587   1.794   2.970 -0.1981 -0.0924  0.3134
  123SOPE   H9113101   3.553   1.860   3.051 -0.8511  1.6375 -1.3014
  123SOPE  C21013102   3.501   1.704   2.919 -0.4931  0.2292  0.4406
  123SOPE  H10113103   3.398   1.683   2.953  0.2491 -2.3710  1.2894
  123SOPE  C21113104   3.520   1.621   2.796 -0.7129 -0.0926 -0.4539
  123SOPE  H11R13105   3.625   1.626   2.761 -1.1603  0.4351 -1.8005
  123SOPE  H11S13106   3.457   1.657   2.712  0.4944 -0.4020 -1.5286
  123SOPE  C21213107   3.487   1.472   2.814 -0.2282 -0.1196  0.6409
  123SOPE  H12R13108   3.430   1.455   2.907  0.6210  0.3025  1.2559
  123SOPE  H12S13109   3.579   1.418   2.846  0.0026 -0.0529  0.1028
  123SOPE  C21313110   3.434   1.409   2.682 -0.1089  0.0027 -0.3097
  123SOPE  H13R13111   3.455   1.472   2.594  3.6856 -1.1765 -0.4285
  123SOPE  H13S13112   3.326   1.395   2.705 -0.3118  0.8491 -0.7392
  123SOPE  C21413113   3.493   1.271   2.658 -0.5133  0.1167  0.0803
  123SOPE  H14R13114   3.479   1.220   2.755  1.0134 -1.2834 -0.3743
  123SOPE  H14S13115   3.604   1.281   2.653 -0.3571 -0.7334  1.3796
  123SOPE  C21513116   3.457   1.195   2.533 -0.5366  0.3090 -1.0648
  123SOPE  H15R13117   3.346   1.186   2.527 -0.5612  0.5615 -1.0279
  123SOPE  H15S13118   3.492   1.091   2.514 -0.9682  0.1179 -0.8354
  123SOPE  C21613119   3.509   1.268   2.411 -0.2614  0.3616  0.1310
  123SOPE  H16R13120   3.614   1.294   2.436  0.1141 -3.4904  3.7436
  123SOPE  H16S13121   3.456   1.364   2.393 -0.0374  0.3339 -0.7095
  123SOPE  C21713122   3.509   1.176   2.281 -0.0775  0.1285  0.2997
  123SOPE  H17R13123   3.419   1.113   2.267  1.7778 -2.4748 -0.9157
  123SOPE  H17S13124   3.587   1.099   2.302  0.1093 -0.1049 -1.1447
  123SOPE  C21813125   3.551   1.240   2.155 -0.5800 -0.0590  0.1457
  123SOPE  H18R13126   3.501   1.337   2.134  1.6967  1.1387 -0.0008
  123SOPE  H18S13127   3.556   1.170   2.069 -0.1838  1.2795 -0.9643
  123SOPE  H18T13128   3.655   1.271   2.179 -1.4220  1.1171  2.5911
  123SOPE   C3313129   3.730   1.583   2.260  0.0575  0.1092  0.0425
  123SOPE   H3X13130   3.696   1.477   2.261  1.0048 -0.2018  0.6412
  123SOPE   H3Y13131   3.656   1.658   2.295  2.0134  2.4066 -0.4737
  123SOPE   C3413132   3.848   1.581   2.361 -0.6867 -0.5849 -0.5873
  123SOPE   H4X13133   3.876   1.688   2.373 -1.3717 -0.5589  0.9996
  123SOPE   H4Y13134   3.936   1.535   2.310 -0.4125  0.2590 -0.8820
  123SOPE   C3513135   3.833   1.514   2.500 -0.2491  0.4993 -1.0699
  123SOPE   H5X13136   3.817   1.408   2.471  2.4397  0.4093 -2.5390
  123SOPE   H5Y13137   3.743   1.552   2.553  0.5707  1.5005 -0.3659
  123SOPE   C3613138   3.953   1.513   2.596  0.2799 -0.1832  0.2713
  123SOPE   H6X13139   4.034   1.442   2.568  2.2428  1.7442  0.7745
  123SOPE   H6Y13140   3.909   1.492   2.697 -0.5571  0.1476 -0.0163
  123SOPE   C3713141   4.037   1.648   2.601 -0.1686  0.9310 -0.0574
  123SOPE   H7X13142   3.969   1.725   2.643  0.7663  0.8435  1.7341
  123SOPE   H7Y13143   4.077   1.673   2.501  1.0062  2.0598  0.6675
  123SOPE   C3813144   4.154   1.635   2.700 -0.9992  0.1282 -0.2138
  123SOPE   H8X13145   4.226   1.576   2.639  0.6033  1.4963  0.2797
  123SOPE   H8Y13146   4.118   1.569   2.781  1.0653  1.2474  1.7343
  123SOPE   C3913147   4.214   1.774   2.744 -0.3696  0.8244 -0.1574
  123SOPE   H9X13148   4.224   1.843   2.658 -0.7025  0.5128 -0.4504
  123SOPE   H9Y13149   4.311   1.738   2.785 -1.0038 -1.0565 -0.1976
  123SOPE  C31013150   4.132   1.841   2.859  0.5144 -0.6950 -0.9419
  123SOPE  H10X13151   4.104   1.762   2.932 -0.3570  3.1725  3.3882
  123SOPE  H10Y13152   4.034   1.882   2.826  1.3016  1.7566 -0.4644
  123SOPE  C31113153   4.211   1.951   2.926 -0.1530 -0.3986  0.4219
  123SOPE  H11X13154   4.215   2.043   2.864  2.9007  0.7281  2.0624
  123SOPE  H11Y13155   4.313   1.913   2.947 -0.3110 -0.1593  1.7155
  123SOPE  C31213156   4.164   1.986   3.069  0.4687 -0.2262  0.0576
  123SOPE  H12X13157   4.056   2.004   3.047  0.1942 -0.8044  0.8945
  123SOPE  H12Y13158   4.205   2.085   3.098 -1.6166  0.5359  0.5870
  123SOPE  C31313159   4.153   1.871   3.172  0.0650 -0.0964 -0.1332
  123SOPE  H13X13160   4.248   1.814   3.166  0.3335  0.4079 -0.8780
  123SOPE  H13Y13161   4.076   1.794   3.152 -0.3871  0.4392 -0.5084
  123SOPE  C31413162   4.135   1.908   3.318  0.0229 -0.3144 -0.5418
  123SOPE  H14X13163   4.047   1.972   3.338 -1.1749 -2.4776  1.7178
  123SOPE  H14Y13164   4.226   1.966   3.345 -0.6918  1.0814 -1.0717
  123SOPE  C31513165   4.103   1.781   3.405  0.8079  0.6367  0.1358
  123SOPE  H15X13166   4.174   1.698   3.385  0.0861 -0.0331  0.3003
  123SOPE  H15Y13167   4.000   1.745   3.381  1.9036 -1.6848 -1.5480
  123SOPE  C31613168   4.111   1.802   3.557 -0.3350  0.3091  0.2747
  123SOPE  H16X13169   4.199   1.866   3.577  1.8920 -2.0574 -1.2915
  123SOPE  H16Y13170   4.127   1.709   3.616 -3.9685 -1.4147 -1.1151
  123SOPE  C31713171   3.993   1.871   3.630  0.2875 -0.0441  0.2763
  123SOPE  H17X13172   3.897   1.831   3.592  1.2136 -3.2606  1.0265
  123SOPE  H17Y13173   3.985   1.978   3.599  0.5019 -0.2612 -0.5555
  123SOPE  C31813174   3.992   1.861   3.788 -0.2112  0.4244 -0.1611
  123SOPE  H18X13175   4.088   1.902   3.826 -1.1169  2.2378  0.2701
  123SOPE  H18Y13176   3.976   1.756   3.821 -1.7309  0.5412 -0.4257
  123SOPE  H18Z13177   3.908   1.920   3.831 -1.1066  0.6069 -2.0457
  124SOPE     N13178   5.042   4.835   1.468  0.1539 -0.8217 -0.3997
  124SOPE   HN113179   4.999   4.741   1.452 -1.4625 -0.6688  2.3416
  124SOPE   HN213180   5.070   4.887   1.383  1.0255  1.8848  1.4330
  124SOPE   HN313181   5.122   4.822   1.533  0.9579 -0.0993 -1.2287
  124SOPE   C1213182   4.937   4.926   1.534 -0.5502 -0.4930  0.4230
  124SOPE  H12A13183   4.948   4.921   1.644 -2.5182 -0.7252  0.6460
  124SOPE  H12B13184   4.834   4.894   1.508 -0.4356 -2.0211  1.7174
  124SOPE   C1113185   4.953   5.079   1.500  0.4303  0.3831  0.6279
  124SOPE  H11A13186   4.884   5.131   1.570 -2.2233  0.1853 -1.6290
  124SOPE  H11B13187   4.915   5.091   1.396  2.3004  0.0966 -0.1248
  124SOPE     P13188   5.156   5.170   1.633  1.0005 -0.6349  0.5054
  124SOPE   O1313189   5.066   5.281   1.668  0.1026 -0.4181 -0.1411
  124SOPE   O1413190   5.297   5.203   1.599 -0.4618  0.2776 -0.1867
  124SOPE   O1213191   5.095   5.112   1.500  0.1597  0.6105 -0.1886
  124SOPE   O1113192   5.151   5.050   1.731 -0.3096 -0.2852  0.1185
  124SOPE    C113193   5.073   5.056   1.847 -0.1757 -0.1892 -0.5348
  124SOPE    HA13194   5.042   4.951   1.869 -0.4183 -0.2717 -1.2642
  124SOPE    HB13195   4.987   5.124   1.831  0.0431 -0.2782 -2.1773
  124SOPE    C213196   5.152   5.108   1.973 -0.5040 -0.0509  0.1474
  124SOPE    HS13197   5.186   5.210   1.946 -1.2276 -0.6831 -3.6409
  124SOPE   O2113198   5.256   5.017   2.003 -0.3343 -0.3606 -0.3225
  124SOPE   C2113199   5.360   5.073   2.063 -0.4081  0.6040 -0.2681
  124SOPE   O2213200   5.370   5.192   2.088 -0.4996 -0.1443 -0.0687
  124SOPE   C2213201   5.470   4.969   2.082 -0.2407  0.6578 -0.4903
  124SOPE   H2R13202   5.500   4.927   1.984 -1.6895 -2.0043  0.1189
  124SOPE   H2S13203   5.435   4.885   2.146 -0.0619 -0.5152 -1.8887
  124SOPE    C313204   5.055   5.105   2.104 -0.0403 -0.1031  0.0378
  124SOPE    HX13205   5.044   4.997   2.127 -0.1925 -0.0847  0.0472
  124SOPE    HY13206   4.964   5.161   2.075  0.5367  0.4602 -0.7233
  124SOPE   O3113207   5.125   5.174   2.212  0.0141  0.5024 -0.1138
  124SOPE   C3113208   5.044   5.210   2.308  0.1923 -0.7136 -0.2660
  124SOPE   O3213209   4.920   5.191   2.310  0.6804  0.4231  0.0516
  124SOPE   C3213210   5.130   5.260   2.424 -0.1884 -0.2781 -0.3624
  124SOPE   H2X13211   5.192   5.344   2.388  1.3939 -0.7488  1.1063
  124SOPE   H2Y13212   5.200   5.178   2.451  0.2328  0.3648  0.5658
  124SOPE   C2313213   5.601   5.034   2.149  0.0184  0.5065  0.0198
  124SOPE   H3R13214   5.650   5.103   2.077 -1.7697  0.3393 -1.4478
  124SOPE   H3S13215   5.673   4.950   2.163  1.4108  1.4477 -1.2343
  124SOPE   C2413216   5.585   5.097   2.285  0.2713 -0.1331 -0.1163
  124SOPE   H4R13217   5.692   5.115   2.311  0.4542 -0.9365 -0.2826
  124SOPE   H4S13218   5.534   5.194   2.271 -0.0770  0.1130  2.4446
  124SOPE   C2513219   5.518   5.004   2.389 -0.1761 -0.3210  0.7912
  124SOPE   H5R13220   5.413   4.979   2.363 -0.1418 -0.0691  0.4062
  124SOPE   H5S13221   5.569   4.905   2.387  1.3286  0.3801  1.9616
  124SOPE   C2613222   5.520   5.053   2.533 -0.0881 -0.0529 -0.2488
  124SOPE   H6R13223   5.627   5.070   2.560 -0.1516  1.2366 -0.7466
  124SOPE   H6S13224   5.464   5.148   2.545 -1.0871 -0.7102  0.4200
  124SOPE   C2713225   5.476   4.937   2.618  0.7637 -0.6493 -0.6225
  124SOPE   H7R13226   5.371   4.913   2.589  0.8334 -1.8778  0.0866
  124SOPE   H7S13227   5.539   4.850   2.592  1.3786 -1.0923  2.0086
  124SOPE   C2813228   5.489   4.952   2.775 -0.2246  0.5408 -0.1858
  124SOPE   H8R13229   5.453   4.856   2.819  1.3166  0.2719  0.5445
  124SOPE   H8S13230   5.593   4.966   2.810 -0.9347  3.3255  1.0889
  124SOPE   C2913231   5.403   5.060   2.831 -0.0373 -0.1271  0.1890
  124SOPE   H9113232   5.429   5.162   2.801  2.6442 -0.6962  0.3940
  124SOPE  C21013233   5.309   5.050   2.928 -0.0765  0.7121 -0.4311
  124SOPE  H10113234   5.246   5.139   2.943  0.5075  1.0044  0.3186
  124SOPE  C21113235   5.260   4.924   2.992  0.1575  0.6750 -0.9277
  124SOPE  H11R13236   5.324   4.836   2.970 -0.3071 -0.3199  1.4449
  124SOPE  H11S13237   5.156   4.889   2.975 -0.0348 -0.4263  2.0394
  124SOPE  C21213238   5.260   4.923   3.147 -0.4109  0.6654 -0.2928
  124SOPE  H12R13239   5.222   4.822   3.173 -2.3194  1.0941 -1.2289
  124SOPE  H12S13240   5.189   4.985   3.205  0.3750  0.0899  1.3483
  124SOPE  C21313241   5.405   4.943   3.201 -0.1398 -0.1535  0.8570
  124SOPE  H13R13242   5.407   5.054   3.200 -1.1841 -0.1250  0.9249
  124SOPE  H13S13243   5.475   4.894   3.130 -0.4332 -1.2442  1.2965
  124SOPE  C21413244   5.444   4.884   3.330 -0.3035 -0.2121  0.2207
  124SOPE  H14R13245   5.551   4.917   3.330  0.2764 -1.3770 -4.5968
  124SOPE  H14S13246   5.451   4.774   3.320 -0.8564 -0.1591 -0.8944
  124SOPE  C21513247   5.371   4.941   3.450  0.0001 -0.1465 -0.3435
  124SOPE  H15R13248   5.262   4.946   3.429 -0.2703  2.2126  1.2877
  124SOPE  H15S13249   5.402   5.046   3.472 -0.3950 -0.0560 -0.2156
  124SOPE  C21613250   5.400   4.853   3.568  0.0798  0.5215 -0.1554
  124SOPE  H16R13251   5.395   4.909   3.664  0.2545 -1.4930  1.0963
  124SOPE  H16S13252   5.507   4.830   3.554 -0.0746  1.6950 -4.6517
  124SOPE  C21713253   5.310   4.729   3.572  0.0796  0.4670  0.2693
  124SOPE  H17R13254   5.284   4.687   3.473  1.3704  1.0972 -0.3700
  124SOPE  H17S13255   5.213   4.753   3.620 -0.3558 -1.1765  0.2447
  124SOPE  C21813256   5.380   4.625   3.663  0.0746 -0.0528  1.0812
  124SOPE  H18R13257   5.310   4.540   3.683  0.2493 -0.1504  1.2855
  124SOPE  H18S13258   5.420   4.666   3.758 -1.2399  1.4113  1.0489
  124SOPE  H18T13259   5.473   4.586   3.618  0.4683 -1.7441  3.1726
  124SOPE   C3313260   5.048   5.298   2.545  0.1054 -0.0123  0.3470
  124SOPE   H3X13261   4.964   5.365   2.518  0.6067  0.0891 -1.0507
  124SOPE   H3Y13262   5.112   5.348   2.621  0.9948 -0.3167 -0.1722
  124SOPE   C3413263   4.987   5.185   2.632  0.3840  1.0129  0.2100
  124SOPE   H4X13264   5.060   5.107   2.664  0.5312  1.3090  0.6082
  124SOPE   H4Y13265   4.903   5.150   2.569  1.0738 -1.4276  0.5563
  124SOPE   C3513266   4.915   5.247   2.759  0.0839  0.3369  0.3183
  124SOPE   H5X13267   4.849   5.166   2.796  0.0532  1.1615  2.1690
  124SOPE   H5Y13268   4.843   5.325   2.726 -2.0720 -2.6566 -2.7133
  124SOPE   C3613269   5.003   5.299   2.869 -0.7434  0.3850 -0.7365
  124SOPE   H6X13270   5.030   5.404   2.844  0.0794  0.2159 -0.5945
  124SOPE   H6Y13271   5.097   5.241   2.880  0.9138  2.9766 -0.0603
  124SOPE   C3713272   4.921   5.326   2.998  0.4727 -0.3589  0.1419
  124SOPE   H7X13273   4.895   5.223   3.028 -0.4175 -0.4407 -0.8614
  124SOPE   H7Y13274   4.834   5.388   2.966  0.7492 -0.7209 -1.4179
  124SOPE   C3813275   4.985   5.390   3.120 -0.7606  0.5292 -0.0563
  124SOPE   H8X13276   5.028   5.486   3.085  0.7217 -0.1770 -0.2296
  124SOPE   H8Y13277   5.065   5.325   3.161 -1.8723  0.0186  1.3836
  124SOPE   C3913278   4.890   5.414   3.231  0.3238 -1.1244  0.1700
  124SOPE   H9X13279   4.818   5.329   3.237 -2.0131  0.8562  2.2015
  124SOPE   H9Y13280   4.830   5.505   3.213  0.7061  0.2170  4.5443
  124SOPE  C31013281   4.961   5.450   3.369  0.2946 -0.2037 -0.1755
  124SOPE  H10X13282   4.893   5.514   3.429  0.0394 -1.8914  1.4192
  124SOPE  H10Y13283   5.052   5.511   3.349  1.0500 -1.0945  0.4508
  124SOPE  C31113284   5.017   5.333   3.454  0.1017 -0.8074  0.3284
  124SOPE  H11X13285   5.069   5.262   3.386 -0.5313  0.4705 -1.5690
  124SOPE  H11Y13286   4.941   5.280   3.515 -1.2003 -1.7978 -2.0610
  124SOPE  C31213287   5.124   5.392   3.553 -0.2459  0.6198 -0.3705
  124SOPE  H12X13288   5.080   5.473   3.614 -1.0638  1.6182 -2.2014
  124SOPE  H12Y13289   5.209   5.438   3.498  0.7987  0.1715  0.8158
  124SOPE  C31313290   5.180   5.286   3.641 -0.2200  0.6234 -0.1914
  124SOPE  H13X13291   5.224   5.199   3.588 -1.5733 -0.6859  0.7473
  124SOPE  H13Y13292   5.101   5.232   3.696  0.0227 -1.2972 -1.6343
  124SOPE  C31413293   5.276   5.334   3.746 -0.1054  0.4867  0.0231
  124SOPE  H14X13294   5.242   5.429   3.792  2.0752  0.9342  0.8135
  124SOPE  H14Y13295   5.380   5.352   3.710 -0.0782  2.1278  0.8185
  124SOPE  C31513296   5.307   5.241   3.870  0.0770 -0.3523  0.1557
  124SOPE  H15X13297   5.326   5.140   3.826  0.0302  0.5235 -1.9738
  124SOPE  H15Y13298   5.217   5.238   3.936  0.1000  1.1186  0.2856
  124SOPE  C31613299   5.426   5.306   3.944 -0.1292  0.0134 -0.0630
  124SOPE  H16X13300   5.425   5.414   3.966  0.4421 -0.2068  1.0920
  124SOPE  H16Y13301   5.521   5.278   3.894 -0.3305 -1.1827  0.1919
  124SOPE  C31713302   5.443   5.245   4.082  0.0875 -0.3258 -0.3256
  124SOPE  H17X13303   5.359   5.278   4.147  0.7524 -1.2775  1.0544
  124SOPE  H17Y13304   5.534   5.287   4.128 -0.3143 -0.2200  0.3858
  124SOPE  C31813305   5.448   5.093   4.093  0.2135 -0.0607 -0.6299
  124SOPE  H18X13306   5.493   5.044   4.004  0.0915 -1.3017 -0.0288
  124SOPE  H18Y13307   5.343   5.057   4.089 -0.3737  1.2547  1.3619
  124SOPE  H18Z13308   5.499   5.059   4.186 -1.8780  0.4789  0.7769
  125SOPE     N13309   2.092   4.802   2.059 -0.7715 -0.0548  0.0635
  125SOPE   HN113310   2.138   4.710   2.076 -0.5376  0.5969  3.6341
  125SOPE   HN213311   2.152   4.868   2.113 -1.9228 -0.2353  1.6403
  125SOPE   HN313312   1.992   4.794   2.088 -0.9339 -0.1893 -0.5146
  125SOPE   C1213313   2.102   4.842   1.914 -0.3168  0.8489  0.4657
  125SOPE  H12A13314   2.050   4.767   1.850 -0.0858  1.6335 -0.6656
  125SOPE  H12B13315   2.206   4.848   1.876 -1.4622 -0.6426 -3.3921
  125SOPE   C1113316   2.029   4.984   1.902  0.1599 -0.3548 -0.3039
  125SOPE  H11A13317   2.023   5.009   1.794  5.2813 -0.1920 -0.8021
  125SOPE  H11B13318   2.101   5.058   1.942 -0.1670  0.8242 -1.8421
  125SOPE     P13319   1.771   4.987   1.877  0.3149  0.1010  0.2038
  125SOPE   O1313320   1.698   4.858   1.901 -0.1524 -0.1628 -0.0128
  125SOPE   O1413321   1.785   5.026   1.737 -0.7001  0.0173  0.5523
  125SOPE   O1213322   1.901   4.994   1.970  0.6867  0.3600  0.1987
  125SOPE   O1113323   1.679   5.092   1.947 -0.3096  0.6532 -0.5370
  125SOPE    C113324   1.702   5.198   2.033  0.6254  0.7530  0.1471
  125SOPE    HA13325   1.661   5.290   1.987 -1.1852  0.5399  1.2372
  125SOPE    HB13326   1.811   5.216   2.043  0.6610  0.9068 -0.5121
  125SOPE    C213327   1.656   5.171   2.182 -0.7632  0.8613  0.3277
  125SOPE    HS13328   1.667   5.264   2.243 -2.1909  1.8614 -0.8610
  125SOPE   O2113329   1.732   5.056   2.235  0.5462 -0.0824 -0.3030
  125SOPE   C2113330   1.860   5.079   2.263 -0.0664 -0.0303 -0.2615
  125SOPE   O2213331   1.915   5.188   2.265  0.2603  0.1289  0.6105
  125SOPE   C2213332   1.929   4.959   2.318 -1.1277  0.0604  0.1627
  125SOPE   H2R13333   2.029   4.998   2.346 -1.5157  0.8781  0.4484
  125SOPE   H2S13334   1.948   4.888   2.235  1.5817 -0.3008  1.0162
  125SOPE    C313335   1.501   5.156   2.185  0.9296 -0.0061 -0.2599
  125SOPE    HX13336   1.463   5.067   2.130 -0.2322  0.4307 -0.1914
  125SOPE    HY13337   1.447   5.239   2.134 -4.5517 -3.1885 -0.3927
  125SOPE   O3113338   1.452   5.144   2.322  0.5626 -0.3116  0.0655
  125SOPE   C3113339   1.420   5.265   2.382  0.4205 -0.0063  0.1046
  125SOPE   O3213340   1.414   5.367   2.320  0.1741  0.1780 -0.1612
  125SOPE   C3213341   1.409   5.238   2.533 -0.0352 -0.3789 -0.0041
  125SOPE   H2X13342   1.494   5.168   2.545 -0.2130 -0.5625  0.1844
  125SOPE   H2Y13343   1.306   5.196   2.531  0.0096 -0.4937  0.1324
  125SOPE   C2313344   1.865   4.886   2.439  0.8917 -0.3846 -0.2029
  125SOPE   H3R13345   1.917   4.788   2.442 -1.2455 -1.5516  1.3182
  125SOPE   H3S13346   1.755   4.871   2.438  0.5034  1.7760  2.0383
  125SOPE   C2413347   1.909   4.950   2.576 -0.1877  0.1144  0.5502
  125SOPE   H4R13348   2.017   4.965   2.594  0.2799 -0.4598 -1.5124
  125SOPE   H4S13349   1.858   5.049   2.577 -0.3330  0.0420  1.7270
  125SOPE   C2513350   1.849   4.877   2.700 -0.3711 -0.5164 -0.1440
  125SOPE   H5R13351   1.740   4.897   2.701 -0.2984 -0.0763 -0.5957
  125SOPE   H5S13352   1.865   4.767   2.706 -1.6402 -0.6547  1.1805
  125SOPE   C2613353   1.906   4.927   2.838 -0.7455 -0.5491 -0.5278
  125SOPE   H6R13354   2.017   4.922   2.838 -0.7073 -1.6882  2.3378
  125SOPE   H6S13355   1.884   5.034   2.857  0.6405  0.3710 -3.5043
  125SOPE   C2713356   1.863   4.832   2.950 -0.2042  0.0449  0.1383
  125SOPE   H7R13357   1.755   4.816   2.934 -0.0666  0.1295 -1.0120
  125SOPE   H7S13358   1.913   4.734   2.930  0.4590  0.6899 -1.6129
  125SOPE   C2813359   1.898   4.870   3.093 -0.9521 -0.3014 -0.5496
  125SOPE   H8R13360   1.907   4.780   3.158 -1.7386  0.1415  0.1961
  125SOPE   H8S13361   2.002   4.907   3.084 -1.6180  1.2427 -2.5307
  125SOPE   C2913362   1.800   4.968   3.155  0.7428  0.1430 -0.1154
  125SOPE   H9113363   1.698   4.985   3.118  0.4628  3.0998  1.6601
  125SOPE  C21013364   1.826   5.031   3.272  0.5241 -0.3826 -0.2948
  125SOPE  H10113365   1.747   5.088   3.322  0.8750  0.0499 -0.2278
  125SOPE  C21113366   1.952   5.001   3.354  0.1425  0.0351 -0.3350
  125SOPE  H11R13367   2.023   5.086   3.363 -1.1274  0.9318  2.2139
  125SOPE  H11S13368   2.014   4.922   3.305 -0.1063  0.3497 -1.1747
  125SOPE  C21213369   1.925   4.950   3.495  0.7724 -0.0823 -0.3586
  125SOPE  H12R13370   1.892   4.844   3.497  1.2844 -0.2686  2.1919
  125SOPE  H12S13371   1.855   5.023   3.540  0.8009  0.4510 -1.1641
  125SOPE  C21313372   2.056   4.964   3.586 -0.2452  0.1134 -0.6161
  125SOPE  H13R13373   2.102   5.064   3.571 -1.0188  0.2134 -2.6612
  125SOPE  H13S13374   2.127   4.891   3.542  0.0650 -1.3157  2.0236
  125SOPE  C21413375   2.029   4.920   3.734  0.0266  0.5954  0.0693
  125SOPE  H14R13376   1.960   4.987   3.790 -0.1870 -0.4127  1.0605
  125SOPE  H14S13377   2.125   4.920   3.790  1.3140  1.4340 -2.0109
  125SOPE  C21513378   1.994   4.769   3.728 -0.3920  0.7149 -1.5072
  125SOPE  H15R13379   2.060   4.711   3.659  1.5335  1.1479 -0.1071
  125SOPE  H15S13380   1.888   4.754   3.700  0.2362 -3.5479 -2.3542
  125SOPE  C21613381   2.009   4.708   3.870 -0.3504  0.7140  0.0412
  125SOPE  H16R13382   1.940   4.759   3.941 -0.3985  1.1262 -0.2961
  125SOPE  H16S13383   2.115   4.704   3.904  0.1832 -0.0977 -1.5933
  125SOPE  C21713384   1.977   4.553   3.847 -0.4894 -0.1225  0.3142
  125SOPE  H17R13385   2.047   4.525   3.765 -1.7049 -1.6531 -0.2453
  125SOPE  H17S13386   1.871   4.557   3.815 -0.8907  0.2504  1.6407
  125SOPE  C21813387   1.998   4.473   3.971 -0.4801  0.7134 -0.6554
  125SOPE  H18R13388   2.103   4.484   4.004 -0.7743  2.8345 -0.2450
  125SOPE  H18S13389   1.991   4.367   3.941 -2.6636  1.0207 -1.4517
  125SOPE  H18T13390   1.936   4.503   4.059  0.4253 -2.9487  1.4193
  125SOPE   C3313391   1.400   5.363   2.619 -0.0642  0.6715 -0.2292
  125SOPE   H3X13392   1.327   5.434   2.573  0.0907  0.2464 -1.1499
  125SOPE   H3Y13393   1.503   5.403   2.619  0.5544 -0.8743  0.1599
  125SOPE   C3413394   1.367   5.315   2.761  0.4298  0.6820  0.3434
  125SOPE   H4X13395   1.435   5.229   2.774 -0.6785 -0.0386  1.5980
  125SOPE   H4Y13396   1.261   5.281   2.766 -0.5133  2.9412 -1.6708
  125SOPE   C3513397   1.410   5.415   2.863  0.3844 -0.2959 -0.3804
  125SOPE   H5X13398   1.336   5.499   2.863 -0.1817 -0.7819  0.1601
  125SOPE   H5Y13399   1.515   5.439   2.836  0.7621 -2.7706 -1.2949
  125SOPE   C3613400   1.417   5.361   3.004  0.5684  0.4223 -0.1680
  125SOPE   H6X13401   1.500   5.287   3.015  2.5806  2.4363 -0.8802
  125SOPE   H6Y13402   1.321   5.313   3.030  0.7681  1.5567  3.1614
  125SOPE   C3713403   1.431   5.477   3.105 -0.4659 -0.1112  0.1100
  125SOPE   H7X13404   1.354   5.557   3.101  1.1455  1.6387  1.8606
  125SOPE   H7Y13405   1.521   5.539   3.084  0.0598 -1.0207 -0.3750
  125SOPE   C3813406   1.446   5.422   3.245 -0.2460 -0.3635  1.0513
  125SOPE   H8X13407   1.531   5.351   3.255  1.1417  1.0936  0.2023
  125SOPE   H8Y13408   1.349   5.369   3.248 -1.2428  1.3330  0.3474
  125SOPE   C3913409   1.440   5.536   3.342 -0.0132 -0.3050 -0.3734
  125SOPE   H9X13410   1.356   5.609   3.341 -0.0120 -0.2632  1.0429
  125SOPE   H9Y13411   1.532   5.590   3.311  0.3885 -1.5851 -1.5063
  125SOPE  C31013412   1.439   5.474   3.482  0.2969 -0.2586  0.3338
  125SOPE  H10X13413   1.440   5.560   3.552  2.9329 -0.6057  0.8031
  125SOPE  H10Y13414   1.533   5.418   3.498  1.3412  1.4370  0.3668
  125SOPE  C31113415   1.313   5.395   3.515  0.1819  0.5515  0.2616
  125SOPE  H11X13416   1.310   5.293   3.471  2.6138 -0.4838  2.2827
  125SOPE  H11Y13417   1.230   5.444   3.461  0.2240 -1.1412 -1.4833
  125SOPE  C31213418   1.301   5.362   3.669  0.1292 -0.3874  0.0992
  125SOPE  H12X13419   1.336   5.443   3.736 -2.5280  0.3554  0.7050
  125SOPE  H12Y13420   1.366   5.275   3.692  0.5339 -0.3056 -0.7263
  125SOPE  C31313421   1.154   5.313   3.704  0.7329 -0.4184  0.6244
  125SOPE  H13X13422   1.087   5.394   3.668 -0.2167 -1.5259 -0.1904
  125SOPE  H13Y13423   1.145   5.304   3.815  0.7841 -3.3956  0.4685
  125SOPE  C31413424   1.110   5.181   3.635  0.0033 -0.1829 -0.2298
  125SOPE  H14X13425   1.197   5.113   3.648  0.9657  1.2605  1.2353
  125SOPE  H14Y13426   1.089   5.209   3.529 -0.8096  1.2909  0.2925
  125SOPE  C31513427   0.973   5.111   3.693 -0.0556  0.6590 -0.6325
  125SOPE  H15X13428   0.981   5.111   3.803 -0.1235 -1.5393 -0.5824
  125SOPE  H15Y13429   0.955   5.012   3.645  1.1926 -0.2861  0.7230
  125SOPE  C31613430   0.850   5.197   3.656 -0.2828 -0.2453 -0.1263
  125SOPE  H16X13431   0.875   5.305   3.669 -0.0030 -0.4381  1.1444
  125SOPE  H16Y13432   0.758   5.194   3.718 -1.6805 -1.0375 -2.1680
  125SOPE  C31713433   0.797   5.148   3.525 -0.0800  0.1779  0.3426
  125SOPE  H17X13434   0.799   5.036   3.523  0.7096  0.1795  0.8434
  125SOPE  H17Y13435   0.859   5.176   3.437  0.6164  0.0022  0.7779
  125SOPE  C31813436   0.657   5.208   3.496  0.4351  0.2827 -0.1892
  125SOPE  H18X13437   0.649   5.319   3.494 -0.7340  0.3196  2.0130
  125SOPE  H18Y13438   0.585   5.177   3.575 -0.6096  2.1436 -0.3388
  125SOPE  H18Z13439   0.617   5.159   3.405 -1.4538 -1.6230  1.5458
  126SOPE     N13440   3.144   1.300   2.073 -0.1513  0.0347  0.3897
  126SOPE   HN113441   3.211   1.369   2.114 -0.9651  1.3125 -0.3583
  126SOPE   HN213442   3.189   1.256   1.990 -1.9272 -0.0243 -0.5836
  126SOPE   HN313443   3.063   1.350   2.031  0.2209 -0.7642 -1.3646
  126SOPE   C1213444   3.085   1.207   2.170 -0.3574  0.5418 -0.7482
  126SOPE  H12A13445   3.169   1.166   2.230 -2.5709 -1.8625  0.9987
  126SOPE  H12B13446   3.036   1.125   2.112 -2.0948  1.9607 -1.3882
  126SOPE   C1113447   2.981   1.283   2.260  0.0953 -0.4023 -0.2825
  126SOPE  H11A13448   3.036   1.356   2.323  1.2054 -0.3860 -1.2284
  126SOPE  H11B13449   2.931   1.207   2.323  1.8267 -3.2958 -2.2018
  126SOPE     P13450   2.770   1.296   2.101  0.0317  0.3951 -0.1169
  126SOPE   O1313451   2.821   1.203   1.991  0.3734 -0.2867 -0.0935
  126SOPE   O1413452   2.678   1.402   2.065 -0.1680 -0.1834 -0.1611
  126SOPE   O1213453   2.891   1.362   2.186  0.7059  0.1526 -0.2593
  126SOPE   O1113454   2.693   1.201   2.196  0.6447 -0.1856 -0.0392
  126SOPE    C113455   2.632   1.227   2.325 -0.3278  0.4995 -0.0858
  126SOPE    HA13456   2.543   1.293   2.314  0.1167  1.0477 -0.5164
  126SOPE    HB13457   2.696   1.283   2.396 -0.5107 -2.5786  2.7191
  126SOPE    C213458   2.584   1.090   2.387 -0.6390  0.3757  0.1616
  126SOPE    HS13459   2.482   1.077   2.344  0.0315 -1.0804 -1.0764
  126SOPE   O2113460   2.579   1.098   2.534  0.3243  0.7776  0.2836
  126SOPE   C2113461   2.506   1.000   2.593 -0.6939 -0.0791 -0.5129
  126SOPE   O2213462   2.439   0.916   2.532 -0.4181 -0.3666 -0.2993
  126SOPE   C2213463   2.529   1.030   2.746 -0.6627  0.5531  0.6125
  126SOPE   H2R13464   2.518   1.140   2.760 -1.0709  0.6179 -0.1108
  126SOPE   H2S13465   2.627   0.993   2.782 -0.4086  0.7296  0.1102
  126SOPE    C313466   2.670   0.964   2.347  0.2741 -0.0861  0.4147
  126SOPE    HX13467   2.646   0.961   2.239 -0.3843  1.5197  0.4898
  126SOPE    HY13468   2.624   0.872   2.390 -1.9354  0.5440 -0.4797
  126SOPE   O3113469   2.816   0.980   2.353  0.8865 -0.3849  0.0735
  126SOPE   C3113470   2.862   0.948   2.472 -0.3934 -1.0302 -0.2780
  126SOPE   O3213471   2.799   0.895   2.563  0.0397  0.0120  0.0647
  126SOPE   C3213472   3.012   0.975   2.490 -0.0017 -0.0817 -0.0111
  126SOPE   H2X13473   3.046   1.059   2.426  1.4699 -0.0713  0.7456
  126SOPE   H2Y13474   3.075   0.892   2.450 -0.4942 -0.6930  0.4618
  126SOPE   C2313475   2.428   0.957   2.839  0.3524  0.1182  0.8834
  126SOPE   H3R13476   2.445   0.847   2.834 -1.0383 -0.1162  0.9732
  126SOPE   H3S13477   2.322   0.972   2.808 -0.0069 -0.8729  1.5591
  126SOPE   C2413478   2.453   0.996   2.985  0.5657  0.3803  0.4939
  126SOPE   H4R13479   2.559   0.970   3.005  1.2629  2.5031 -0.1688
  126SOPE   H4S13480   2.443   1.107   2.986 -0.0528  0.3553 -0.4710
  126SOPE   C2513481   2.359   0.913   3.075 -0.7510  0.1595  0.2364
  126SOPE   H5R13482   2.252   0.919   3.046 -0.9668 -1.7553  0.4721
  126SOPE   H5S13483   2.386   0.807   3.059 -0.6719  0.0642  0.9768
  126SOPE   C2613484   2.374   0.939   3.229 -0.1598  0.6347  0.4272
  126SOPE   H6R13485   2.295   1.013   3.252  0.6026  1.2256  1.1994
  126SOPE   H6S13486   2.344   0.847   3.283 -0.3372 -0.6098 -1.6820
  126SOPE   C2713487   2.507   0.995   3.275 -0.0790  0.4282  0.1096
  126SOPE   H7R13488   2.585   0.931   3.227  1.2780 -0.2977  3.0810
  126SOPE   H7S13489   2.521   1.100   3.242  1.6458 -0.1208 -1.0823
  126SOPE   C2813490   2.514   0.979   3.425 -0.0387 -0.6715  0.1414
  126SOPE   H8R13491   2.436   1.050   3.460 -1.2676 -1.8277 -0.1417
  126SOPE   H8S13492   2.478   0.881   3.462  0.7112 -0.3624  1.7702
  126SOPE   C2913493   2.654   1.008   3.480 -0.1237 -0.1683  0.1620
  126SOPE   H9113494   2.725   0.927   3.454  0.6530 -0.4814  2.9253
  126SOPE  C21013495   2.687   1.092   3.580 -0.5216  0.0151 -0.5121
  126SOPE  H10113496   2.792   1.098   3.609 -1.0656  0.1280  1.6076
  126SOPE  C21113497   2.603   1.190   3.648  0.2557  0.4011  0.2281
  126SOPE  H11R13498   2.564   1.146   3.742 -1.4346 -0.1678 -0.7083
  126SOPE  H11S13499   2.523   1.217   3.576  2.1133 -0.6606 -2.4020
  126SOPE  C21213500   2.685   1.322   3.676  0.0985  0.0620 -0.3257
  126SOPE  H12R13501   2.724   1.365   3.582  1.5974  0.3495  0.3966
  126SOPE  H12S13502   2.769   1.300   3.746  0.4520 -3.3556 -1.6318
  126SOPE  C21313503   2.609   1.432   3.756 -0.3488  0.1860  0.0898
  126SOPE  H13R13504   2.561   1.398   3.850 -0.2507 -0.8508 -0.2182
  126SOPE  H13S13505   2.521   1.463   3.696 -0.9704 -1.3460  0.1443
  126SOPE  C21413506   2.695   1.550   3.787  0.3471  0.2694  0.0153
  126SOPE  H14R13507   2.766   1.507   3.861  0.7181  2.4053  0.9822
  126SOPE  H14S13508   2.642   1.639   3.828 -0.0118  1.4164 -2.7501
  126SOPE  C21513509   2.779   1.604   3.676 -0.4335  0.2641 -0.3358
  126SOPE  H15R13510   2.878   1.558   3.654  0.3272  0.4005  2.5175
  126SOPE  H15S13511   2.820   1.697   3.719  1.1721 -0.4425 -0.2394
  126SOPE  C21613512   2.705   1.645   3.559  0.1356  0.3699  0.7424
  126SOPE  H16R13513   2.627   1.719   3.587  2.7117  2.8421  1.8947
  126SOPE  H16S13514   2.657   1.557   3.512  1.8904  0.1298 -0.7263
  126SOPE  C21713515   2.786   1.714   3.445  0.5801  0.5020 -0.1037
  126SOPE  H17R13516   2.718   1.725   3.358 -1.6075  1.0295  1.5740
  126SOPE  H17S13517   2.878   1.658   3.418  1.4110  0.9010  1.7058
  126SOPE  C21813518   2.830   1.843   3.498  0.1829 -0.4976  0.4257
  126SOPE  H18R13519   2.884   1.903   3.421 -0.7369  0.0666  0.2001
  126SOPE  H18S13520   2.911   1.841   3.574 -0.0245 -0.5349  0.6465
  126SOPE  H18T13521   2.738   1.893   3.537  0.6990 -0.9609  2.3215
  126SOPE   C3313522   3.047   1.007   2.628 -0.2699  0.8899 -0.0132
  126SOPE   H3X13523   3.158   0.996   2.635 -0.2410 -0.4728 -1.7297
  126SOPE   H3Y13524   3.010   0.937   2.706  1.6280 -1.3195 -0.9637
  126SOPE   C3413525   3.013   1.150   2.664  0.0730  0.4619  0.3647
  126SOPE   H4X13526   2.905   1.174   2.673  0.0671  1.0734 -1.1450
  126SOPE   H4Y13527   3.051   1.210   2.579 -0.9401 -0.7753 -1.0191
  126SOPE   C3513528   3.090   1.187   2.789 -0.2321  0.3389 -0.8625
  126SOPE   H5X13529   3.200   1.168   2.780 -0.3132 -0.8776  0.3996
  126SOPE   H5Y13530   3.060   1.128   2.878 -0.3233  0.1162 -1.0419
  126SOPE   C3613531   3.065   1.325   2.841  0.5627 -1.0764  0.2894
  126SOPE   H6X13532   2.955   1.336   2.841  0.8033  4.0333 -2.2469
  126SOPE   H6Y13533   3.087   1.409   2.772 -3.8363  2.4327  2.6192
  126SOPE   C3713534   3.138   1.348   2.972  1.0103 -0.4318  1.1432
  126SOPE   H7X13535   3.166   1.455   2.966  1.0548 -0.5436 -1.8365
  126SOPE   H7Y13536   3.234   1.292   2.966  1.2261  0.0756 -3.2229
  126SOPE   C3813537   3.050   1.325   3.092  0.2601 -0.5038 -0.7348
  126SOPE   H8X13538   3.013   1.220   3.095  2.6788 -1.3934  0.3782
  126SOPE   H8Y13539   2.967   1.399   3.085  1.5694  1.3242  1.7850
  126SOPE   C3913540   3.120   1.364   3.229  0.3520 -0.3092 -0.4997
  126SOPE   H9X13541   3.160   1.467   3.240  0.8754 -0.7119  1.9837
  126SOPE   H9Y13542   3.192   1.281   3.246 -1.9121 -2.7811 -2.1418
  126SOPE  C31013543   3.019   1.345   3.345 -0.2879  0.3856  0.5383
  126SOPE  H10X13544   2.959   1.253   3.326  0.8922  0.0095 -1.6987
  126SOPE  H10Y13545   2.950   1.432   3.355  0.0344  0.9137 -1.5041
  126SOPE  C31113546   3.085   1.308   3.477  0.6830 -0.2864 -0.6215
  126SOPE  H11X13547   3.142   1.212   3.471  1.4607  0.1786 -0.7914
  126SOPE  H11Y13548   2.999   1.282   3.541  0.9905 -0.1770 -0.1626
  126SOPE  C31213549   3.178   1.413   3.530  0.7044 -0.3173  0.3271
  126SOPE  H12X13550   3.132   1.508   3.496 -1.9699 -1.5935  0.1437
  126SOPE  H12Y13551   3.279   1.406   3.484  0.5409  0.2214 -0.1121
  126SOPE  C31313552   3.178   1.430   3.683  0.5130 -0.0378  0.2785
  126SOPE  H13X13553   3.069   1.417   3.703  0.3862 -0.4313 -0.6241
  126SOPE  H13Y13554   3.215   1.532   3.707  2.9855 -0.6046 -0.8664
  126SOPE  C31413555   3.247   1.322   3.765  0.0422  1.0087 -0.1662
  126SOPE  H14X13556   3.296   1.246   3.701  0.9059 -0.0620  1.6588
  126SOPE  H14Y13557   3.169   1.255   3.809 -1.7509  2.0032 -1.6880
  126SOPE  C31513558   3.334   1.382   3.866  0.3594  0.4849  0.2842
  126SOPE  H15X13559   3.361   1.316   3.952 -1.3671  0.9608  1.2446
  126SOPE  H15Y13560   3.275   1.463   3.914  0.5025  0.8555 -0.1627
  126SOPE  C31613561   3.457   1.451   3.810 -0.0068 -0.1751  0.1720
  126SOPE  H16X13562   3.414   1.531   3.746 -1.7613 -0.3496  1.0642
  126SOPE  H16Y13563   3.505   1.376   3.743 -1.6597  0.7793 -2.2411
  126SOPE  C31713564   3.548   1.519   3.907  0.0789  0.0332  0.6853
  126SOPE  H17X13565   3.603   1.447   3.971  2.5336  1.6527  0.5405
  126SOPE  H17Y13566   3.487   1.577   3.979 -0.4182 -0.0501  0.3369
  126SOPE  C31813567   3.651   1.598   3.837 -1.0528  0.0183 -0.2886
  126SOPE  H18X13568   3.719   1.535   3.776  0.3117 -1.1135  2.2773
  126SOPE  H18Y13569   3.710   1.651   3.916 -0.5092  0.1360 -0.7620
  126SOPE  H18Z13570   3.594   1.673   3.778 -0.5834  0.0125 -0.7603
  127SOPE     N13571   6.287   1.379   1.893  0.0815 -0.1061  0.0291
  127SOPE   HN113572   6.217   1.363   1.819  0.8294 -0.5402 -0.5974
  127SOPE   HN213573   6.290   1.482   1.912  0.6712  0.1711 -1.4841
  127SOPE   HN313574   6.374   1.341   1.850 -2.2419 -1.6578 -3.7690
  127SOPE   C1213575   6.261   1.300   2.020 -0.3586 -0.2334 -0.1939
  127SOPE  H12A13576   6.354   1.321   2.076 -0.0837  0.8565 -1.0238
  127SOPE  H12B13577   6.263   1.192   1.994 -0.8778  0.0684 -1.5527
  127SOPE   C1113578   6.136   1.342   2.105  0.2728 -0.1153  0.1937
  127SOPE  H11A13579   6.157   1.448   2.132 -1.9229 -0.0532  1.8744
  127SOPE  H11B13580   6.153   1.284   2.198  1.1406  1.7001  1.2085
  127SOPE     P13581   5.923   1.450   1.997  0.1834  0.1027  0.3853
  127SOPE   O1313582   5.792   1.399   1.942 -0.3502 -0.0268  0.2831
  127SOPE   O1413583   6.002   1.540   1.915  0.7724  0.1381  0.1668
  127SOPE   O1213584   6.016   1.328   2.037  0.7732  0.0399 -0.4875
  127SOPE   O1113585   5.884   1.526   2.131  0.1297  0.2802  0.2551
  127SOPE    C113586   5.784   1.471   2.220 -0.4402 -0.0456 -0.0396
  127SOPE    HA13587   5.810   1.365   2.238 -0.9825 -0.1725  0.0051
  127SOPE    HB13588   5.686   1.473   2.169  0.5414  0.1096 -2.0321
  127SOPE    C213589   5.795   1.535   2.357 -0.6593  0.6205 -0.0741
  127SOPE    HS13590   5.736   1.486   2.438 -0.0045  1.9526  1.2498
  127SOPE   O2113591   5.747   1.672   2.353 -0.3305 -0.1349 -0.2017
  127SOPE   C2113592   5.623   1.700   2.348 -0.0009  1.1514  0.3837
  127SOPE   O2213593   5.535   1.611   2.350  0.5899  0.0935  0.3235
  127SOPE   C2213594   5.587   1.847   2.348 -0.3529  0.2190  0.2396
  127SOPE   H2R13595   5.553   1.887   2.250  1.3311 -2.0353 -1.3658
  127SOPE   H2S13596   5.683   1.903   2.358  1.0823 -1.1684 -3.6575
  127SOPE    C313597   5.937   1.531   2.408  0.3060  0.2774 -0.0420
  127SOPE    HX13598   5.996   1.597   2.341  1.1198 -1.6281 -1.2781
  127SOPE    HY13599   5.986   1.432   2.399 -0.2968 -0.0391  0.1222
  127SOPE   O3113600   5.946   1.562   2.547  0.2441  0.6284 -0.1742
  127SOPE   C3113601   5.990   1.680   2.572 -0.6208  0.5286  0.1358
  127SOPE   O3213602   6.056   1.758   2.504 -0.7803  0.2455  0.5098
  127SOPE   C3213603   5.940   1.716   2.714 -0.0783 -0.3448  0.3468
  127SOPE   H2X13604   6.004   1.661   2.786 -1.0651 -1.4611  0.3936
  127SOPE   H2Y13605   5.845   1.661   2.732 -0.8077  0.8250  0.1413
  127SOPE   C2313606   5.478   1.886   2.448 -0.0039  0.0030 -0.2891
  127SOPE   H3R13607   5.405   1.803   2.461  0.7746 -0.5578  0.6255
  127SOPE   H3S13608   5.424   1.977   2.414  2.7089  1.5255 -0.7626
  127SOPE   C2413609   5.529   1.916   2.590 -0.8930  0.0617  0.2547
  127SOPE   H4R13610   5.561   1.827   2.647 -2.7531 -1.3858 -0.8396
  127SOPE   H4S13611   5.618   1.976   2.561 -2.0032  0.6591 -2.1532
  127SOPE   C2513612   5.444   2.010   2.671 -0.0636 -0.2156 -0.1505
  127SOPE   H5R13613   5.407   2.090   2.603  0.2495  0.2579  0.2328
  127SOPE   H5S13614   5.356   1.954   2.709 -1.2969  1.0937 -0.9784
  127SOPE   C2613615   5.518   2.070   2.780  0.0727  0.6813 -0.6766
  127SOPE   H6R13616   5.531   1.992   2.858  1.9069 -0.9411 -2.4848
  127SOPE   H6S13617   5.620   2.094   2.742  0.9948 -1.4510  0.3211
  127SOPE   C2713618   5.442   2.187   2.846  0.4613  0.1017  0.0351
  127SOPE   H7R13619   5.527   2.257   2.860  0.9673 -0.4808 -0.0550
  127SOPE   H7S13620   5.371   2.240   2.779 -1.1532  0.4166  1.8918
  127SOPE   C2813621   5.386   2.147   2.981  0.1570 -0.3741 -0.7061
  127SOPE   H8R13622   5.470   2.103   3.039 -0.1988  1.5022  1.3554
  127SOPE   H8S13623   5.345   2.231   3.040 -0.2443 -0.3388 -1.0330
  127SOPE   C2913624   5.279   2.042   2.960  0.4726  0.1743 -0.5701
  127SOPE   H9113625   5.179   2.087   2.953 -0.1024 -1.1018 -0.8487
  127SOPE  C21013626   5.287   1.906   2.985  0.0891 -0.0141  0.1162
  127SOPE  H10113627   5.193   1.849   2.996  1.6596 -2.9768 -0.8362
  127SOPE  C21113628   5.400   1.819   3.030 -0.6650  0.4172 -0.1629
  127SOPE  H11R13629   5.496   1.869   3.054  0.3698 -0.3852 -2.4368
  127SOPE  H11S13630   5.432   1.755   2.946  0.7476  0.2051  0.5076
  127SOPE  C21213631   5.364   1.716   3.146 -0.1757 -0.4635  0.3303
  127SOPE  H12R13632   5.301   1.636   3.101  1.3782  0.4912 -4.0703
  127SOPE  H12S13633   5.297   1.765   3.220  3.1842 -0.4639  3.6292
  127SOPE  C21313634   5.482   1.656   3.215 -0.2246  0.1920  0.1126
  127SOPE  H13R13635   5.545   1.598   3.143 -3.1697 -0.5227 -2.0487
  127SOPE  H13S13636   5.445   1.573   3.280 -1.3574  0.3869 -0.2724
  127SOPE  C21413637   5.562   1.754   3.301  0.5414 -0.1462  0.7019
  127SOPE  H14R13638   5.501   1.843   3.326  0.0559 -0.0686 -0.6553
  127SOPE  H14S13639   5.645   1.797   3.241 -1.6026  0.2508 -2.2168
  127SOPE  C21513640   5.609   1.679   3.429  0.0073  0.2995  0.3110
  127SOPE  H15R13641   5.516   1.626   3.458 -0.1538  0.3292 -0.1310
  127SOPE  H15S13642   5.628   1.761   3.502  0.2936  1.0249 -0.5550
  127SOPE  C21613643   5.739   1.592   3.423  0.2697  0.6166 -0.0829
  127SOPE  H16R13644   5.832   1.651   3.405  2.5938 -2.9211 -0.6211
  127SOPE  H16S13645   5.729   1.528   3.334  0.0186 -0.5495  0.7639
  127SOPE  C21713646   5.762   1.495   3.544 -0.1125 -0.8035 -0.1124
  127SOPE  H17R13647   5.864   1.451   3.545 -0.3873 -1.4832  1.4610
  127SOPE  H17S13648   5.690   1.412   3.528 -1.2397 -0.1630  1.3272
  127SOPE  C21813649   5.752   1.563   3.683 -0.0403 -0.1513 -0.2130
  127SOPE  H18R13650   5.823   1.529   3.761 -0.9755  0.3027  0.8563
  127SOPE  H18S13651   5.650   1.544   3.721 -0.0648  0.8697  0.2669
  127SOPE  H18T13652   5.759   1.673   3.673 -0.7456  0.1699  2.2348
  127SOPE   C3313653   5.934   1.867   2.722 -0.5588 -0.4750 -0.3737
  127SOPE   H3X13654   5.843   1.905   2.671 -0.9317  0.2946  0.8148
  127SOPE   H3Y13655   6.036   1.903   2.696  0.2129 -0.5697  2.2386
  127SOPE   C3413656   5.926   1.913   2.870  0.3324 -0.3214 -0.3552
  127SOPE   H4X13657   6.024   1.888   2.916  2.0065  2.3578 -2.1787
  127SOPE   H4Y13658   5.850   1.851   2.922  2.1178 -0.9092  1.6939
  127SOPE   C3513659   5.911   2.065   2.882  0.3584 -0.3312  0.2710
  127SOPE   H5X13660   5.815   2.088   2.831 -0.2546 -2.1127  0.5290
  127SOPE   H5Y13661   5.984   2.113   2.814  0.1554 -0.7036 -0.2201
  127SOPE   C3613662   5.910   2.106   3.026  0.2969  0.5729 -0.7010
  127SOPE   H6X13663   5.929   2.215   3.038 -2.6209  1.2171 -1.2291
  127SOPE   H6Y13664   5.976   2.045   3.092 -0.0589  0.8843 -0.0423
  127SOPE   C3713665   5.775   2.089   3.098 -0.2205 -0.0743 -0.4934
  127SOPE   H7X13666   5.732   1.993   3.064 -1.3658  0.1814  0.1654
  127SOPE   H7Y13667   5.706   2.175   3.080  2.0530  1.3582 -3.3331
  127SOPE   C3813668   5.803   2.078   3.250 -0.2387  0.3629  0.0718
  127SOPE   H8X13669   5.860   2.171   3.273  1.9206 -1.2786  1.8735
  127SOPE   H8Y13670   5.869   1.992   3.274  2.3543  1.4107 -2.6822
  127SOPE   C3913671   5.671   2.089   3.334 -1.0130 -0.3886 -0.2277
  127SOPE   H9X13672   5.599   2.011   3.300 -2.8574  0.7815  0.8018
  127SOPE   H9Y13673   5.637   2.190   3.302 -0.0704 -0.1699 -0.5559
  127SOPE  C31013674   5.691   2.078   3.482 -0.5606  0.3948  0.8321
  127SOPE  H10X13675   5.793   2.112   3.513 -0.9401  1.1738  1.2334
  127SOPE  H10Y13676   5.681   1.969   3.504 -2.4456  0.5002  0.6390
  127SOPE  C31113677   5.590   2.164   3.558 -0.4639  0.0098  0.1657
  127SOPE  H11X13678   5.605   2.272   3.538  0.3930 -0.1769 -0.2298
  127SOPE  H11Y13679   5.602   2.138   3.665  0.7764  0.0901  0.0634
  127SOPE  C31213680   5.434   2.138   3.520  0.1961  0.1636  0.5363
  127SOPE  H12X13681   5.408   2.034   3.551  1.3276 -0.4693 -0.5651
  127SOPE  H12Y13682   5.420   2.144   3.410  0.2151  0.0368  0.5273
  127SOPE  C31313683   5.354   2.245   3.599  0.0885  0.1427 -0.3384
  127SOPE  H13X13684   5.253   2.249   3.554 -0.4871  1.8780  1.0032
  127SOPE  H13Y13685   5.398   2.344   3.574  0.8125  0.5003  2.0653
  127SOPE  C31413686   5.338   2.220   3.746  0.5318 -0.3646 -1.1352
  127SOPE  H14X13687   5.435   2.251   3.791 -0.2571 -2.0834  2.0317
  127SOPE  H14Y13688   5.332   2.114   3.778  0.9043  0.5544  2.4514
  127SOPE  C31513689   5.222   2.294   3.821  0.1944  0.1672 -0.2819
  127SOPE  H15X13690   5.206   2.227   3.908 -2.2574  0.7579 -0.2085
  127SOPE  H15Y13691   5.123   2.301   3.771 -1.1013  0.1387  2.1399
  127SOPE  C31613692   5.243   2.440   3.867  0.4261  0.3171 -1.0149
  127SOPE  H16X13693   5.149   2.499   3.878  0.6768  0.4249  0.8384
  127SOPE  H16Y13694   5.299   2.489   3.784  2.6143 -1.5307 -0.7361
  127SOPE  C31713695   5.321   2.466   3.996 -0.1869  0.0694 -0.4733
  127SOPE  H17X13696   5.349   2.572   3.977  1.8085 -0.4012 -0.3861
  127SOPE  H17Y13697   5.417   2.410   3.987 -0.0838  0.3919 -1.4491
  127SOPE  C31813698   5.257   2.429   4.133  0.3533 -0.0801 -0.0313
  127SOPE  H18X13699   5.331   2.442   4.214  0.9523  0.0501 -0.5873
  127SOPE  H18Y13700   5.223   2.323   4.126 -1.1572  0.4244 -0.9954
  127SOPE  H18Z13701   5.171   2.497   4.150  0.7943  0.9519 -1.6861
  128SOPE     N13702   0.434   1.417   1.642  0.5634 -0.6537 -0.2774
  128SOPE   HN113703   0.423   1.314   1.653  0.3970 -0.5918  0.1517
  128SOPE   HN213704   0.341   1.462   1.635  0.7662 -0.1174  0.4080
  128SOPE   HN313705   0.483   1.423   1.550  0.8866 -1.9281 -0.2045
  128SOPE   C1213706   0.522   1.481   1.748  0.2045 -0.6248  0.0586
  128SOPE  H12A13707   0.530   1.590   1.728  1.3564 -0.7984 -0.4992
  128SOPE  H12B13708   0.622   1.434   1.753  0.3508 -0.6239 -1.8936
  128SOPE   C1113709   0.451   1.475   1.890 -0.0393 -0.0094 -0.3931
  128SOPE  H11A13710   0.521   1.502   1.971 -0.7052 -1.3800  0.6774
  128SOPE  H11B13711   0.431   1.369   1.918  0.3965 -0.3737 -1.4118
  128SOPE     P13712   0.344   1.709   1.938  0.3525 -0.1569 -0.2718
  128SOPE   O1313713   0.208   1.760   1.967  0.4909  0.3624  0.1747
  128SOPE   O1413714   0.431   1.774   1.837  0.2939 -0.3159 -0.0306
  128SOPE   O1213715   0.328   1.555   1.896  0.3541  0.6137 -0.1752
  128SOPE   O1113716   0.423   1.695   2.074  0.0990  0.5132 -0.1957
  128SOPE    C113717   0.375   1.630   2.187  0.9351  0.0241  0.2144
  128SOPE    HA13718   0.323   1.533   2.171  1.8541 -0.7144  1.5481
  128SOPE    HB13719   0.291   1.686   2.234 -0.6026 -1.9355 -0.0975
  128SOPE    C213720   0.486   1.611   2.298 -0.4336  0.4326  0.3904
  128SOPE    HS13721   0.544   1.531   2.246 -3.1191  0.9857 -4.0229
  128SOPE   O2113722   0.421   1.571   2.421 -0.0861  0.3566  0.8710
  128SOPE   C2113723   0.480   1.469   2.480  0.0425 -0.7522  0.0828
  128SOPE   O2213724   0.591   1.420   2.462 -0.0617 -0.2970 -0.6923
  128SOPE   C2213725   0.391   1.420   2.595 -0.8094  0.0759  0.7268
  128SOPE   H2R13726   0.440   1.349   2.665  2.0209  0.4104 -0.8008
  128SOPE   H2S13727   0.305   1.363   2.553 -0.7412 -0.4256  1.2611
  128SOPE    C313728   0.570   1.740   2.313  0.2484  0.1810  0.1091
  128SOPE    HX13729   0.499   1.825   2.305  0.4965  0.4960  1.2097
  128SOPE    HY13730   0.624   1.734   2.216 -0.8000 -0.0793 -0.4841
  128SOPE   O3113731   0.663   1.750   2.424  0.0598  0.3668 -0.1766
  128SOPE   C3113732   0.785   1.700   2.407  0.3677 -0.4156 -0.1564
  128SOPE   O3213733   0.834   1.660   2.308  0.3074  0.2425  0.1952
  128SOPE   C3213734   0.854   1.712   2.543  0.3030 -0.0639 -0.4318
  128SOPE   H2X13735   0.805   1.805   2.580  0.3148 -0.0841 -0.3648
  128SOPE   H2Y13736   0.962   1.726   2.523  0.0781 -1.5166 -3.0182
  128SOPE   C2313737   0.319   1.525   2.684  1.1979 -0.7241  0.9260
  128SOPE   H3R13738   0.247   1.476   2.753 -1.2044 -0.0828 -0.9939
  128SOPE   H3S13739   0.262   1.584   2.609  2.8144 -0.8093 -0.4164
  128SOPE   C2413740   0.413   1.620   2.757  0.2260  0.0055  0.3314
  128SOPE   H4R13741   0.484   1.567   2.824  3.8395  0.5930 -2.7237
  128SOPE   H4S13742   0.467   1.673   2.676 -0.8202 -0.8655 -0.9661
  128SOPE   C2513743   0.335   1.732   2.829  0.3747  1.1290  0.0226
  128SOPE   H5R13744   0.321   1.817   2.759 -0.3036 -1.3040 -3.0538
  128SOPE   H5S13745   0.232   1.694   2.841  0.4851  1.1568  1.1644
  128SOPE   C2613746   0.402   1.781   2.954  0.9433  0.1629 -0.1713
  128SOPE   H6R13747   0.510   1.800   2.935  1.3798 -0.3622  1.6436
  128SOPE   H6S13748   0.357   1.880   2.977 -1.0277 -0.9564  1.0849
  128SOPE   C2713749   0.389   1.689   3.072  0.1402  0.5760  0.3780
  128SOPE   H7R13750   0.432   1.591   3.045 -3.2444 -0.6340 -1.1405
  128SOPE   H7S13751   0.445   1.731   3.158  1.7468 -3.7043  1.6835
  128SOPE   C2813752   0.234   1.672   3.107  0.3957  0.1273 -0.3893
  128SOPE   H8R13753   0.182   1.766   3.135  0.1120  0.2173 -1.1915
  128SOPE   H8S13754   0.176   1.629   3.023 -0.9690  1.5294 -0.2241
  128SOPE   C2913755   0.248   1.558   3.205  0.6361  0.4227  0.3158
  128SOPE   H9113756   0.243   1.456   3.165 -1.7979  1.7405 -3.2568
  128SOPE  C21013757   0.250   1.571   3.339  0.1958  0.0207  0.2250
  128SOPE  H10113758   0.256   1.487   3.410  1.8128 -1.9821 -2.1240
  128SOPE  C21113759   0.253   1.699   3.415  0.3547  0.6265 -0.1960
  128SOPE  H11R13760   0.275   1.786   3.350 -1.3468  0.9980 -0.3287
  128SOPE  H11S13761   0.344   1.690   3.477 -0.0722 -1.9590  0.1908
  128SOPE  C21213762   0.128   1.724   3.504  0.3334  0.0532  0.6619
  128SOPE  H12R13763   0.112   1.645   3.581  0.1612 -2.3536 -1.6942
  128SOPE  H12S13764   0.037   1.730   3.440  1.0537  3.0528 -0.2471
  128SOPE  C21313765   0.146   1.859   3.574 -0.3147  0.1665 -0.3381
  128SOPE  H13R13766   0.123   1.947   3.509 -1.5797 -1.1182 -1.6915
  128SOPE  H13S13767   0.249   1.869   3.616  0.3328 -1.7396 -1.3994
  128SOPE  C21413768   0.056   1.862   3.690 -0.2253  0.3102  0.6348
  128SOPE  H14R13769   0.072   1.951   3.754 -0.3097 -0.0565  1.1691
  128SOPE  H14S13770   0.074   1.770   3.750 -1.8498 -0.3226  0.2084
  128SOPE  C21513771  -0.098   1.857   3.650 -0.4555  0.3973  0.4165
  128SOPE  H15R13772  -0.120   1.757   3.607  0.6134  0.2645  0.1566
  128SOPE  H15S13773  -0.116   1.928   3.567  0.5823  0.0815 -0.0957
  128SOPE  C21613774  -0.205   1.862   3.769 -0.0982 -0.2742 -0.2498
  128SOPE  H16R13775  -0.308   1.877   3.730  0.4519 -0.6026 -1.9066
  128SOPE  H16S13776  -0.187   1.946   3.840  1.9541  1.7703 -2.9836
  128SOPE  C21713777  -0.211   1.737   3.849 -0.1944 -0.1730 -0.5883
  128SOPE  H17R13778  -0.118   1.689   3.884 -2.0122 -2.8179  0.9840
  128SOPE  H17S13779  -0.258   1.661   3.783 -2.6800  1.1589 -0.5022
  128SOPE  C21813780  -0.303   1.759   3.973 -0.6513 -0.1255  0.0654
  128SOPE  H18R13781  -0.269   1.854   4.019 -0.5755  0.1769 -0.6038
  128SOPE  H18S13782  -0.296   1.686   4.057  2.4430  1.2715  1.1597
  128SOPE  H18T13783  -0.412   1.769   3.951 -0.7054  2.2098  1.0538
  128SOPE   C3313784   0.825   1.596   2.637 -0.2230 -0.0834 -0.0928
  128SOPE   H3X13785   0.893   1.514   2.606 -1.1449 -1.1951  0.7378
  128SOPE   H3Y13786   0.721   1.558   2.622 -1.2351  2.6175 -0.3846
  128SOPE   C3413787   0.828   1.632   2.785 -0.1564 -0.1874  0.5482
  128SOPE   H4X13788   0.759   1.718   2.802  0.5198  1.0253 -2.3198
  128SOPE   H4Y13789   0.927   1.680   2.797 -0.6308  0.9317  0.1835
  128SOPE   C3513790   0.813   1.514   2.888  0.2024 -1.0237  0.5902
  128SOPE   H5X13791   0.890   1.434   2.888  1.1475 -0.1439  0.4220
  128SOPE   H5Y13792   0.711   1.472   2.879  0.1270 -0.8006  0.3942
  128SOPE   C3613793   0.824   1.569   3.026  0.4763 -0.1047  0.5689
  128SOPE   H6X13794   0.769   1.665   3.037  1.2686  0.2442  1.5640
  128SOPE   H6Y13795   0.929   1.600   3.043  0.7782 -0.5561 -0.4066
  128SOPE   C3713796   0.788   1.456   3.120  0.2206  0.1542 -0.3662
  128SOPE   H7X13797   0.853   1.367   3.107 -0.8955 -0.6219 -0.8436
  128SOPE   H7Y13798   0.682   1.432   3.095  0.0298  0.8321 -0.2373
  128SOPE   C3813799   0.795   1.507   3.261 -0.0883  0.3251  0.6894
  128SOPE   H8X13800   0.730   1.595   3.279 -0.9892 -0.2418  0.2484
  128SOPE   H8Y13801   0.901   1.533   3.281  0.4071 -1.0427 -0.0274
  128SOPE   C3913802   0.752   1.404   3.365  0.6793 -0.3458 -0.1040
  128SOPE   H9X13803   0.803   1.306   3.346  0.0656 -1.0858  1.8092
  128SOPE   H9Y13804   0.642   1.387   3.370  0.7290 -0.5255  0.5784
  128SOPE  C31013805   0.789   1.461   3.503  0.0329  0.2232 -0.0238
  128SOPE  H10X13806   0.736   1.556   3.527  0.1280  0.5668 -1.1212
  128SOPE  H10Y13807   0.896   1.480   3.480  0.1223  2.5771  1.9625
  128SOPE  C31113808   0.774   1.362   3.621  0.4623 -0.4192  0.0202
  128SOPE  H11X13809   0.862   1.382   3.685 -0.0916  0.1747  0.5986
  128SOPE  H11Y13810   0.778   1.256   3.587  0.8478  0.0892 -1.6121
  128SOPE  C31213811   0.647   1.375   3.710 -0.5618 -0.2813  0.2933
  128SOPE  H12X13812   0.647   1.478   3.752  0.5024 -1.1260  2.5242
  128SOPE  H12Y13813   0.648   1.299   3.791 -0.6076 -2.3654 -1.5506
  128SOPE  C31313814   0.511   1.365   3.639 -0.2379  0.1740  0.3595
  128SOPE  H13X13815   0.497   1.272   3.580 -0.2902  0.3869  0.0329
  128SOPE  H13Y13816   0.515   1.456   3.575 -0.6531  0.9930  1.4743
  128SOPE  C31413817   0.395   1.390   3.739  0.4817 -0.1134 -0.1776
  128SOPE  H14X13818   0.399   1.305   3.811 -0.2723  0.3107  0.3697
  128SOPE  H14Y13819   0.299   1.390   3.683 -1.1622 -0.3315  2.4924
  128SOPE  C31513820   0.400   1.516   3.823 -0.2763  1.4063  0.3239
  128SOPE  H15X13821   0.429   1.600   3.757 -0.7569  3.3588  2.4842
  128SOPE  H15Y13822   0.471   1.504   3.908 -1.2121  1.4321  1.1282
  128SOPE  C31613823   0.262   1.541   3.883  0.9495 -0.2590 -0.1154
  128SOPE  H16X13824   0.194   1.569   3.800 -1.0500 -3.0399  0.4517
  128SOPE  H16Y13825   0.255   1.624   3.957 -0.5257 -0.1349 -0.3476
  128SOPE  C31713826   0.200   1.421   3.958  0.2341  0.3874 -0.2210
  128SOPE  H17X13827   0.265   1.386   4.041  0.9216 -2.9623 -1.9955
  128SOPE  H17Y13828   0.178   1.341   3.884 -1.3296  1.4104 -0.9256
  128SOPE  C31813829   0.060   1.446   4.016  0.0682 -0.3868 -0.0629
  128SOPE  H18X13830   0.032   1.350   4.065  0.7418 -0.2395  0.6229
  128SOPE  H18Y13831  -0.012   1.473   3.935 -2.2670 -1.3739  1.5671
  128SOPE  H18Z13832   0.059   1.520   4.098 -0.3483 -0.4366 -0.0217
  129OSM      N13833   2.647   4.334   6.452  0.0075 -0.1717  0.8988
  129OSM    C1513834   2.528   4.382   6.532  0.3716 -0.7610 -0.2654
  129OSM   H15A13835   2.522   4.316   6.618  0.3300  0.2870  0.5595
  129OSM   H15B13836   2.436   4.388   6.477 -0.7850 -1.9667  1.4075
  129OSM   H15C13837   2.555   4.482   6.562  0.6702 -0.0583 -2.6960
  129OSM    C1413838   2.772   4.343   6.524 -1.1775  0.0606  0.3619
  129OSM   H14A13839   2.769   4.278   6.610 -0.8303 -0.7940 -0.2562
  129OSM   H14B13840   2.788   4.442   6.564  2.3030  0.1481 -0.8786
  129OSM   H14C13841   2.854   4.326   6.456 -2.0067  1.0580 -0.9554
  129OSM    C1313842   2.632   4.188   6.420 -0.9556 -0.8159  0.3935
  129OSM   H13A13843   2.566   4.181   6.335 -0.6604 -0.3151  0.1210
  129OSM   H13B13844   2.598   4.128   6.503 -1.1648 -1.2694 -0.0160
  129OSM   H13C13845   2.721   4.141   6.383 -0.8255 -0.1028 -0.2238
  129OSM    C1213846   2.650   4.422   6.327 -1.3669 -0.1648  0.3579
  129OSM   H12A13847   2.699   4.517   6.344 -0.3120 -0.3001 -1.5478
  129OSM   H12B13848   2.550   4.454   6.301 -2.2675 -2.1622  1.1935
  129OSM    C1113849   2.731   4.363   6.205 -0.3709  0.2444  0.6580
  129OSM   H11A13850   2.717   4.432   6.119  0.4377  2.1458  1.9730
  129OSM   H11B13851   2.685   4.266   6.178 -0.5854  0.3373  0.6921
  129OSM      P13852   2.937   4.209   6.218  0.1921 -0.2552 -0.3996
  129OSM    O1313853   3.062   4.219   6.290 -0.1949 -0.7117 -0.4028
  129OSM    O1413854   2.858   4.091   6.248  0.0271 -0.1179  0.3939
  129OSM    O1113855   2.986   4.198   6.068  0.0764 -0.0780 -0.1454
  129OSM    O1213856   2.862   4.345   6.233  0.2981 -0.2165 -0.2918
  129OSM    C1S13857   3.050   4.301   6.005  0.4054  0.2457  0.0134
  129OSM    H1S13858   3.159   4.286   5.996  0.1369 -0.7348 -2.6945
  129OSM    H1T13859   3.019   4.400   6.045  0.6839  0.4534 -0.2780
  129OSM     NF13860   3.076   4.439   5.809 -0.1099 -0.3812  0.0861
  129OSM    HNF13861   3.024   4.524   5.801  1.7871  0.8354  0.0497
  129OSM    C2S13862   3.010   4.313   5.854  0.5127 -1.2319  0.1821
  129OSM    H2S13863   3.060   4.236   5.791  3.0540  1.6493 -1.6455
  129OSM    C3S13864   2.853   4.310   5.834  0.2468  0.0334 -0.1540
  129OSM    H3S13865   2.814   4.393   5.895  0.0063 -0.5642  0.5196
  129OSM     O313866   2.789   4.194   5.885  0.3213  0.0490 -0.1656
  129OSM    HO313867   2.850   4.152   5.946  0.5955  3.6255  2.2615
  129OSM    C4S13868   2.827   4.326   5.684 -0.1140 -0.2321  0.1528
  129OSM    H4S13869   2.831   4.425   5.637  2.0709 -1.6927 -3.1496
  129OSM    C5S13870   2.791   4.235   5.589 -0.4325 -0.5755  0.3446
  129OSM    H5S13871   2.777   4.133   5.629  0.0257 -0.6664  0.2775
  129OSM    C6S13872   2.772   4.267   5.448 -0.5446 -0.2084  0.0834
  129OSM    H6S13873   2.665   4.249   5.423 -0.7305 -2.8885  2.2955
  129OSM    H6T13874   2.831   4.192   5.392  1.6280  0.1417  1.7603
  129OSM    C7S13875   2.806   4.414   5.399 -0.0210  0.1326 -0.1775
  129OSM    H7S13876   2.916   4.429   5.407  0.0750 -0.0620 -1.0213
  129OSM    H7T13877   2.740   4.494   5.439  2.4897  1.8590  0.7222
  129OSM    C8S13878   2.789   4.424   5.248 -0.8868 -0.1904  0.1129
  129OSM    H8S13879   2.842   4.339   5.199 -0.2705  0.6336 -0.6887
  129OSM    H8T13880   2.817   4.524   5.209 -0.3569 -1.3150 -2.6187
  129OSM    C9S13881   2.643   4.420   5.205  0.4741 -0.7291  0.1438
  129OSM    H9S13882   2.567   4.479   5.261  0.8683 -1.4632  1.5115
  129OSM    H9T13883   2.609   4.317   5.229 -0.9479  0.2088  2.6176
  129OSM   C10S13884   2.618   4.443   5.056 -0.1956 -0.8063 -0.3786
  129OSM   H10S13885   2.521   4.407   5.014 -0.5146  0.6457 -0.9440
  129OSM   H10T13886   2.700   4.401   4.995 -0.3920 -1.8863  0.0781
  129OSM   C11S13887   2.601   4.598   5.018  0.0882  0.3625  0.6515
  129OSM   H11S13888   2.683   4.650   5.070  1.7255 -0.8171 -0.6392
  129OSM   H11T13889   2.496   4.623   5.044  0.0147  0.8139 -0.0568
  129OSM   C12S13890   2.622   4.626   4.870  0.7290 -0.4605  0.4889
  129OSM   H12S13891   2.576   4.546   4.807  1.7931 -0.8232  0.1507
  129OSM   H12T13892   2.728   4.618   4.840  1.2841 -1.5482  2.5671
  129OSM   C13S13893   2.557   4.756   4.826  0.1706 -0.4009  0.7826
  129OSM   H13S13894   2.611   4.838   4.878 -1.7318  1.8552 -0.6416
  129OSM   H13T13895   2.451   4.769   4.853 -0.1991 -0.0238 -0.7664
  129OSM   C14S13896   2.583   4.771   4.675 -0.3009 -0.3552  0.1647
  129OSM   H14S13897   2.524   4.697   4.617  2.0420 -1.0616 -1.4685
  129OSM   H14T13898   2.690   4.754   4.649 -0.5026 -0.4727 -0.6030
  129OSM   C15S13899   2.548   4.911   4.618  1.0862  0.1637 -0.5739
  129OSM   H15S13900   2.594   4.983   4.689  0.2012 -1.3508  1.6146
  129OSM   H15T13901   2.440   4.930   4.636  1.3099  0.3433  0.6826
  129OSM   C16S13902   2.595   4.932   4.476  0.2195 -0.6247 -0.1076
  129OSM   H16S13903   2.531   4.878   4.403 -0.5727  0.1048  0.0256
  129OSM   H16T13904   2.696   4.893   4.452 -0.4885 -1.6809 -1.5867
  129OSM   C17S13905   2.599   5.086   4.448  0.3486 -0.2488 -0.2641
  129OSM   H17S13906   2.661   5.147   4.517  0.2740  1.4422 -1.6253
  129OSM   H17T13907   2.498   5.123   4.475  0.6473 -0.0473  0.6257
  129OSM   C18S13908   2.640   5.112   4.300 -0.4012 -0.0950  0.2451
  129OSM   H18S13909   2.571   5.054   4.235 -1.3969  2.0836 -0.7508
  129OSM   H18T13910   2.748   5.094   4.279 -0.4542 -0.2757  0.1297
  129OSM   H18U13911   2.620   5.219   4.277 -2.0948 -0.3428  0.4585
  129OSM    C1F13912   3.206   4.444   5.787 -0.1944  0.3978  0.1027
  129OSM     OF13913   3.283   4.351   5.802 -0.9752 -0.0653  0.1736
  129OSM    C2F13914   3.261   4.574   5.731 -0.1247 -0.3335 -0.1761
  129OSM    H2F13915   3.335   4.605   5.808 -1.1104 -2.4395  1.7244
  129OSM    H2G13916   3.184   4.651   5.754  1.1599  0.2831  2.5231
  129OSM    C3F13917   3.310   4.581   5.583  0.6061  0.3124  0.4755
  129OSM    H3F13918   3.381   4.501   5.555  1.0490  0.8121  0.1547
  129OSM    H3G13919   3.360   4.679   5.572  1.6527 -0.1609  0.9312
  129OSM    C4F13920   3.193   4.575   5.477  0.4438 -0.1046  0.7450
  129OSM    H4F13921   3.133   4.667   5.490 -0.4690 -0.8018  1.6456
  129OSM    H4G13922   3.121   4.491   5.490  1.9208 -1.8213 -1.3198
  129OSM    C5F13923   3.248   4.564   5.339 -0.5538  0.2077  1.7494
  129OSM    H5F13924   3.307   4.470   5.343 -0.5161  0.0588 -0.5560
  129OSM    H5G13925   3.325   4.643   5.330 -0.1150 -0.4067 -0.9661
  129OSM    C6F13926   3.149   4.571   5.221  0.0814  0.3924 -0.6607
  129OSM    H6F13927   3.103   4.671   5.240  1.3650  1.0810 -1.0451
  129OSM    H6G13928   3.077   4.487   5.227  1.4697 -0.8289 -0.3764
  129OSM    C7F13929   3.212   4.575   5.081 -0.4145  0.1214  0.1137
  129OSM    H7F13930   3.275   4.486   5.061  1.2364  1.1438  0.5254
  129OSM    H7G13931   3.289   4.655   5.077 -0.4718  0.1505 -0.7461
  129OSM    C8F13932   3.115   4.622   4.975 -0.0066  0.6990  0.5649
  129OSM    H8F13933   3.172   4.662   4.889  4.3750  0.6941  3.1416
  129OSM    H8G13934   3.063   4.715   5.006 -1.3586  0.8358 -1.8874
  129OSM    C9F13935   3.009   4.517   4.948 -0.7278 -0.2538  0.1993
  129OSM    H9F13936   2.967   4.467   5.036  0.1360  0.1199  0.8385
  129OSM   C10F13937   2.970   4.468   4.830 -0.1475 -0.4955 -0.2087
  129OSM   H10F13938   2.881   4.404   4.834 -0.5036  0.0008 -0.1533
  129OSM   C11F13939   3.025   4.502   4.691  0.1384 -0.3064 -0.0023
  129OSM   H11F13940   3.105   4.578   4.706 -0.5534  0.3174  0.6111
  129OSM   H11G13941   2.940   4.553   4.641  0.4561  1.3302  1.0511
  129OSM   C12F13942   3.081   4.384   4.614  0.0959  1.1441 -0.0373
  129OSM   H12F13943   3.109   4.421   4.513 -0.1323 -2.1527 -1.4390
  129OSM   H12G13944   3.010   4.303   4.585  0.2956  1.6767 -2.1447
  129OSM   C13F13945   3.211   4.317   4.675  0.9118 -0.0453 -0.8512
  129OSM   H13F13946   3.217   4.222   4.618  3.0069 -0.5549  0.0980
  129OSM   H13G13947   3.202   4.296   4.784  2.6845 -0.1316 -0.6793
  129OSM   C14F13948   3.346   4.382   4.648 -0.7837  0.6068  0.1107
  129OSM   H14F13949   3.424   4.329   4.707  0.7796  1.4095 -1.1584
  129OSM   H14G13950   3.344   4.489   4.675 -1.7420  0.7734 -0.5670
  129OSM   C15F13951   3.397   4.372   4.501  0.3408 -0.2398  0.6823
  129OSM   H15F13952   3.317   4.420   4.441  0.5971  0.5372  0.9438
  129OSM   H15G13953   3.406   4.265   4.472  0.7223  0.0061 -0.1438
  129OSM   C16F13954   3.518   4.451   4.483  0.0589  0.0179 -0.3147
  129OSM   H16F13955   3.587   4.416   4.562 -0.0886 -0.0941 -0.2349
  129OSM   H16G13956   3.494   4.559   4.493 -1.3027 -0.0438 -2.3255
  129OSM   C17F13957   3.606   4.427   4.362  0.1478 -0.8037 -0.5316
  129OSM   H17F13958   3.550   4.445   4.267 -0.2004 -1.1197 -0.3847
  129OSM   H17G13959   3.634   4.320   4.370 -1.1415 -1.1222 -0.0067
  129OSM   C18F13960   3.726   4.519   4.358  0.0060  0.2492 -0.1563
  129OSM   H18F13961   3.717   4.628   4.378  0.4627  0.2926 -0.1948
  129OSM   H18G13962   3.784   4.499   4.266  1.0458 -1.8621  0.8771
  129OSM   H18H13963   3.790   4.490   4.444 -1.7499  0.8387  1.4382
  130OSM      N13964   3.704   4.639   6.664 -0.2313 -0.7232 -0.0776
  130OSM    C1513965   3.648   4.779   6.655 -0.2086  0.8685  0.0967
  130OSM   H15A13966   3.548   4.781   6.697 -0.7269  2.2008 -1.1075
  130OSM   H15B13967   3.626   4.811   6.554 -0.3036 -0.2553 -0.2580
  130OSM   H15C13968   3.715   4.849   6.701  0.8331 -0.2403  0.3068
  130OSM    C1413969   3.757   4.598   6.802 -0.2327 -0.1149  0.4317
  130OSM   H14A13970   3.674   4.604   6.872 -2.5846 -0.7420 -2.1316
  130OSM   H14B13971   3.844   4.656   6.826 -0.4639  0.7374 -0.7303
  130OSM   H14C13972   3.792   4.495   6.802  1.2099  0.3245 -1.7191
  130OSM    C1313973   3.595   4.548   6.631 -0.0884  0.3466  0.2866
  130OSM   H13A13974   3.562   4.577   6.532  0.4192  1.4659  0.4340
  130OSM   H13B13975   3.512   4.537   6.699  1.1943 -1.3284  1.6779
  130OSM   H13C13976   3.636   4.449   6.615  1.2704  1.0832 -1.0268
  130OSM    C1213977   3.806   4.625   6.564 -0.0726  0.0979 -0.2373
  130OSM   H12A13978   3.860   4.535   6.590 -0.2090 -0.0324 -0.4035
  130OSM   H12B13979   3.882   4.700   6.582  2.5716 -2.2194 -0.8805
  130OSM    C1113980   3.770   4.628   6.412 -0.5529 -0.1547  0.8377
  130OSM   H11A13981   3.711   4.539   6.385 -2.4326  1.3846 -0.4143
  130OSM   H11B13982   3.855   4.625   6.340 -1.9787 -2.3173 -0.8691
  130OSM      P13983   3.735   4.879   6.323  0.1472 -0.5114  0.0324
  130OSM    O1313984   3.638   4.979   6.375 -0.0543 -0.0578 -0.1024
  130OSM    O1413985   3.880   4.892   6.360  0.9852  0.0658  0.0290
  130OSM    O1113986   3.732   4.876   6.167 -0.4687  0.5557 -0.1751
  130OSM    O1213987   3.688   4.739   6.375  0.6543  0.0966  0.2968
  130OSM    C1S13988   3.628   4.918   6.081  0.2712  0.2118 -0.0484
  130OSM    H1S13989   3.638   5.027   6.062 -1.2994  0.0839 -1.8461
  130OSM    H1T13990   3.529   4.895   6.125 -0.3739  1.2576 -0.8749
  130OSM     NF13991   3.530   4.902   5.857 -0.3078 -0.0936 -0.3868
  130OSM    HNF13992   3.444   4.853   5.867  0.2992 -0.9312  1.1039
  130OSM    C2S13993   3.644   4.851   5.941  0.2925  0.7172 -0.3423
  130OSM    H2S13994   3.742   4.879   5.897  0.7695  2.3143  1.6015
  130OSM    C3S13995   3.654   4.696   5.941  0.0932 -0.2485  0.3663
  130OSM    H3S13996   3.567   4.650   5.992 -2.2903  1.7998 -1.5812
  130OSM     O313997   3.768   4.650   6.009 -0.4670 -0.2284 -0.2532
  130OSM    HO313998   3.785   4.726   6.065  1.0238 -0.0183 -0.9486
  130OSM    C4S13999   3.659   4.655   5.800 -0.4837 -0.1764  0.0512
  130OSM    H4S14000   3.567   4.606   5.763  1.1716 -1.2099 -3.0494
  130OSM    C5S14001   3.756   4.676   5.707  0.1598  0.1927 -0.4941
  130OSM    H5S14002   3.835   4.748   5.735 -0.7721  0.7857  0.7174
  130OSM    C6S14003   3.743   4.627   5.572 -0.0715 -0.1520  0.2902
  130OSM    H6S14004   3.682   4.534   5.575 -0.9569  0.3981 -0.1824
  130OSM    H6T14005   3.838   4.586   5.534  0.1200 -0.7901  1.4148
  130OSM    C7S14006   3.682   4.725   5.465 -0.3171  0.0557 -0.3030
  130OSM    H7S14007   3.753   4.806   5.437 -3.4066  3.0370 -0.1265
  130OSM    H7T14008   3.589   4.777   5.497 -1.8131 -1.4857 -1.9309
  130OSM    C8S14009   3.656   4.647   5.330  0.6644  0.4018  0.4775
  130OSM    H8S14010   3.575   4.572   5.342  1.1443  0.0085  1.3109
  130OSM    H8T14011   3.750   4.594   5.303 -0.1045 -0.6418 -0.2197
  130OSM    C9S14012   3.630   4.744   5.216 -0.1949  0.7296 -0.0502
  130OSM    H9S14013   3.713   4.817   5.212  0.4788  0.2724  3.0775
  130OSM    H9T14014   3.534   4.799   5.225  0.2208  1.3825  0.5143
  130OSM   C10S14015   3.621   4.674   5.079  0.1381  0.0932  0.3257
  130OSM   H10S14016   3.536   4.603   5.076 -0.9416  1.3366  0.6110
  130OSM   H10T14017   3.712   4.614   5.058  0.4943  0.2634  1.3352
  130OSM   C11S14018   3.607   4.767   4.957 -0.1578 -0.7135  0.8834
  130OSM   H11S14019   3.703   4.822   4.948 -0.0493 -0.8231  1.3267
  130OSM   H11T14020   3.538   4.851   4.983  0.2165 -0.7182  1.9703
  130OSM   C12S14021   3.553   4.698   4.833 -0.1011 -0.1642 -0.4043
  130OSM   H12S14022   3.446   4.680   4.855 -0.8890  1.9289 -2.1277
  130OSM   H12T14023   3.605   4.604   4.805 -0.4468 -0.5047  0.0735
  130OSM   C13S14024   3.570   4.773   4.699  0.0912  0.3362  0.4527
  130OSM   H13S14025   3.525   4.719   4.613 -0.3030  1.8355 -0.3254
  130OSM   H13T14026   3.677   4.781   4.672  0.4157 -3.8027 -0.0507
  130OSM   C14S14027   3.506   4.906   4.701 -0.5729  0.2602  0.2191
  130OSM   H14S14028   3.562   4.970   4.773  0.3362  0.3420 -0.5335
  130OSM   H14T14029   3.401   4.889   4.732 -0.1395  2.2088  3.2217
  130OSM   C15S14030   3.512   4.976   4.568  0.1435  0.0280  0.4507
  130OSM   H15S14031   3.454   5.070   4.578  0.0372  0.0396 -0.2008
  130OSM   H15T14032   3.464   4.921   4.484  1.7337 -1.6718  0.5954
  130OSM   C16S14033   3.655   4.991   4.515  0.1607 -0.1061 -0.5596
  130OSM   H16S14034   3.706   4.898   4.483  1.6117  0.6442 -0.5035
  130OSM   H16T14035   3.713   5.033   4.600  2.5223 -1.7177 -1.2901
  130OSM   C17S14036   3.666   5.084   4.390  0.4750 -0.2003  0.7562
  130OSM   H17S14037   3.601   5.171   4.412  2.2570  1.1293  1.0075
  130OSM   H17T14038   3.632   5.031   4.299  0.1405  0.9840  0.1708
  130OSM   C18S14039   3.806   5.133   4.356  0.8060 -0.0013  0.4356
  130OSM   H18S14040   3.862   5.187   4.435  0.4907  0.6290  0.2377
  130OSM   H18T14041   3.801   5.211   4.277  0.6878  0.6264  1.0526
  130OSM   H18U14042   3.878   5.050   4.339 -1.3444 -1.7688 -0.5604
  130OSM    C1F14043   3.519   5.030   5.814 -0.1907  0.8007 -0.2593
  130OSM     OF14044   3.605   5.111   5.843 -0.6473 -0.2241  0.1190
  130OSM    C2F14045   3.394   5.062   5.738 -0.0644  0.6678  0.5644
  130OSM    H2F14046   3.312   5.014   5.795 -0.2173 -1.3414 -1.2302
  130OSM    H2G14047   3.411   5.021   5.636  2.3934  3.0232 -0.1131
  130OSM    C3F14048   3.367   5.214   5.720 -0.1949  1.0076  0.0006
  130OSM    H3F14049   3.462   5.266   5.693  1.0406 -1.3705 -0.5072
  130OSM    H3G14050   3.335   5.245   5.822 -2.7938 -2.8750  0.5812
  130OSM    C4F14051   3.250   5.244   5.622 -0.1612  0.4203 -0.5000
  130OSM    H4F14052   3.150   5.225   5.666  0.1273 -1.5291 -0.5668
  130OSM    H4G14053   3.268   5.174   5.537 -1.4964 -1.0385  0.3625
  130OSM    C5F14054   3.244   5.385   5.567 -0.1008 -0.1706  0.8174
  130OSM    H5F14055   3.342   5.431   5.543  0.7969 -0.9341  2.8228
  130OSM    H5G14056   3.190   5.449   5.639 -1.3218  2.3182 -2.0913
  130OSM    C6F14057   3.168   5.397   5.431  0.5943  0.2540  1.0471
  130OSM    H6F14058   3.065   5.373   5.464  0.0097  3.1902  1.5733
  130OSM    H6G14059   3.203   5.313   5.368 -0.5512 -0.7254  1.6610
  130OSM    C7F14060   3.149   5.535   5.363  0.7545 -0.3200  0.1559
  130OSM    H7F14061   3.248   5.576   5.336  1.5747 -0.8562  2.2145
  130OSM    H7G14062   3.110   5.616   5.428 -0.0154 -1.1842  0.8034
  130OSM    C8F14063   3.048   5.520   5.246 -0.4392  0.5268 -0.9509
  130OSM    H8F14064   2.947   5.513   5.293 -0.2985 -1.9920 -0.8705
  130OSM    H8G14065   3.064   5.427   5.188 -2.8879  1.7763 -3.8552
  130OSM    C9F14066   3.044   5.641   5.149 -0.2974  0.5300 -0.6133
  130OSM    H9F14067   3.034   5.735   5.204  1.9175 -0.4518  1.6752
  130OSM   C10F14068   3.049   5.648   5.015  0.0063 -0.3452  0.3520
  130OSM   H10F14069   3.091   5.739   4.969 -0.3439  0.4998  1.6439
  130OSM   C11F14070   3.048   5.527   4.916 -0.2761 -0.6646 -0.1803
  130OSM   H11F14071   2.957   5.541   4.853  1.3454  1.3495 -2.2397
  130OSM   H11G14072   3.028   5.430   4.968  1.4739 -2.0777 -2.0035
  130OSM   C12F14073   3.171   5.508   4.833  0.2043 -0.6226 -0.2289
  130OSM   H12F14074   3.253   5.500   4.907 -0.7244  2.0214  1.2040
  130OSM   H12G14075   3.192   5.605   4.783 -0.8663  1.3940  2.9869
  130OSM   C13F14076   3.171   5.401   4.716  0.6514 -0.0484 -0.2009
  130OSM   H13F14077   3.094   5.433   4.643 -0.4905 -0.7073  0.6746
  130OSM   H13G14078   3.136   5.310   4.770 -0.6947  0.1737 -0.6717
  130OSM   C14F14079   3.298   5.387   4.628 -0.5549 -0.0346  0.1808
  130OSM   H14F14080   3.381   5.351   4.692  0.9980 -3.1332 -3.2003
  130OSM   H14G14081   3.325   5.485   4.583 -0.2669 -0.6571 -1.0504
  130OSM   C15F14082   3.279   5.284   4.524  0.9367  0.1658  0.6349
  130OSM   H15F14083   3.237   5.192   4.569 -0.2137  1.2185  1.7863
  130OSM   H15G14084   3.377   5.249   4.486  1.4473 -0.0956  2.1294
  130OSM   C16F14085   3.178   5.333   4.407  0.0210  0.0483 -0.5015
  130OSM   H16F14086   3.221   5.424   4.361  1.4593 -1.3936 -2.1199
  130OSM   H16G14087   3.083   5.359   4.459 -0.2699  0.8433 -1.3922
  130OSM   C17F14088   3.146   5.229   4.295 -0.0192 -0.5037  0.0658
  130OSM   H17F14089   3.068   5.156   4.325  2.6960 -3.7011 -0.1227
  130OSM   H17G14090   3.238   5.171   4.274 -1.4779 -1.6633 -4.1813
  130OSM   C18F14091   3.094   5.298   4.160 -0.3514 -0.0072 -0.1934
  130OSM   H18F14092   3.005   5.357   4.189  0.0337 -0.0620  1.1764
  130OSM   H18G14093   3.057   5.211   4.102 -1.8520  0.6778 -0.3150
  130OSM   H18H14094   3.177   5.353   4.109 -2.1098  2.3098 -0.7480
  131OSM      N14095   3.618   1.554   6.194  0.0722  1.1228 -0.1814
  131OSM    C1514096   3.498   1.474   6.242 -0.0046  0.1976  0.1123
  131OSM   H15A14097   3.457   1.528   6.326  1.2487  0.9854  0.2412
  131OSM   H15B14098   3.529   1.375   6.271 -2.8076  0.1958  4.0053
  131OSM   H15C14099   3.428   1.455   6.162  0.8629  0.9912 -0.8605
  131OSM    C1414100   3.691   1.601   6.315 -0.1009  0.0760  0.2508
  131OSM   H14A14101   3.780   1.657   6.291 -1.1695  1.9508  0.5322
  131OSM   H14B14102   3.728   1.516   6.371 -0.7268  0.2078  0.8741
  131OSM   H14C14103   3.626   1.663   6.375 -1.6007 -2.5680  1.5977
  131OSM    C1314104   3.714   1.467   6.120  0.6582  0.0056 -0.5478
  131OSM   H13A14105   3.772   1.519   6.045 -0.7310  1.3506 -0.7412
  131OSM   H13B14106   3.661   1.384   6.076  2.0192 -1.0923 -0.1836
  131OSM   H13C14107   3.787   1.416   6.182  0.4646  1.1541  0.6824
  131OSM    C1214108   3.578   1.671   6.105 -0.7934  0.0864  0.0459
  131OSM   H12A14109   3.538   1.631   6.013  1.6408 -1.2189 -0.5395
  131OSM   H12B14110   3.676   1.706   6.075  0.2074 -2.1080  0.5974
  131OSM    C1114111   3.471   1.768   6.161 -0.6123  0.6571  0.7466
  131OSM   H11A14112   3.381   1.715   6.199  1.0913 -2.5651  0.6453
  131OSM   H11B14113   3.427   1.830   6.081 -1.3906 -1.0976 -0.2431
  131OSM      P14114   3.640   1.952   6.233  0.3091 -0.1919 -0.1127
  131OSM    O1314115   3.584   2.082   6.270  0.3293 -0.3082  0.1696
  131OSM    O1414116   3.765   1.922   6.307 -0.3931 -0.5263 -0.1946
  131OSM    O1114117   3.669   1.944   6.081 -0.0622  0.4156  0.3248
  131OSM    O1214118   3.525   1.848   6.262  0.1245  0.5277  0.5289
  131OSM    C1S14119   3.774   2.017   6.020 -0.3016  0.2940 -0.1184
  131OSM    H1S14120   3.874   1.972   6.036  0.0195  0.4953 -1.4117
  131OSM    H1T14121   3.794   2.119   6.062  4.6399 -0.7687  0.7161
  131OSM     NF14122   3.872   2.086   5.810  0.0021  0.1365  0.2049
  131OSM    HNF14123   3.849   2.167   5.757  0.2376 -1.9825 -3.4863
  131OSM    C2S14124   3.756   2.018   5.871 -0.3554 -0.2105  0.3908
  131OSM    H2S14125   3.752   1.911   5.840 -1.0045 -0.2306  0.5237
  131OSM    C3S14126   3.621   2.084   5.833  0.4152 -0.1097  0.4816
  131OSM    H3S14127   3.637   2.186   5.873  1.3624 -0.4638  1.0497
  131OSM     O314128   3.511   2.027   5.903  0.4188 -0.0986 -0.8153
  131OSM    HO314129   3.551   1.989   5.982 -2.7298  0.3688  1.2071
  131OSM    C4S14130   3.605   2.101   5.679 -1.2341  0.2484 -0.3139
  131OSM    H4S14131   3.650   2.193   5.639  1.1994 -1.0644 -0.8150
  131OSM    C5S14132   3.551   2.017   5.600  0.5735  0.7746  0.0314
  131OSM    H5S14133   3.500   1.924   5.631  0.9790  0.7641  0.6802
  131OSM    C6S14134   3.541   2.033   5.450  0.5628  0.3816 -0.1613
  131OSM    H6S14135   3.521   2.140   5.428 -0.2283  0.3735  0.4822
  131OSM    H6T14136   3.452   1.977   5.415 -0.6397  0.0432  3.0346
  131OSM    C7S14137   3.674   1.997   5.384 -0.3025 -0.5211 -0.0681
  131OSM    H7S14138   3.692   1.888   5.387 -2.4532 -0.9007  0.8043
  131OSM    H7T14139   3.762   2.054   5.420 -0.6831  0.4770 -0.6544
  131OSM    C8S14140   3.662   2.043   5.233 -0.8798  0.4140  0.1224
  131OSM    H8S14141   3.646   2.152   5.232 -2.1682  0.2363 -0.1781
  131OSM    H8T14142   3.573   2.003   5.181 -0.3504 -0.5134 -0.1094
  131OSM    C9S14143   3.796   1.997   5.164 -0.0557  0.5421 -0.5776
  131OSM    H9S14144   3.801   1.886   5.157  0.1599  0.5475 -0.5083
  131OSM    H9T14145   3.884   2.032   5.221  0.5402 -1.2992 -0.3296
  131OSM   C10S14146   3.801   2.053   5.014 -0.9878  0.9726  0.8091
  131OSM   H10S14147   3.907   2.036   4.985 -0.8425  0.7808  1.4293
  131OSM   H10T14148   3.784   2.163   5.003  2.1607  1.6627  1.7350
  131OSM   C11S14149   3.709   1.980   4.910 -0.8729 -0.3751  0.4473
  131OSM   H11S14150   3.609   1.964   4.956  0.1899 -1.6045  2.4799
  131OSM   H11T14151   3.752   1.881   4.883 -0.7740 -0.3567  0.5364
  131OSM   C12S14152   3.693   2.051   4.773 -0.4269 -0.3765 -0.1869
  131OSM   H12S14153   3.678   2.159   4.797  4.0096  0.1322  1.2307
  131OSM   H12T14154   3.613   2.004   4.713 -0.3810 -0.5937 -0.0779
  131OSM   C13S14155   3.828   2.046   4.694  0.0498  0.1195 -0.8813
  131OSM   H13S14156   3.796   1.968   4.622 -0.3044 -1.8727  1.3372
  131OSM   H13T14157   3.904   1.997   4.759 -0.8422 -2.1347 -1.4487
  131OSM   C14S14158   3.868   2.169   4.630  0.4122 -0.3327  0.3001
  131OSM   H14S14159   3.880   2.262   4.690  1.1866  1.4455 -2.4292
  131OSM   H14T14160   3.797   2.208   4.554  1.5362  1.5839  0.1648
  131OSM   C15S14161   3.983   2.152   4.541 -0.3056  0.6217  0.0023
  131OSM   H15S14162   3.967   2.062   4.477 -0.0913 -0.0076  0.8286
  131OSM   H15T14163   4.074   2.135   4.602 -0.7382 -0.4158  0.3812
  131OSM   C16S14164   4.019   2.281   4.456  0.6515 -0.7176  0.0198
  131OSM   H16S14165   4.122   2.283   4.416  0.4508 -0.8776 -0.5036
  131OSM   H16T14166   4.030   2.361   4.532  1.7837 -1.0113  0.1711
  131OSM   C17S14167   3.909   2.325   4.358 -0.3037 -0.5243  0.1157
  131OSM   H17S14168   3.936   2.426   4.318 -1.3022  0.4328  1.7635
  131OSM   H17T14169   3.814   2.346   4.410  0.1724  1.8448  0.1573
  131OSM   C18S14170   3.889   2.230   4.241 -0.4802  0.1212  0.1930
  131OSM   H18S14171   3.984   2.221   4.184 -1.0056 -1.1410 -0.5190
  131OSM   H18T14172   3.814   2.262   4.166 -0.5559  0.1916  0.2975
  131OSM   H18U14173   3.873   2.128   4.281 -0.6063  0.2099  0.3706
  131OSM    C1F14174   3.999   2.039   5.816  0.4858  0.6464 -0.0156
  131OSM     OF14175   4.008   1.919   5.845 -0.3598 -0.3306 -0.0944
  131OSM    C2F14176   4.128   2.118   5.797  0.8086  0.7864 -0.1321
  131OSM    H2F14177   4.182   2.114   5.895  1.7652 -0.2494 -0.6826
  131OSM    H2G14178   4.105   2.224   5.773 -0.1091  0.9553  1.3271
  131OSM    C3F14179   4.218   2.055   5.688  0.2725 -0.1600 -0.2882
  131OSM    H3F14180   4.277   1.968   5.723 -0.8277 -0.3926  1.0780
  131OSM    H3G14181   4.281   2.143   5.664 -0.7067  1.1522  1.6810
  131OSM    C4F14182   4.146   2.002   5.567  0.4658 -0.0587 -0.4917
  131OSM    H4F14183   4.093   2.088   5.519  0.3431  0.5074  0.6096
  131OSM    H4G14184   4.077   1.919   5.594 -0.2197  0.9024  0.8546
  131OSM    C5F14185   4.247   1.945   5.459 -0.1462  0.2165 -0.2135
  131OSM    H5F14186   4.279   1.842   5.488 -0.9330  0.5581  2.0805
  131OSM    H5G14187   4.335   2.013   5.463  2.2706 -2.7182  2.2356
  131OSM    C6F14188   4.183   1.931   5.322  0.2747 -0.1851  0.5061
  131OSM    H6F14189   4.149   2.029   5.280  2.4251  1.1673  1.7405
  131OSM    H6G14190   4.092   1.868   5.323 -0.3864  0.7416  2.6413
  131OSM    C7F14191   4.293   1.894   5.221  0.4284  0.2689 -0.0099
  131OSM    H7F14192   4.338   1.796   5.250 -0.8820 -0.6867 -1.0466
  131OSM    H7G14193   4.374   1.969   5.213  0.3448  0.3649  0.0457
  131OSM    C8F14194   4.248   1.868   5.068  0.6421 -0.1163 -0.3389
  131OSM    H8F14195   4.156   1.805   5.064  1.9804 -2.0907 -1.4231
  131OSM    H8G14196   4.338   1.810   5.039  0.7235  0.0298 -0.3817
  131OSM    C9F14197   4.245   1.983   4.971 -0.0989  0.5857 -0.3824
  131OSM    H9F14198   4.249   2.079   5.023 -0.4619 -0.1562  1.0693
  131OSM   C10F14199   4.237   1.970   4.836 -0.1759  0.3097 -0.2051
  131OSM   H10F14200   4.245   2.061   4.775 -0.6550 -0.1542 -0.9841
  131OSM   C11F14201   4.239   1.840   4.756  0.1665 -0.3991  0.2126
  131OSM   H11F14202   4.158   1.829   4.681  1.5464 -0.6295 -1.2797
  131OSM   H11G14203   4.226   1.755   4.826 -0.2946  0.4901  1.2489
  131OSM   C12F14204   4.364   1.817   4.664  0.0260  0.1689  0.2908
  131OSM   H12F14205   4.457   1.801   4.722  0.7840 -0.8044 -1.1280
  131OSM   H12G14206   4.386   1.910   4.608  0.8954 -0.2870 -0.1453
  131OSM   C13F14207   4.340   1.696   4.571 -0.0387  0.1194 -0.3862
  131OSM   H13F14208   4.231   1.695   4.547 -0.3471  3.0697  0.5066
  131OSM   H13G14209   4.356   1.606   4.634  1.5792 -0.8574 -2.1001
  131OSM   C14F14210   4.415   1.692   4.438 -0.4751  0.5583  0.0702
  131OSM   H14F14211   4.385   1.776   4.372  0.7686 -1.7016 -3.6932
  131OSM   H14G14212   4.395   1.594   4.390 -0.2333  0.7652 -0.4696
  131OSM   C15F14213   4.575   1.707   4.471 -0.0339  0.1032 -0.3270
  131OSM   H15F14214   4.607   1.614   4.523  1.8700  2.0695  2.2909
  131OSM   H15G14215   4.582   1.782   4.553 -0.8551 -0.6601  0.4735
  131OSM   C16F14216   4.658   1.712   4.350  0.2736  0.5301 -0.8391
  131OSM   H16F14217   4.629   1.655   4.260 -1.4321  2.2217 -1.4259
  131OSM   H16G14218   4.759   1.667   4.362  0.7863  0.1165 -5.1749
  131OSM   C17F14219   4.670   1.859   4.303  0.2495  0.2566 -0.0391
  131OSM   H17F14220   4.707   1.911   4.394  1.9292  1.8151 -1.5341
  131OSM   H17G14221   4.569   1.892   4.271 -1.0725  0.9694  4.1405
  131OSM   C18F14222   4.768   1.876   4.186  0.1914 -0.5046  0.1656
  131OSM   H18F14223   4.785   1.986   4.191 -1.8491 -0.1371 -0.1269
  131OSM   H18G14224   4.732   1.838   4.088 -0.0862 -0.4694  0.2529
  131OSM   H18H14225   4.869   1.840   4.213  1.1248  1.2089 -0.8377
  132OSM      N14226   4.767   5.322   5.882 -0.6644  0.4430 -0.6713
  132OSM    C1514227   4.643   5.315   5.799 -0.1553  0.3537  0.0208
  132OSM   H15A14228   4.590   5.221   5.804 -1.5672  0.7027 -4.0635
  132OSM   H15B14229   4.674   5.313   5.695  2.6116 -0.4389  0.7821
  132OSM   H15C14230   4.581   5.399   5.827  0.3905  0.4867  0.8654
  132OSM    C1414231   4.833   5.465   5.876  0.0662 -0.5682  0.2663
  132OSM   H14A14232   4.931   5.468   5.922  0.1430 -2.4670  0.2948
  132OSM   H14B14233   4.773   5.546   5.916  1.8649  0.4443  1.0745
  132OSM   H14C14234   4.851   5.491   5.773  2.3596 -0.3093  0.6709
  132OSM    C1314235   4.738   5.304   6.027  0.3241  0.4549 -0.1266
  132OSM   H13A14236   4.679   5.384   6.069  2.1655  2.0732 -0.4385
  132OSM   H13B14237   4.831   5.291   6.081  0.3335 -0.9377 -0.4393
  132OSM   H13C14238   4.691   5.210   6.050  0.3656  0.8565  1.7265
  132OSM    C1214239   4.867   5.223   5.838 -0.2050  0.7783 -0.3838
  132OSM   H12A14240   4.844   5.128   5.883  1.1479  0.5899 -0.0285
  132OSM   H12B14241   4.964   5.243   5.881 -1.1159  1.8783  1.2546
  132OSM    C1114242   4.908   5.210   5.691  0.1281 -0.0674  0.7551
  132OSM   H11A14243   4.816   5.207   5.629  2.0005 -0.6473 -2.2088
  132OSM   H11B14244   4.954   5.111   5.675  1.5950  0.5221  1.2018
  132OSM      P14245   5.150   5.315   5.702  0.1720 -0.0426 -0.2311
  132OSM    O1314246   5.227   5.425   5.640 -0.2256  0.6985 -0.2900
  132OSM    O1414247   5.148   5.336   5.852 -0.0853  0.3364  0.5418
  132OSM    O1114248   5.205   5.170   5.663  0.3192  0.1674  0.1082
  132OSM    O1214249   4.996   5.314   5.656  0.1434 -0.6582 -0.2194
  132OSM    C1S14250   5.241   5.126   5.532  0.1533  0.1551  0.2917
  132OSM    H1S14251   5.193   5.185   5.451  1.1109  0.5646  0.0137
  132OSM    H1T14252   5.209   5.021   5.514  0.3440 -0.1107  1.4234
  132OSM     NF14253   5.430   5.104   5.385  0.1198 -0.7912  0.4246
  132OSM    HNF14254   5.468   5.013   5.369  0.5240 -0.4654 -0.5591
  132OSM    C2S14255   5.389   5.131   5.519  0.0750  0.4509  0.1375
  132OSM    H2S14256   5.420   5.236   5.533  0.5741  0.2711  0.4238
  132OSM    C3S14257   5.462   5.038   5.619  0.5611  0.1484 -0.2234
  132OSM    H3S14258   5.426   4.936   5.596  0.0880  0.3493 -0.3767
  132OSM     O314259   5.437   5.063   5.761 -0.2489 -0.1104 -0.1554
  132OSM    HO314260   5.358   5.119   5.762  1.2215  2.0977  1.5671
  132OSM    C4S14261   5.605   5.050   5.592 -0.0687  1.1329  0.5417
  132OSM    H4S14262   5.629   5.154   5.563 -2.0093  1.8421  1.3457
  132OSM    C5S14263   5.699   4.954   5.576  0.0875  1.0666  0.2714
  132OSM    H5S14264   5.658   4.855   5.602 -3.8235  2.0975 -1.4230
  132OSM    C6S14265   5.842   4.971   5.536 -0.1995 -0.2132 -0.1541
  132OSM    H6S14266   5.876   4.868   5.513 -1.4146 -0.6159 -0.1998
  132OSM    H6T14267   5.912   5.011   5.613  0.7276 -0.7385 -0.7026
  132OSM    C7S14268   5.838   5.046   5.403 -0.1347  0.7202  0.6942
  132OSM    H7S14269   5.802   5.151   5.401 -0.0402  0.7451 -0.0565
  132OSM    H7T14270   5.765   4.989   5.342  1.8940 -0.1038 -1.0934
  132OSM    C8S14271   5.971   5.062   5.321  0.2040 -0.3736 -0.5739
  132OSM    H8S14272   6.025   4.965   5.325  1.5581  0.3044 -1.5621
  132OSM    H8T14273   6.036   5.133   5.377 -0.5453 -0.4738  0.4412
  132OSM    C9S14274   5.949   5.120   5.180  0.1356 -0.2667  0.0876
  132OSM    H9S14275   5.875   5.202   5.179 -0.1295 -0.5005  0.3521
  132OSM    H9T14276   5.924   5.041   5.107  1.0142 -0.0126 -0.5136
  132OSM   C10S14277   6.072   5.196   5.125  0.6432 -0.3483 -0.5286
  132OSM   H10S14278   6.157   5.125   5.125 -0.6441 -1.9945 -2.1045
  132OSM   H10T14279   6.101   5.271   5.202 -0.8510 -0.3716  0.0850
  132OSM   C11S14280   6.059   5.265   4.992 -0.1510  0.0617 -0.9433
  132OSM   H11S14281   6.163   5.295   4.967  0.1478  0.6353  0.8412
  132OSM   H11T14282   5.985   5.347   4.993  1.7307  1.8594  0.4876
  132OSM   C12S14283   6.019   5.176   4.878 -0.1943  0.8484 -0.1708
  132OSM   H12S14284   5.919   5.132   4.902  0.3568  0.0774  0.7981
  132OSM   H12T14285   6.097   5.097   4.879 -0.5349  0.4510  3.0681
  132OSM   C13S14286   6.023   5.233   4.734  0.4818 -0.3625  0.3836
  132OSM   H13S14287   6.129   5.258   4.716 -0.2367  1.1207 -2.2039
  132OSM   H13T14288   5.956   5.321   4.732 -0.6371 -1.2002 -0.0969
  132OSM   C14S14289   5.973   5.138   4.626 -0.2146  0.2714  0.5600
  132OSM   H14S14290   5.865   5.116   4.641 -0.5740  1.5886  0.0868
  132OSM   H14T14291   6.041   5.050   4.624 -2.4661 -1.5896  1.1546
  132OSM   C15S14292   5.980   5.216   4.490 -0.1548 -0.5523  0.6951
  132OSM   H15S14293   6.078   5.268   4.485  0.1146 -1.1866 -1.5193
  132OSM   H15T14294   5.902   5.295   4.490  0.7371  0.3592  1.7548
  132OSM   C16S14295   5.974   5.129   4.366 -0.0325 -0.4509 -0.7873
  132OSM   H16S14296   6.045   5.046   4.386  1.7655  1.2279  0.1749
  132OSM   H16T14297   6.020   5.182   4.279  1.7798 -1.1724 -0.3217
  132OSM   C17S14298   5.844   5.065   4.348  0.1545  0.1780  0.3706
  132OSM   H17S14299   5.758   5.113   4.400 -0.1535 -0.3083  0.3173
  132OSM   H17T14300   5.856   4.967   4.400  0.0723  0.6271  1.2457
  132OSM   C18S14301   5.796   5.036   4.210  0.7457  0.3894 -0.0040
  132OSM   H18S14302   5.709   4.967   4.213  0.6649  0.5233  1.5903
  132OSM   H18T14303   5.878   4.982   4.157 -0.2258 -1.5883  0.3884
  132OSM   H18U14304   5.763   5.124   4.150 -0.3631 -0.8912 -1.3581
  132OSM    C1F14305   5.429   5.191   5.285 -0.3372 -0.3636 -0.0141
  132OSM     OF14306   5.351   5.288   5.299  0.1469 -0.0971 -0.2928
  132OSM    C2F14307   5.516   5.159   5.163  0.1819  0.3449 -0.2208
  132OSM    H2F14308   5.452   5.114   5.084  0.6574  1.2668 -1.1680
  132OSM    H2G14309   5.600   5.093   5.192  1.3694  0.6864 -2.6349
  132OSM    C3F14310   5.588   5.285   5.112 -0.2187 -1.0872  0.0644
  132OSM    H3F14311   5.658   5.320   5.190 -3.5872  1.3934  2.2543
  132OSM    H3G14312   5.512   5.362   5.087  0.5538 -0.2235  0.3040
  132OSM    C4F14313   5.656   5.257   4.983 -0.1295  0.3969 -0.1089
  132OSM    H4F14314   5.737   5.182   4.992 -1.0462 -0.7664 -1.1396
  132OSM    H4G14315   5.705   5.353   4.958 -1.5433  0.8097 -1.4786
  132OSM    C5F14316   5.563   5.224   4.866  0.8592 -0.1345  0.0946
  132OSM    H5F14317   5.465   5.269   4.893  0.9824  2.4269 -3.0071
  132OSM    H5G14318   5.552   5.115   4.850  0.7849  0.0922 -1.6430
  132OSM    C6F14319   5.601   5.296   4.740 -0.3517  0.0289  0.1677
  132OSM    H6F14320   5.697   5.261   4.697 -0.5965 -0.4045 -0.0386
  132OSM    H6G14321   5.596   5.401   4.776 -1.5647 -0.8490  2.7914
  132OSM    C7F14322   5.486   5.286   4.629 -0.2133  0.8093 -0.3774
  132OSM    H7F14323   5.399   5.345   4.663  0.7599  1.2234  1.5174
  132OSM    H7G14324   5.455   5.179   4.631  0.0514  0.6822 -1.9822
  132OSM    C8F14325   5.533   5.336   4.490  0.3799  0.7192 -0.5601
  132OSM    H8F14326   5.589   5.257   4.435 -0.6144  1.7928 -3.3135
  132OSM    H8G14327   5.603   5.421   4.502  2.8950 -1.1433 -1.2259
  132OSM    C9F14328   5.422   5.390   4.399 -0.9277 -0.1249  0.3673
  132OSM    H9F14329   5.334   5.324   4.391 -1.9045  1.1569  0.2036
  132OSM   C10F14330   5.423   5.507   4.328 -0.0736  0.2693 -0.2252
  132OSM   H10F14331   5.335   5.517   4.263  0.2871  0.1343 -0.7434
  132OSM   C11F14332   5.526   5.615   4.307 -0.6223 -0.6258 -0.6456
  132OSM   H11F14333   5.585   5.632   4.399  1.9571 -0.8441 -2.1530
  132OSM   H11G14334   5.480   5.708   4.269  1.4411  0.2505 -1.1477
  132OSM   C12F14335   5.630   5.561   4.207 -0.1210 -0.2204 -0.0676
  132OSM   H12F14336   5.585   5.510   4.120  1.1218  0.1888 -0.9900
  132OSM   H12G14337   5.691   5.480   4.252 -0.7731 -1.2826 -1.0326
  132OSM   C13F14338   5.730   5.664   4.138  0.6934  0.2712  0.3315
  132OSM   H13F14339   5.683   5.681   4.038 -2.9380 -2.6847  1.2863
  132OSM   H13G14340   5.827   5.614   4.121 -0.5835 -2.0588 -0.6403
  132OSM   C14F14341   5.756   5.782   4.224 -0.3304 -0.3508  0.3232
  132OSM   H14F14342   5.793   5.748   4.323 -1.5987 -1.1848  0.5310
  132OSM   H14G14343   5.667   5.843   4.247 -0.9551 -2.1072  2.9913
  132OSM   C15F14344   5.862   5.881   4.168  0.1451  0.6004  0.6576
  132OSM   H15F14345   5.829   5.905   4.065 -0.1411 -1.1093  0.3182
  132OSM   H15G14346   5.961   5.833   4.156  0.2884  0.4275  2.2678
  132OSM   C16F14347   5.883   6.008   4.252  0.9179 -0.0007 -0.1424
  132OSM   H16F14348   5.785   6.052   4.280  0.9018 -0.2442  0.1922
  132OSM   H16G14349   5.932   6.089   4.195  0.6077  0.3004  0.0180
  132OSM   C17F14350   5.964   5.985   4.378  0.7286  0.1347 -0.3073
  132OSM   H17F14351   5.918   5.902   4.437  1.5763 -1.0124 -1.2092
  132OSM   H17G14352   5.967   6.079   4.438  1.0794 -0.5401  0.7773
  132OSM   C18F14353   6.110   5.944   4.365 -0.3364 -0.2801  0.3528
  132OSM   H18F14354   6.119   5.839   4.332 -1.3361 -0.0749 -0.6685
  132OSM   H18G14355   6.167   5.948   4.460  0.4211 -1.8082 -0.0091
  132OSM   H18H14356   6.157   6.008   4.287  0.4795 -0.9010  0.3253
  133OSM      N14357   1.843   5.606   5.872  0.0248  0.1563  0.0965
  133OSM    C1514358   1.812   5.470   5.829 -0.4217  0.0063 -0.3942
  133OSM   H15A14359   1.799   5.416   5.922 -2.5608 -0.3460 -0.8670
  133OSM   H15B14360   1.894   5.431   5.771 -0.4842 -0.3046 -0.2782
  133OSM   H15C14361   1.717   5.450   5.784 -0.4568 -0.5300 -0.0998
  133OSM    C1414362   1.852   5.690   5.748  0.3391  0.3717  0.6393
  133OSM   H14A14363   1.887   5.790   5.767 -0.8823  0.9031  0.1371
  133OSM   H14B14364   1.753   5.696   5.705 -0.4503 -3.3028  1.5741
  133OSM   H14C14365   1.916   5.657   5.667 -1.8921  0.2711 -1.1805
  133OSM    C1314366   1.743   5.664   5.965 -0.0475 -0.8080  0.2609
  133OSM   H13A14367   1.752   5.769   5.990 -2.0833 -0.1924 -1.3344
  133OSM   H13B14368   1.748   5.607   6.057  2.8955  0.0456  0.7398
  133OSM   H13C14369   1.645   5.649   5.923 -0.1845 -0.3908  0.4264
  133OSM    C1214370   1.972   5.609   5.943 -1.0349 -0.2869  0.6640
  133OSM   H12A14371   1.983   5.716   5.955 -2.1103 -0.0789 -0.0705
  133OSM   H12B14372   2.053   5.591   5.874 -1.4933  3.1773 -1.0199
  133OSM    C1114373   1.986   5.544   6.076  1.1062 -0.7615  0.3200
  133OSM   H11A14374   1.905   5.586   6.140 -0.3215 -1.3226 -1.0487
  133OSM   H11B14375   2.081   5.566   6.128 -0.6153  2.1634  2.5444
  133OSM      P14376   2.066   5.297   6.009  0.0124 -0.0480 -0.1402
  133OSM    O1314377   2.175   5.281   6.111  0.8088 -0.0859  0.2666
  133OSM    O1414378   1.996   5.174   5.979 -0.2608  0.2099  0.1204
  133OSM    O1114379   2.120   5.354   5.870  0.2536 -0.2264  0.5324
  133OSM    O1214380   1.960   5.403   6.062  0.2760  0.2454 -0.2069
  133OSM    C1S14381   2.213   5.272   5.792  0.5911  0.0546 -1.2083
  133OSM    H1S14382   2.203   5.166   5.822  2.5309 -0.3127 -1.7618
  133OSM    H1T14383   2.317   5.306   5.812 -0.3421  3.4490 -1.4180
  133OSM     NF14384   2.276   5.185   5.575  0.8623 -0.3559  0.1731
  133OSM    HNF14385   2.367   5.225   5.564  1.2329 -0.8119  1.4028
  133OSM    C2S14386   2.184   5.275   5.644  0.1092  0.0782  0.1668
  133OSM    H2S14387   2.082   5.233   5.632 -0.3703  1.3437 -0.2635
  133OSM    C3S14388   2.185   5.417   5.587 -0.0251 -0.4058  0.5283
  133OSM    H3S14389   2.287   5.459   5.600 -0.4929  1.4883 -1.3197
  133OSM     O314390   2.110   5.511   5.653  0.3918  0.4663 -0.0685
  133OSM    HO314391   2.082   5.466   5.733  0.9227  0.2792  0.0172
  133OSM    C4S14392   2.149   5.424   5.442 -0.5121  0.6346 -0.0880
  133OSM    H4S14393   2.042   5.403   5.424 -0.6081 -1.3287  2.2240
  133OSM    C5S14394   2.228   5.462   5.344 -0.2391  0.0351 -0.2109
  133OSM    H5S14395   2.328   5.499   5.371 -0.2378 -0.7547  0.9352
  133OSM    C6S14396   2.183   5.476   5.203 -0.1436 -0.1916 -0.2867
  133OSM    H6S14397   2.080   5.442   5.182 -0.1054  0.1028 -0.9730
  133OSM    H6T14398   2.260   5.428   5.140  0.6518 -0.8803  1.1483
  133OSM    C7S14399   2.175   5.631   5.175  0.1857  0.3332  0.5317
  133OSM    H7S14400   2.272   5.678   5.203  0.9933 -0.0510 -1.4349
  133OSM    H7T14401   2.095   5.685   5.229 -3.5795 -0.9302 -3.2779
  133OSM    C8S14402   2.128   5.656   5.028 -0.0279 -0.0881 -0.5699
  133OSM    H8S14403   2.031   5.603   5.028  1.4183 -2.9719  1.3688
  133OSM    H8T14404   2.194   5.608   4.953  1.8249  1.6578 -0.1448
  133OSM    C9S14405   2.105   5.799   4.982 -0.4169  0.0762  0.2441
  133OSM    H9S14406   2.197   5.861   4.981 -1.1338  1.1735 -0.4663
  133OSM    H9T14407   2.039   5.845   5.058  2.3224  0.9199  2.2567
  133OSM   C10S14408   2.041   5.810   4.841  0.2714  0.4400 -0.8017
  133OSM   H10S14409   2.002   5.913   4.832 -0.1704  0.1102 -3.0408
  133OSM   H10T14410   1.956   5.739   4.838  1.2285 -0.8700  0.9477
  133OSM   C11S14411   2.137   5.768   4.728 -0.4093  0.3754 -0.2007
  133OSM   H11S14412   2.099   5.750   4.625  1.4123 -1.7019 -0.5684
  133OSM   H11T14413   2.181   5.673   4.766  0.8495  1.1209  0.2616
  133OSM   C12S14414   2.262   5.855   4.712  1.1279  0.8525 -0.7823
  133OSM   H12S14415   2.302   5.873   4.815  0.2549 -1.0393 -0.0709
  133OSM   H12T14416   2.234   5.958   4.680 -1.2638  0.3447 -0.4802
  133OSM   C13S14417   2.372   5.782   4.631  0.4391  0.5683  0.0483
  133OSM   H13S14418   2.318   5.759   4.536 -1.9911 -2.5039  2.0058
  133OSM   H13T14419   2.409   5.692   4.684  3.5352  2.5268  1.4895
  133OSM   C14S14420   2.503   5.857   4.609 -0.2806 -0.0138  0.4773
  133OSM   H14S14421   2.544   5.906   4.700 -1.8922  1.5342  0.4449
  133OSM   H14T14422   2.486   5.937   4.534 -0.4607 -1.4998 -1.1365
  133OSM   C15S14423   2.609   5.774   4.540 -0.5158  0.0264  0.5391
  133OSM   H15S14424   2.703   5.832   4.531  0.2000 -1.3599 -2.2697
  133OSM   H15T14425   2.585   5.762   4.432  1.1089 -2.8785  0.3875
  133OSM   C16S14426   2.640   5.641   4.610  0.3497  0.8603  0.5315
  133OSM   H16S14427   2.563   5.568   4.577  2.1051 -0.0768 -1.7201
  133OSM   H16T14428   2.631   5.651   4.720  0.3209 -0.6714  0.6829
  133OSM   C17S14429   2.766   5.568   4.559 -0.5510 -0.3885 -0.0762
  133OSM   H17S14430   2.763   5.460   4.587  0.0800 -0.3204  0.2911
  133OSM   H17T14431   2.852   5.622   4.603 -0.1455 -0.5926 -0.5952
  133OSM   C18S14432   2.788   5.563   4.403  0.0485 -0.2886 -0.2676
  133OSM   H18S14433   2.758   5.654   4.346  2.7541  0.8117 -0.1184
  133OSM   H18T14434   2.730   5.479   4.361 -0.2287  0.6428 -1.8438
  133OSM   H18U14435   2.896   5.550   4.378  0.2338 -1.7152  1.1571
  133OSM    C1F14436   2.262   5.053   5.585 -0.7050 -0.0063  0.7905
  133OSM     OF14437   2.169   5.008   5.660 -0.1739 -0.2184  0.3834
  133OSM    C2F14438   2.345   4.961   5.497  0.5015 -0.0908  0.1261
  133OSM    H2F14439   2.285   4.867   5.490  2.0097 -1.0981  0.0913
  133OSM    H2G14440   2.435   4.929   5.555 -0.9805 -2.3333  1.3523
  133OSM    C3F14441   2.390   5.010   5.357  0.1720  0.4169 -0.1679
  133OSM    H3F14442   2.465   4.936   5.322 -0.8403 -1.4480  1.4377
  133OSM    H3G14443   2.443   5.107   5.370 -1.3740  1.2959 -0.1255
  133OSM    C4F14444   2.285   5.015   5.249 -0.3319  0.2022 -0.2789
  133OSM    H4F14445   2.213   5.094   5.278  0.5067  1.1908 -0.8494
  133OSM    H4G14446   2.239   4.913   5.249 -0.3506  0.2056 -1.4057
  133OSM    C5F14447   2.351   5.035   5.120  0.0646  0.5083 -0.2303
  133OSM    H5F14448   2.384   4.942   5.069  1.1396  0.5305  0.3888
  133OSM    H5G14449   2.446   5.093   5.130  1.0357 -0.7828 -1.5285
  133OSM    C6F14450   2.269   5.107   5.016 -1.1954  0.3192 -0.3736
  133OSM    H6F14451   2.267   5.212   5.050  3.2990  0.0298  1.3709
  133OSM    H6G14452   2.168   5.061   5.017 -1.5326  1.0648  0.1926
  133OSM    C7F14453   2.325   5.079   4.874 -0.0981  0.3714  0.1667
  133OSM    H7F14454   2.336   4.970   4.854  3.3554  0.5198  0.7378
  133OSM    H7G14455   2.420   5.132   4.854 -0.4772  1.5391  1.3092
  133OSM    C8F14456   2.231   5.136   4.764  0.1921 -0.2353  0.1425
  133OSM    H8F14457   2.138   5.077   4.776 -1.4349  1.9527 -1.0928
  133OSM    H8G14458   2.270   5.118   4.662 -1.9358  1.4920 -1.0355
  133OSM    C9F14459   2.179   5.277   4.788 -0.4752 -0.0266  0.5632
  133OSM    H9F14460   2.105   5.289   4.868  1.0522 -0.8458  2.1716
  133OSM   C10F14461   2.207   5.387   4.720  0.6227  0.0544  0.3984
  133OSM   H10F14462   2.150   5.481   4.733 -0.0497 -0.3669  0.5443
  133OSM   C11F14463   2.298   5.396   4.609 -0.8898  0.3940  0.7447
  133OSM   H11F14464   2.353   5.302   4.586 -0.3976  1.1669 -1.5172
  133OSM   H11G14465   2.370   5.480   4.621 -0.0347 -0.3636  0.9708
  133OSM   C12F14466   2.234   5.437   4.475 -0.1907  0.0405 -0.2329
  133OSM   H12F14467   2.173   5.529   4.491  2.7097  1.8157  1.5490
  133OSM   H12G14468   2.167   5.358   4.434  1.9859 -1.0998 -1.8089
  133OSM   C13F14469   2.340   5.466   4.364 -0.0882 -0.0620 -1.1315
  133OSM   H13F14470   2.382   5.366   4.339  1.6077  0.1824  0.5135
  133OSM   H13G14471   2.417   5.538   4.399 -1.6653  1.0196  0.2852
  133OSM   C14F14472   2.276   5.519   4.229 -0.5636  0.2808 -0.3578
  133OSM   H14F14473   2.189   5.587   4.242 -1.6767 -1.0779 -0.5065
  133OSM   H14G14474   2.234   5.431   4.176 -0.1048 -0.4826  0.5070
  133OSM   C15F14475   2.382   5.592   4.139 -0.1973  0.1195  0.4415
  133OSM   H15F14476   2.477   5.573   4.194  0.1108  0.1799 -0.0536
  133OSM   H15G14477   2.371   5.701   4.118  1.6191  0.6398  1.9283
  133OSM   C16F14478   2.391   5.525   3.999  0.4104 -0.2038  0.2599
  133OSM   H16F14479   2.295   5.535   3.943  0.0491 -0.7459  0.7772
  133OSM   H16G14480   2.407   5.419   4.027  1.0383  0.2205  1.5622
  133OSM   C17F14481   2.513   5.567   3.908  0.2040 -0.3015  0.5449
  133OSM   H17F14482   2.504   5.675   3.884  2.9382  0.3858  2.1988
  133OSM   H17G14483   2.490   5.512   3.814 -0.2335  0.5881  0.1229
  133OSM   C18F14484   2.647   5.537   3.956 -1.1875  0.3595 -0.4016
  133OSM   H18F14485   2.642   5.437   4.004 -0.7536  0.9003  0.8240
  133OSM   H18G14486   2.678   5.600   4.043 -1.4782  0.1575 -0.1475
  133OSM   H18H14487   2.714   5.542   3.868 -2.3630 -2.6650 -1.5801
  134OSM      N14488   1.403   2.467   6.278 -0.5536 -0.1642 -0.5461
  134OSM    C1514489   1.525   2.432   6.370  0.4326  0.0850  0.1345
  134OSM   H15A14490   1.523   2.327   6.397  1.4879 -0.8858 -3.0626
  134OSM   H15B14491   1.515   2.494   6.458 -0.1795 -0.6115  0.5673
  134OSM   H15C14492   1.619   2.458   6.322 -2.1396  2.1662 -4.4048
  134OSM    C1414493   1.402   2.370   6.168  0.6355 -0.4453  0.3132
  134OSM   H14A14494   1.332   2.399   6.091 -0.4757  0.1496  1.5182
  134OSM   H14B14495   1.404   2.266   6.196  1.5506 -0.0584  1.8148
  134OSM   H14C14496   1.494   2.374   6.112 -0.3200 -3.2773 -1.6512
  134OSM    C1314497   1.275   2.453   6.356 -0.2343 -0.3595  0.0040
  134OSM   H13A14498   1.274   2.357   6.404  0.2818 -0.2927  0.1576
  134OSM   H13B14499   1.187   2.467   6.295 -0.7741  0.5448  0.9565
  134OSM   H13C14500   1.263   2.526   6.435  1.8438  1.3800 -1.1623
  134OSM    C1214501   1.415   2.610   6.231 -0.3772  0.2704  0.6273
  134OSM   H12A14502   1.517   2.618   6.196 -0.3683 -1.0002  0.3473
  134OSM   H12B14503   1.420   2.673   6.319  0.5704 -0.3414  1.0288
  134OSM    C1114504   1.314   2.657   6.116 -0.2090  0.0406  0.3143
  134OSM   H11A14505   1.306   2.768   6.113  0.0009  0.1819  2.6781
  134OSM   H11B14506   1.210   2.640   6.150 -0.3231 -0.8023 -0.4375
  134OSM      P14507   1.474   2.597   5.921  0.1331  0.1907  0.2927
  134OSM    O1314508   1.566   2.696   5.988  0.4984  0.6499  0.2671
  134OSM    O1414509   1.522   2.460   5.905  0.0001 -0.1061  0.3832
  134OSM    O1114510   1.428   2.648   5.780  0.3056 -0.3347  0.1734
  134OSM    O1214511   1.336   2.588   5.994 -0.1571  0.0021  0.6396
  134OSM    C1S14512   1.298   2.635   5.721  0.5721 -0.2313 -0.7712
  134OSM    H1S14513   1.247   2.541   5.753  0.7469  0.0726  0.4300
  134OSM    H1T14514   1.298   2.632   5.610 -2.2024  1.5420 -0.9124
  134OSM     NF14515   1.089   2.747   5.657 -0.0323  0.0226 -0.2468
  134OSM    HNF14516   1.069   2.831   5.606  0.1114 -0.2915 -0.8296
  134OSM    C2S14517   1.202   2.756   5.748 -0.6991 -1.4430  0.2566
  134OSM    H2S14518   1.170   2.750   5.854  1.9384 -0.7562  1.1571
  134OSM    C3S14519   1.279   2.890   5.730 -0.8049  0.8428  0.0000
  134OSM    H3S14520   1.375   2.896   5.786  1.2217  3.4879 -3.3796
  134OSM     O314521   1.216   3.008   5.775  0.6248  0.1030 -0.2641
  134OSM    HO314522   1.139   2.983   5.826 -0.1303  1.6999 -0.5699
  134OSM    C4S14523   1.308   2.914   5.582 -0.0156 -1.1714 -0.6294
  134OSM    H4S14524   1.216   2.907   5.522 -0.4165 -1.6027  0.0301
  134OSM    C5S14525   1.424   2.932   5.522 -0.5309 -0.8613  0.3714
  134OSM    H5S14526   1.523   2.923   5.569  0.4172 -0.3740 -1.4481
  134OSM    C6S14527   1.428   2.948   5.370  0.5604 -0.6603  0.4665
  134OSM    H6S14528   1.468   3.042   5.327  0.2224 -0.9669 -0.5493
  134OSM    H6T14529   1.326   2.936   5.326  0.9329 -1.6262 -0.1493
  134OSM    C7S14530   1.527   2.845   5.317 -0.2330  0.5184 -0.4326
  134OSM    H7S14531   1.483   2.746   5.343 -0.0832  0.2850 -1.0430
  134OSM    H7T14532   1.633   2.850   5.351 -0.5174 -0.3431  0.6433
  134OSM    C8S14533   1.527   2.832   5.161  0.0364  0.3338  0.6114
  134OSM    H8S14534   1.429   2.862   5.118  1.2928  1.7649 -1.4387
  134OSM    H8T14535   1.542   2.726   5.134 -2.1816  0.3723 -1.0260
  134OSM    C9S14536   1.641   2.910   5.092 -0.6650 -0.5712 -0.1614
  134OSM    H9S14537   1.735   2.903   5.150 -0.2629 -0.5729 -0.8012
  134OSM    H9T14538   1.632   3.020   5.099  0.6756 -0.4707  0.1386
  134OSM   C10S14539   1.651   2.877   4.944  0.1268  0.0522  0.5781
  134OSM   H10S14540   1.705   2.957   4.889  1.3057  0.9162  2.8558
  134OSM   H10T14541   1.548   2.894   4.908  1.0156  2.1237 -1.1947
  134OSM   C11S14542   1.701   2.734   4.916  0.2300  0.9279  0.5721
  134OSM   H11S14543   1.651   2.655   4.975  1.0324  0.2917  0.4162
  134OSM   H11T14544   1.809   2.730   4.942  0.4345  0.6029 -0.3076
  134OSM   C12S14545   1.690   2.689   4.767 -0.0918 -0.2360 -0.8752
  134OSM   H12S14546   1.738   2.755   4.692  1.2784 -1.8349 -1.4667
  134OSM   H12T14547   1.580   2.676   4.757 -0.1792  0.1413 -0.4315
  134OSM   C13S14548   1.747   2.544   4.747  0.4868 -0.5136 -0.3259
  134OSM   H13S14549   1.683   2.477   4.807 -2.0912  1.3128 -0.8558
  134OSM   H13T14550   1.852   2.540   4.783  1.2193  1.0616 -2.0969
  134OSM   C14S14551   1.756   2.517   4.603  0.6866 -0.0302  0.0821
  134OSM   H14S14552   1.660   2.536   4.552  0.9780  1.4242  0.0510
  134OSM   H14T14553   1.775   2.407   4.597 -0.4069 -0.2591  0.5754
  134OSM   C15S14554   1.878   2.584   4.534 -0.3465  0.2090 -0.2981
  134OSM   H15S14555   1.971   2.580   4.595 -1.8583  1.7531  2.3557
  134OSM   H15T14556   1.857   2.693   4.528  1.6618  0.5742 -1.6157
  134OSM   C16S14557   1.878   2.530   4.390 -0.8399  0.2565 -0.6439
  134OSM   H16S14558   1.772   2.522   4.359 -1.2487  2.8150 -0.0940
  134OSM   H16T14559   1.931   2.432   4.398  0.6746  1.0207 -0.8222
  134OSM   C17S14560   1.937   2.628   4.285  0.0948 -0.1950  0.9683
  134OSM   H17S14561   1.875   2.720   4.296 -0.9167 -0.3998 -2.2121
  134OSM   H17T14562   1.915   2.590   4.183 -0.0924  1.1062  0.5139
  134OSM   C18S14563   2.086   2.652   4.298 -0.4819  0.8332  0.3817
  134OSM   H18S14564   2.137   2.566   4.347  1.1204  1.0264 -0.8816
  134OSM   H18T14565   2.111   2.742   4.360  0.3716  0.4275  0.6320
  134OSM   H18U14566   2.140   2.663   4.202 -1.8728  0.6203 -0.4550
  134OSM    C1F14567   1.001   2.642   5.659  0.4908 -1.2655  0.2935
  134OSM     OF14568   1.000   2.551   5.739  0.2287 -0.8323  0.0446
  134OSM    C2F14569   0.889   2.649   5.550 -0.3277 -0.7804  0.6895
  134OSM    H2F14570   0.789   2.650   5.599 -2.2012  1.0344 -2.8197
  134OSM    H2G14571   0.903   2.553   5.496  0.9862 -1.1838  1.6756
  134OSM    C3F14572   0.904   2.769   5.449 -0.1628  0.3897 -0.4569
  134OSM    H3F14573   0.908   2.869   5.497  0.7736  0.7493 -1.2552
  134OSM    H3G14574   0.805   2.773   5.398 -1.0855 -0.2195  1.1946
  134OSM    C4F14575   1.007   2.748   5.337  0.1369 -0.1780 -0.3721
  134OSM    H4F14576   0.987   2.647   5.294 -0.6410  0.2834 -1.1230
  134OSM    H4G14577   1.106   2.742   5.387  0.4960  1.4206 -0.8556
  134OSM    C5F14578   1.013   2.871   5.239 -0.1918 -0.3548  0.2860
  134OSM    H5F14579   1.074   2.938   5.302 -1.1457 -1.4973  2.5280
  134OSM    H5G14580   0.909   2.908   5.228  0.3974  0.7891 -2.2297
  134OSM    C6F14581   1.071   2.833   5.101  0.3770  0.3964  0.2172
  134OSM    H6F14582   0.990   2.776   5.051 -0.0407  0.3567  0.9369
  134OSM    H6G14583   1.172   2.787   5.108 -0.3346 -1.6231 -1.5579
  134OSM    C7F14584   1.085   2.961   5.024  0.0171  0.1081 -0.3945
  134OSM    H7F14585   1.125   3.037   5.095  0.8484  0.8019 -1.5512
  134OSM    H7G14586   0.990   2.993   4.975 -0.8098 -0.4982  0.7835
  134OSM    C8F14587   1.191   2.947   4.911 -0.6070 -0.3083 -0.2981
  134OSM    H8F14588   1.159   2.860   4.850  0.1064 -1.6046  1.1186
  134OSM    H8G14589   1.287   2.926   4.962  0.0879  1.2193 -0.9026
  134OSM    C9F14590   1.206   3.072   4.832 -0.3938 -0.6278  0.2994
  134OSM    H9F14591   1.257   3.154   4.884 -2.2672 -1.0570  3.0008
  134OSM   C10F14592   1.146   3.107   4.716 -0.1995  0.1139 -0.5266
  134OSM   H10F14593   1.169   3.206   4.674 -1.8439  0.4765 -0.6203
  134OSM   C11F14594   1.057   3.027   4.625  0.5695  0.1406  0.0754
  134OSM   H11F14595   1.015   2.937   4.675 -1.3975  0.8445 -0.2470
  134OSM   H11G14596   1.113   3.004   4.532 -0.9851  0.4709 -0.9721
  134OSM   C12F14597   0.932   3.107   4.569  0.2273  0.2717  0.0717
  134OSM   H12F14598   0.888   3.039   4.493  1.5093  0.1464 -0.5805
  134OSM   H12G14599   0.970   3.197   4.515  0.3852 -0.3707 -0.9138
  134OSM   C13F14600   0.829   3.143   4.672 -0.4643  0.7636  0.8823
  134OSM   H13F14601   0.871   3.238   4.709  2.3874  1.7459 -3.9488
  134OSM   H13G14602   0.821   3.061   4.746 -1.1809 -0.3461 -0.3703
  134OSM   C14F14603   0.693   3.168   4.599  0.6457  0.1960 -0.1076
  134OSM   H14F14604   0.662   3.063   4.579  3.3069 -0.9211  1.1053
  134OSM   H14G14605   0.708   3.230   4.508  0.3380  0.3576 -0.0473
  134OSM   C15F14606   0.585   3.236   4.688 -0.1318  0.2668 -0.4076
  134OSM   H15F14607   0.572   3.192   4.789 -2.2461  0.6640 -0.4705
  134OSM   H15G14608   0.485   3.233   4.641  0.2967 -0.0402 -1.3303
  134OSM   C16F14609   0.628   3.375   4.711 -0.3250 -0.0554  0.0623
  134OSM   H16F14610   0.653   3.437   4.623  0.0341 -2.3927 -1.5919
  134OSM   H16G14611   0.717   3.375   4.778  1.6641  1.7295 -2.3895
  134OSM   C17F14612   0.534   3.442   4.804  0.8369  0.3916 -0.9240
  134OSM   H17F14613   0.509   3.365   4.881  0.7571  0.3465 -0.9954
  134OSM   H17G14614   0.443   3.464   4.745  1.0919  0.2852 -1.3581
  134OSM   C18F14615   0.589   3.564   4.875  0.4357  0.1416 -0.4035
  134OSM   H18F14616   0.511   3.626   4.925  0.8216  2.4007 -2.4232
  134OSM   H18G14617   0.651   3.632   4.811  0.4124  0.3215 -0.2357
  134OSM   H18H14618   0.654   3.528   4.957 -0.6295  0.9654  0.8415
  135OSM      N14619   2.014   3.051   6.415  0.0548 -0.7388  0.3738
  135OSM    C1514620   2.124   2.964   6.444  0.1412 -0.2550  0.1080
  135OSM   H15A14621   2.115   2.876   6.381  3.1685 -0.6511  0.1038
  135OSM   H15B14622   2.123   2.939   6.549  0.0483  1.4509  0.5381
  135OSM   H15C14623   2.211   3.021   6.416 -1.1954  3.0421  2.1283
  135OSM    C1414624   1.884   3.000   6.462  0.2862  0.8111 -0.3286
  135OSM   H14A14625   1.904   2.966   6.562  0.1381 -0.1983 -0.6271
  135OSM   H14B14626   1.834   2.926   6.400 -0.3014 -0.1291  1.2161
  135OSM   H14C14627   1.812   3.079   6.473 -1.0130 -0.2625 -0.8152
  135OSM    C1314628   2.020   3.174   6.497  0.4755  0.0735 -0.4724
  135OSM   H13A14629   2.107   3.233   6.471  0.9156 -1.0444 -1.6639
  135OSM   H13B14630   2.027   3.143   6.600 -0.4086  1.6011  0.0740
  135OSM   H13C14631   1.934   3.238   6.489  1.0560  1.3977  2.5051
  135OSM    C1214632   2.011   3.082   6.268  0.5000  0.2296  0.0053
  135OSM   H12A14633   2.102   3.133   6.242  1.2676  2.3016  5.4987
  135OSM   H12B14634   1.931   3.152   6.249  0.7528  0.1335 -1.4913
  135OSM    C1114635   1.985   2.964   6.166 -0.3714 -0.4680  0.1515
  135OSM   H11A14636   1.973   3.014   6.068 -0.6012  0.4979  0.6581
  135OSM   H11B14637   1.889   2.928   6.208 -0.6291 -0.2144 -0.2203
  135OSM      P14638   2.082   2.726   6.101  0.1285 -0.1938  0.3097
  135OSM    O1314639   2.212   2.670   6.070 -0.9165 -0.5395  0.5681
  135OSM    O1414640   2.002   2.635   6.188  0.5219 -0.4537  0.1320
  135OSM    O1114641   2.009   2.754   5.959 -0.3655  0.2531  1.0303
  135OSM    O1214642   2.091   2.870   6.161  0.0089  0.7310  0.0177
  135OSM    C1S14643   2.056   2.677   5.851 -0.5482  0.9443 -0.2865
  135OSM    H1S14644   2.024   2.572   5.873 -0.0782  1.0495  0.9872
  135OSM    H1T14645   2.167   2.669   5.844 -0.6088 -0.1959 -0.1751
  135OSM     NF14646   2.034   2.614   5.621 -0.1387  0.0975 -1.0744
  135OSM    HNF14647   2.100   2.639   5.550 -0.7678  1.9689 -1.0591
  135OSM    C2S14648   2.005   2.724   5.711  0.1526 -0.0601 -0.9574
  135OSM    H2S14649   1.894   2.730   5.712  0.0657 -0.9967 -2.1822
  135OSM    C3S14650   2.064   2.857   5.676  0.2775 -0.4228 -0.2591
  135OSM    H3S14651   2.174   2.855   5.689 -0.1037 -1.3717  4.5984
  135OSM     O314652   2.036   2.965   5.762  0.5967  0.1750  0.2506
  135OSM    HO314653   2.013   2.913   5.840 -1.6826 -2.2411 -1.8375
  135OSM    C4S14654   2.010   2.892   5.540  0.0330  0.3979  0.2979
  135OSM    H4S14655   1.914   2.944   5.543  0.1602  0.6045  1.2072
  135OSM    C5S14656   2.088   2.894   5.432 -0.3230  0.1781  0.0146
  135OSM    H5S14657   2.196   2.885   5.449 -0.2755  3.3773  2.4338
  135OSM    C6S14658   2.051   2.949   5.295  0.1166  0.3768  0.5118
  135OSM    H6S14659   2.093   3.050   5.278 -0.4698  0.1538 -2.9190
  135OSM    H6T14660   1.944   2.978   5.298 -0.0138 -0.1303  2.9904
  135OSM    C7S14661   2.099   2.860   5.180 -0.1454  0.3735 -0.4941
  135OSM    H7S14662   2.044   2.765   5.168 -1.9427  1.1874  0.9196
  135OSM    H7T14663   2.206   2.831   5.183 -0.0773  0.5434 -1.0613
  135OSM    C8S14664   2.070   2.935   5.045  0.3265 -0.6060 -0.3956
  135OSM    H8S14665   2.123   3.032   5.053 -1.2828  0.2525  0.3701
  135OSM    H8T14666   1.966   2.972   5.053  0.9398  0.9732  0.8828
  135OSM    C9S14667   2.107   2.854   4.915 -0.2519 -0.6199  0.1665
  135OSM    H9S14668   2.038   2.767   4.907  0.0911 -0.9814  0.9708
  135OSM    H9T14669   2.210   2.814   4.930  0.8030  0.5764 -3.0518
  135OSM   C10S14670   2.112   2.949   4.789 -1.2441  0.1393 -0.0996
  135OSM   H10S14671   2.185   2.913   4.713 -0.8089 -0.1697  0.4547
  135OSM   H10T14672   2.145   3.047   4.828 -0.8742  0.0818 -0.2635
  135OSM   C11S14673   1.973   2.976   4.734 -0.2300  0.3634  0.0633
  135OSM   H11S14674   1.913   3.031   4.809 -2.8686 -2.4835  0.2092
  135OSM   H11T14675   1.927   2.877   4.713 -0.2942  0.0349  1.6641
  135OSM   C12S14676   1.974   3.069   4.604  0.5423 -0.5213 -0.0860
  135OSM   H12S14677   2.027   3.162   4.633 -0.3775  0.1178 -0.3861
  135OSM   H12T14678   1.871   3.104   4.583  0.7172  0.7511  1.0941
  135OSM   C13S14679   2.034   3.023   4.472 -0.2090 -0.0232 -0.7265
  135OSM   H13S14680   1.968   2.948   4.422 -1.1235  0.1904  0.1245
  135OSM   H13T14681   2.133   2.981   4.500 -0.6545  1.7955  4.5524
  135OSM   C14S14682   2.066   3.143   4.381  0.1868 -0.2066  0.2207
  135OSM   H14S14683   2.094   3.225   4.450 -0.8452 -1.2948  2.0437
  135OSM   H14T14684   1.971   3.159   4.325  1.6049  0.6248 -2.0708
  135OSM   C15S14685   2.168   3.112   4.273 -0.0561  0.3013  0.0092
  135OSM   H15S14686   2.158   3.009   4.231  1.4807 -0.8100  2.1410
  135OSM   H15T14687   2.265   3.117   4.328 -0.7739 -0.8524  1.4606
  135OSM   C16S14688   2.171   3.221   4.165 -0.3547  0.0496 -0.3563
  135OSM   H16S14689   2.201   3.317   4.213  0.1989  0.5968 -1.7398
  135OSM   H16T14690   2.068   3.235   4.126 -0.8237  0.6657  1.0259
  135OSM   C17S14691   2.254   3.194   4.033 -0.4033 -0.2019 -0.5501
  135OSM   H17S14692   2.279   3.292   3.986 -0.2778 -0.0491 -0.1725
  135OSM   H17T14693   2.180   3.139   3.972 -0.2034 -1.2942  0.1720
  135OSM   C18S14694   2.390   3.136   4.049 -0.1215  0.3654 -0.2109
  135OSM   H18S14695   2.449   3.174   4.135 -0.4104 -1.1418  0.6808
  135OSM   H18T14696   2.455   3.152   3.960 -2.8302  0.2686 -2.3354
  135OSM   H18U14697   2.379   3.028   4.071 -0.4561  0.3527 -0.4278
  135OSM    C1F14698   1.975   2.500   5.613  1.1925 -0.0131  0.3999
  135OSM     OF14699   1.866   2.481   5.666  0.2965  0.0444 -0.3370
  135OSM    C2F14700   2.039   2.396   5.527  0.4229 -0.4124  0.3161
  135OSM    H2F14701   2.134   2.438   5.489 -0.1008  0.0020 -0.5422
  135OSM    H2G14702   1.972   2.378   5.441  0.3838 -0.8575  0.4346
  135OSM    C3F14703   2.065   2.267   5.614  0.3676 -0.0274  0.2853
  135OSM    H3F14704   2.086   2.185   5.543  3.3292  1.6462 -0.9250
  135OSM    H3G14705   1.980   2.245   5.682 -0.6278  3.4533  0.3608
  135OSM    C4F14706   2.186   2.285   5.706 -0.0967  0.4182 -0.1736
  135OSM    H4F14707   2.192   2.392   5.734 -1.2192  0.2964  0.5763
  135OSM    H4G14708   2.170   2.217   5.792  0.4318 -1.7253 -1.6689
  135OSM    C5F14709   2.318   2.253   5.637  0.3247 -0.1024  0.4151
  135OSM    H5F14710   2.398   2.284   5.707  1.1796  2.1266 -1.4182
  135OSM    H5G14711   2.338   2.303   5.539  0.5997 -0.4628  0.2861
  135OSM    C6F14712   2.346   2.101   5.619 -0.0367  0.5823  0.0164
  135OSM    H6F14713   2.457   2.090   5.612  0.0690  2.1061 -1.5612
  135OSM    H6G14714   2.308   2.066   5.521 -0.3867 -0.1043  0.3947
  135OSM    C7F14715   2.303   2.002   5.728 -0.4909  1.2604  0.0934
  135OSM    H7F14716   2.194   1.988   5.709 -0.7366  2.0947  0.8544
  135OSM    H7G14717   2.311   2.047   5.829 -0.7299  2.8112 -0.5600
  135OSM    C8F14718   2.378   1.861   5.724  0.0879  0.2163 -0.3106
  135OSM    H8F14719   2.378   1.841   5.614  1.2136  0.1693 -0.3105
  135OSM    H8G14720   2.301   1.798   5.774 -2.0654  1.6854 -1.5949
  135OSM    C9F14721   2.509   1.872   5.782 -0.2851 -0.2786 -0.1895
  135OSM    H9F14722   2.548   1.974   5.786  0.1367 -0.3755 -1.5142
  135OSM   C10F14723   2.579   1.767   5.832 -0.5185 -0.1140  0.0431
  135OSM   H10F14724   2.676   1.787   5.880 -1.3140 -1.9953  2.6975
  135OSM   C11F14725   2.535   1.625   5.843  0.1378 -0.2199 -0.2282
  135OSM   H11F14726   2.435   1.618   5.794 -0.6994  0.0664  1.3639
  135OSM   H11G14727   2.519   1.599   5.950  0.0084  1.1907  0.1190
  135OSM   C12F14728   2.639   1.527   5.776 -0.1682 -0.8263  0.4303
  135OSM   H12F14729   2.607   1.421   5.778 -2.1886 -0.2560  1.3790
  135OSM   H12G14730   2.739   1.544   5.823 -0.7373  0.7438  1.1674
  135OSM   C13F14731   2.669   1.564   5.627 -0.8156  0.1411 -0.3818
  135OSM   H13F14732   2.751   1.502   5.586 -1.3362 -0.8972  0.1278
  135OSM   H13G14733   2.697   1.667   5.596  0.8366 -0.4720 -1.0383
  135OSM   C14F14734   2.552   1.526   5.538 -0.2424  0.1177  0.2128
  135OSM   H14F14735   2.463   1.592   5.534  0.5208  1.1284 -0.8455
  135OSM   H14G14736   2.506   1.434   5.579  2.1403 -0.7461  1.0947
  135OSM   C15F14737   2.599   1.517   5.393  0.2842 -0.1669 -0.2831
  135OSM   H15F14738   2.527   1.452   5.339  0.1087  0.7285 -1.1598
  135OSM   H15G14739   2.700   1.474   5.377  0.2895  0.5093 -2.3281
  135OSM   C16F14740   2.600   1.651   5.316  0.2486 -0.3686 -0.2719
  135OSM   H16F14741   2.691   1.712   5.336 -0.7184  1.3245 -0.8417
  135OSM   H16G14742   2.506   1.708   5.331  0.8351  0.4704  0.3291
  135OSM   C17F14743   2.622   1.621   5.166 -0.3550 -0.3644  0.7045
  135OSM   H17F14744   2.671   1.522   5.149  1.9707  1.0331 -1.4082
  135OSM   H17G14745   2.687   1.700   5.123 -2.5023  1.3372  0.4621
  135OSM   C18F14746   2.499   1.620   5.072  0.3507 -0.2703  0.1161
  135OSM   H18F14747   2.516   1.585   4.968 -0.8743 -1.1258  0.1834
  135OSM   H18G14748   2.435   1.710   5.077  1.7498  0.8116 -0.6667
  135OSM   H18H14749   2.425   1.546   5.108  0.3235  0.1804  1.0006
  136OSM      N14750   5.845   3.137   6.325 -0.5884 -1.2077 -0.2645
  136OSM    C1514751   5.811   3.019   6.408 -0.3003  0.1535  0.3804
  136OSM   H15A14752   5.812   3.042   6.513 -1.4296  0.5058  0.3221
  136OSM   H15B14753   5.887   2.943   6.394 -1.4390 -1.8640  3.8535
  136OSM   H15C14754   5.712   2.980   6.389 -0.0376 -1.1118  1.4755
  136OSM    C1414755   5.740   3.235   6.365  0.0606 -0.2861 -0.6356
  136OSM   H14A14756   5.753   3.334   6.324  0.4415 -0.1208 -0.1316
  136OSM   H14B14757   5.749   3.253   6.471  3.4244  0.9042 -0.9941
  136OSM   H14C14758   5.645   3.202   6.326  1.0193 -0.6400 -2.7800
  136OSM    C1314759   5.978   3.197   6.365  0.8662  0.6133 -0.1848
  136OSM   H13A14760   5.957   3.274   6.438 -0.2600 -0.4610  0.6714
  136OSM   H13B14761   6.024   3.248   6.282 -1.4662 -0.4208 -2.2599
  136OSM   H13C14762   6.048   3.123   6.401  2.5768  2.5012  0.5623
  136OSM    C1214763   5.851   3.096   6.179  0.1173 -0.4892 -0.2501
  136OSM   H12A14764   5.751   3.058   6.164 -0.0964 -0.5317  1.1687
  136OSM   H12B14765   5.923   3.018   6.159  1.0751  0.2565  0.2519
  136OSM    C1114766   5.873   3.204   6.077 -0.7605 -0.4438  0.0753
  136OSM   H11A14767   5.838   3.148   5.987  1.2129 -2.4435  0.4560
  136OSM   H11B14768   5.983   3.222   6.071 -0.7509 -1.0114 -2.6192
  136OSM      P14769   5.670   3.376   6.035  0.2573  0.0292  0.1581
  136OSM    O1314770   5.599   3.253   5.998  0.0609  0.2707  0.2957
  136OSM    O1414771   5.605   3.472   6.123 -0.0307 -0.2099 -0.0038
  136OSM    O1114772   5.721   3.436   5.896  0.3696  0.1205  0.2900
  136OSM    O1214773   5.807   3.339   6.095 -0.4784  0.4278 -0.4609
  136OSM    C1S14774   5.795   3.560   5.893 -0.5766 -0.8816  0.2929
  136OSM    H1S14775   5.901   3.534   5.912  0.0229 -0.5158 -2.1971
  136OSM    H1T14776   5.751   3.631   5.966  0.9228  1.0211 -0.5709
  136OSM     NF14777   5.888   3.728   5.735 -0.3829  0.2515  0.0319
  136OSM    HNF14778   5.859   3.814   5.778 -1.0614 -0.1767  0.4406
  136OSM    C2S14779   5.784   3.625   5.748 -0.3167 -0.2455 -0.4991
  136OSM    H2S14780   5.802   3.540   5.678  0.9300 -0.4911  0.0950
  136OSM    C3S14781   5.647   3.683   5.719  0.8016  0.3156  0.0440
  136OSM    H3S14782   5.628   3.764   5.793 -2.9452  0.0686 -0.4429
  136OSM     O314783   5.543   3.590   5.736  0.1577  0.8381 -0.3552
  136OSM    HO314784   5.591   3.516   5.776 -2.1311 -0.2444  0.5537
  136OSM    C4S14785   5.642   3.747   5.583  0.4771  0.4909  0.2650
  136OSM    H4S14786   5.628   3.855   5.593 -0.8386  0.2864  0.9355
  136OSM    C5S14787   5.647   3.685   5.461  0.3772  0.6359  0.4346
  136OSM    H5S14788   5.660   3.577   5.446 -0.1173  0.1625  3.0009
  136OSM    C6S14789   5.659   3.761   5.327 -0.3761  0.3824  0.9946
  136OSM    H6S14790   5.695   3.695   5.245 -0.2338  0.3243  1.1045
  136OSM    H6T14791   5.740   3.837   5.332  0.3662 -0.3434  0.2977
  136OSM    C7S14792   5.529   3.827   5.288 -0.0585 -0.5495  0.5384
  136OSM    H7S14793   5.477   3.874   5.374 -1.3613  0.0830 -0.5608
  136OSM    H7T14794   5.461   3.744   5.257 -0.7492  0.4960 -0.8420
  136OSM    C8S14795   5.530   3.928   5.176  0.0017  0.8808 -0.7807
  136OSM    H8S14796   5.623   3.988   5.179  1.0009 -0.5114 -2.1970
  136OSM    H8T14797   5.442   3.996   5.180 -0.2053  0.5638  0.1822
  136OSM    C9S14798   5.524   3.868   5.037  0.0284 -0.2189 -0.1608
  136OSM    H9S14799   5.429   3.810   5.029 -0.6849  0.2184  3.3931
  136OSM    H9T14800   5.614   3.804   5.029  1.5614  1.5604  1.7858
  136OSM   C10S14801   5.527   3.989   4.937  0.4605  0.7282 -0.3226
  136OSM   H10S14802   5.624   4.044   4.938 -0.1409  1.8077 -0.3591
  136OSM   H10T14803   5.452   4.062   4.972 -0.1651  0.2525 -0.6562
  136OSM   C11S14804   5.482   3.958   4.791 -0.1266 -0.6741  0.4778
  136OSM   H11S14805   5.494   4.054   4.737  1.7204 -1.4020 -0.4951
  136OSM   H11T14806   5.382   3.910   4.790 -0.8723  0.8459  0.3617
  136OSM   C12S14807   5.564   3.858   4.725 -0.0162 -0.3831  0.4905
  136OSM   H12S14808   5.514   3.858   4.626 -1.5738  2.2580  1.1739
  136OSM   H12T14809   5.555   3.755   4.767  0.1794 -1.1307 -1.1977
  136OSM   C13S14810   5.715   3.889   4.703  0.2977  0.2297 -0.5259
  136OSM   H13S14811   5.766   3.926   4.795 -0.1166  3.0365 -1.3119
  136OSM   H13T14812   5.717   3.979   4.637 -0.6077  1.4904  1.0715
  136OSM   C14S14813   5.795   3.763   4.660  0.1844 -0.5857  0.4034
  136OSM   H14S14814   5.798   3.679   4.733  2.5246  0.8002  2.0307
  136OSM   H14T14815   5.897   3.804   4.649 -0.4728  1.3125  0.9640
  136OSM   C15S14816   5.751   3.719   4.519 -0.1161 -0.3881 -0.3880
  136OSM   H15S14817   5.641   3.711   4.507 -0.2196 -1.0332  0.8543
  136OSM   H15T14818   5.792   3.617   4.505  2.1062 -0.4394  4.5225
  136OSM   C16S14819   5.827   3.804   4.419 -0.0363  0.4488 -0.6385
  136OSM   H16S14820   5.936   3.783   4.425 -0.2790 -0.8342 -0.4516
  136OSM   H16T14821   5.827   3.912   4.446  0.1471  0.8924 -2.3075
  136OSM   C17S14822   5.777   3.783   4.281  0.0608  0.2831 -0.0506
  136OSM   H17S14823   5.743   3.880   4.240 -1.2089 -0.4872 -0.9246
  136OSM   H17T14824   5.683   3.724   4.273  0.3033 -0.3506  1.5567
  136OSM   C18S14825   5.877   3.730   4.175 -0.4004 -0.3773 -0.1789
  136OSM   H18S14826   5.930   3.636   4.201 -0.8878 -0.0183  2.3537
  136OSM   H18T14827   5.957   3.804   4.156 -0.2357 -0.6955 -0.7435
  136OSM   H18U14828   5.832   3.709   4.076 -1.1801 -0.1632  0.1219
  136OSM    C1F14829   6.012   3.698   5.704  0.2955  0.0160  0.2724
  136OSM     OF14830   6.040   3.585   5.657  0.3327 -0.1330 -0.2760
  136OSM    C2F14831   6.110   3.801   5.746  0.0095 -0.4049 -0.8144
  136OSM    H2F14832   6.192   3.742   5.792 -1.3814 -0.7308  1.4063
  136OSM    H2G14833   6.069   3.874   5.819 -0.1576 -0.2272 -1.0833
  136OSM    C3F14834   6.173   3.876   5.620 -0.0523  0.4399  0.0546
  136OSM    H3F14835   6.235   3.797   5.572  0.4465  0.1234  1.1780
  136OSM    H3G14836   6.236   3.963   5.647  1.2064 -0.9894  1.9968
  136OSM    C4F14837   6.062   3.930   5.520 -0.0462  0.0272  0.1985
  136OSM    H4F14838   6.075   4.039   5.505  0.7218 -0.2399 -1.3534
  136OSM    H4G14839   5.955   3.910   5.541 -0.0059 -0.9243 -0.4122
  136OSM    C5F14840   6.094   3.873   5.382  0.2083 -0.6091  0.2108
  136OSM    H5F14841   6.074   3.764   5.379  1.8276 -0.9184 -2.6016
  136OSM    H5G14842   6.199   3.902   5.359  0.0332  0.3630  0.5723
  136OSM    C6F14843   6.018   3.942   5.273 -0.0317 -0.8774  0.8658
  136OSM    H6F14844   6.048   4.047   5.253  0.3253 -0.9980  0.7542
  136OSM    H6G14845   5.910   3.949   5.296 -0.3261 -2.0048 -0.0618
  136OSM    C7F14846   6.024   3.867   5.138  0.2610  0.1557  0.3541
  136OSM    H7F14847   5.955   3.781   5.154  0.1278  0.2804  0.4501
  136OSM    H7G14848   6.129   3.832   5.129 -0.0754 -0.5185 -1.4382
  136OSM    C8F14849   5.977   3.957   5.020 -0.1178  0.3686  0.2125
  136OSM    H8F14850   5.997   4.063   5.044  1.2497 -0.3548  2.6706
  136OSM    H8G14851   5.866   3.958   5.011 -0.1039 -1.4851 -0.7060
  136OSM    C9F14852   6.019   3.894   4.895 -0.4289 -0.5959  0.8337
  136OSM    H9F14853   5.957   3.807   4.869  0.2618 -0.5501 -1.0764
  136OSM   C10F14854   6.120   3.936   4.816 -0.0419 -0.5445 -0.1103
  136OSM   H10F14855   6.141   3.888   4.720  0.6014 -0.5457  0.0310
  136OSM   C11F14856   6.210   4.048   4.844 -0.4915  0.0029  1.2326
  136OSM   H11F14857   6.315   4.018   4.828 -0.4050  0.0581  1.6824
  136OSM   H11G14858   6.187   4.087   4.945 -2.2494  1.1322  0.4490
  136OSM   C12F14859   6.190   4.168   4.752  0.1327 -0.4049 -0.5480
  136OSM   H12F14860   6.267   4.243   4.782  1.5219 -1.2262 -1.9407
  136OSM   H12G14861   6.088   4.211   4.760  0.9049  1.2190  1.4428
  136OSM   C13F14862   6.221   4.129   4.609 -0.1774  0.2588  0.4752
  136OSM   H13F14863   6.161   4.047   4.564  1.1948  0.1292 -1.2330
  136OSM   H13G14864   6.327   4.095   4.607 -0.9694 -2.3568 -0.5037
  136OSM   C14F14865   6.243   4.255   4.522 -0.0384  0.2040  0.5383
  136OSM   H14F14866   6.318   4.320   4.572 -1.0340  0.3267  1.9245
  136OSM   H14G14867   6.151   4.313   4.501 -0.4705 -1.0866 -1.3511
  136OSM   C15F14868   6.294   4.220   4.384 -0.2253  0.7506 -0.2464
  136OSM   H15F14869   6.218   4.149   4.344 -3.9377  3.6388  1.0993
  136OSM   H15G14870   6.392   4.172   4.404  0.7277  3.1431  1.2996
  136OSM   C16F14871   6.306   4.341   4.296  0.6479 -1.4399 -0.7055
  136OSM   H16F14872   6.387   4.413   4.320  0.5786 -1.9069  1.0767
  136OSM   H16G14873   6.216   4.405   4.307  2.1256  0.4853  1.1609
  136OSM   C17F14874   6.311   4.315   4.145  0.5707 -0.0822  0.2805
  136OSM   H17F14875   6.216   4.268   4.112  1.9219 -3.1158  0.2911
  136OSM   H17G14876   6.395   4.243   4.125 -0.1099 -0.3893 -1.6990
  136OSM   C18F14877   6.336   4.441   4.053  0.0568 -0.0121  0.1992
  136OSM   H18F14878   6.419   4.504   4.091 -0.6558  1.1021 -0.0449
  136OSM   H18G14879   6.247   4.505   4.037  0.0560  0.4173  1.8005
  136OSM   H18H14880   6.366   4.413   3.949  0.5804 -1.1500  0.6309
  137OSM      N14881   2.261   0.889   6.215  0.2354 -0.6773  0.0086
  137OSM    C1514882   2.368   0.790   6.247  0.5625 -0.3693 -0.0579
  137OSM   H15A14883   2.416   0.759   6.155  2.7675 -1.1991  1.2999
  137OSM   H15B14884   2.331   0.702   6.298 -0.5669 -0.9434 -1.7740
  137OSM   H15C14885   2.446   0.824   6.313  0.0431 -1.0498  0.9366
  137OSM    C1414886   2.163   0.821   6.123  0.6700  0.7187  0.3806
  137OSM   H14A14887   2.150   0.719   6.154  2.0507  0.0153 -1.2297
  137OSM   H14B14888   2.185   0.828   6.018 -0.4302 -0.5756  0.0372
  137OSM   H14C14889   2.064   0.865   6.133 -0.3631 -0.6162 -2.6935
  137OSM    C1314890   2.187   0.914   6.347  0.2497  0.6451  0.1935
  137OSM   H13A14891   2.097   0.971   6.326 -0.4144 -1.3217 -2.8919
  137OSM   H13B14892   2.255   0.962   6.416  0.7417 -0.2753  0.3532
  137OSM   H13C14893   2.159   0.817   6.385 -0.5680 -0.3002 -2.6151
  137OSM    C1214894   2.318   1.013   6.162 -0.2252 -0.5263 -0.8396
  137OSM   H12A14895   2.354   0.984   6.064  0.7044 -0.4831 -0.5226
  137OSM   H12B14896   2.403   1.042   6.222 -1.6713  0.2564  0.8977
  137OSM    C1114897   2.239   1.143   6.138  0.2099  0.0049 -0.5113
  137OSM   H11A14898   2.148   1.128   6.076 -1.5572  2.4451  1.2956
  137OSM   H11B14899   2.313   1.204   6.082  0.1637  0.3547 -0.2004
  137OSM      P14900   2.121   1.342   6.284 -0.1120 -0.0416 -0.1687
  137OSM    O1314901   1.990   1.329   6.354  0.5650 -0.1850  0.6797
  137OSM    O1414902   2.220   1.429   6.352 -0.4271 -0.2570 -0.0725
  137OSM    O1114903   2.099   1.392   6.141 -0.2114 -0.5814 -0.5604
  137OSM    O1214904   2.197   1.200   6.266  0.1262  0.8570 -0.2443
  137OSM    C1S14905   2.004   1.494   6.106 -0.2936 -0.0191  0.3557
  137OSM    H1S14906   1.998   1.582   6.174  1.4492  0.9254 -0.6503
  137OSM    H1T14907   1.903   1.450   6.094 -0.1491 -0.2634  0.0202
  137OSM     NF14908   1.969   1.657   5.926  0.5217 -0.1658 -0.1820
  137OSM    HNF14909   1.882   1.635   5.884 -0.9418  1.2141  1.9183
  137OSM    C2S14910   2.046   1.549   5.970 -0.5251 -0.1052  0.1269
  137OSM    H2S14911   2.152   1.580   5.986 -1.1250  0.5151  3.4411
  137OSM    C3S14912   2.060   1.432   5.864 -0.3818  0.9432 -0.9013
  137OSM    H3S14913   1.969   1.367   5.864 -0.2939  0.8136 -0.2628
  137OSM     O314914   2.166   1.337   5.890  0.0315 -0.1727  0.1714
  137OSM    HO314915   2.180   1.352   5.984 -1.9632  1.8593  0.2206
  137OSM    C4S14916   2.066   1.484   5.724 -0.3571 -0.2834 -0.0371
  137OSM    H4S14917   1.963   1.474   5.686 -0.6257 -0.8063  0.8051
  137OSM    C5S14918   2.164   1.539   5.645 -0.3137  0.7248 -0.9520
  137OSM    H5S14919   2.262   1.556   5.692 -2.3373  3.9480  2.7042
  137OSM    C6S14920   2.143   1.583   5.506  0.7949 -0.3588  0.2038
  137OSM    H6S14921   2.078   1.512   5.452  2.5179 -0.1023 -2.3927
  137OSM    H6T14922   2.237   1.583   5.447  0.4827 -1.1063 -0.3017
  137OSM    C7S14923   2.089   1.724   5.478  0.0781 -0.1398 -0.3863
  137OSM    H7S14924   2.152   1.793   5.539  2.8622 -2.0371 -0.9375
  137OSM    H7T14925   1.981   1.732   5.505  0.2312 -1.0704  0.5718
  137OSM    C8S14926   2.116   1.767   5.328  0.1081 -0.1072 -1.2136
  137OSM    H8S14927   2.052   1.699   5.268  0.6241 -0.5774 -1.2464
  137OSM    H8T14928   2.222   1.753   5.296  0.5705 -1.0395  0.6006
  137OSM    C9S14929   2.062   1.915   5.301 -0.1451  0.3429 -0.7405
  137OSM    H9S14930   2.114   1.984   5.370  0.2454  1.9822 -2.5760
  137OSM    H9T14931   1.951   1.921   5.304 -0.1759 -0.3348 -0.0230
  137OSM   C10S14932   2.094   1.961   5.164 -0.4560  0.3490 -0.4542
  137OSM   H10S14933   2.204   1.957   5.148 -0.2355 -1.2544  1.1750
  137OSM   H10T14934   2.062   2.065   5.142 -0.5991  0.4443  0.1860
  137OSM   C11S14935   2.034   1.876   5.057  0.0887 -0.2447 -0.5021
  137OSM   H11S14936   1.924   1.866   5.072  0.0260  0.2809 -0.5862
  137OSM   H11T14937   2.077   1.774   5.061 -0.3363 -0.4084  0.0711
  137OSM   C12S14938   2.051   1.925   4.908  0.4859 -0.0958  0.2846
  137OSM   H12S14939   1.997   2.022   4.909 -1.5138 -1.1691  0.0266
  137OSM   H12T14940   1.981   1.863   4.848  1.8896 -0.9958 -0.4869
  137OSM   C13S14941   2.187   1.919   4.857  0.0671 -0.2294  0.4933
  137OSM   H13S14942   2.259   1.928   4.941  1.4674 -1.7151 -0.4702
  137OSM   H13T14943   2.203   2.008   4.792  0.9363  1.5220  2.9759
  137OSM   C14S14944   2.224   1.786   4.794  0.1526  0.0799 -0.3474
  137OSM   H14S14945   2.191   1.709   4.866 -1.0174  0.3950 -0.5383
  137OSM   H14T14946   2.335   1.783   4.783  0.5121 -0.9173  2.7422
  137OSM   C15S14947   2.146   1.751   4.667 -0.5714  0.2570 -0.1549
  137OSM   H15S14948   2.142   1.836   4.595  0.3949 -0.2185 -0.7880
  137OSM   H15T14949   2.039   1.729   4.689 -0.6499 -1.9699 -2.3495
  137OSM   C16S14950   2.203   1.629   4.594  0.5544  0.2987 -0.2849
  137OSM   H16S14951   2.213   1.555   4.676 -1.2930  0.1054 -0.1781
  137OSM   H16T14952   2.303   1.663   4.562  0.7677 -0.0790 -0.0310
  137OSM   C17S14953   2.124   1.570   4.479  0.2633  0.2807 -0.5356
  137OSM   H17S14954   2.143   1.652   4.408 -1.4993  0.9158 -0.3300
  137OSM   H17T14955   2.018   1.571   4.513  0.6359  1.6263  0.7000
  137OSM   C18S14956   2.157   1.433   4.435  0.0672 -0.2978 -0.5923
  137OSM   H18S14957   2.264   1.431   4.404  0.7104 -1.0285  1.5359
  137OSM   H18T14958   2.109   1.411   4.337 -0.9123 -0.3094 -0.1163
  137OSM   H18U14959   2.133   1.368   4.521  2.8084 -1.7971 -0.8489
  137OSM    C1F14960   1.988   1.780   5.977  0.2789  0.0540 -0.2314
  137OSM     OF14961   2.073   1.805   6.063  0.1584  0.0183  0.0421
  137OSM    C2F14962   1.882   1.879   5.940 -0.1821 -0.0868 -0.1640
  137OSM    H2F14963   1.903   1.977   5.988  0.0157 -0.7059  1.0343
  137OSM    H2G14964   1.785   1.837   5.975 -0.5938 -0.1955 -1.3916
  137OSM    C3F14965   1.879   1.886   5.790  0.5010 -0.3489 -0.1111
  137OSM    H3F14966   1.837   1.793   5.745 -1.2084  0.4587 -0.2510
  137OSM    H3G14967   1.985   1.904   5.763  0.6232 -0.0847  0.5284
  137OSM    C4F14968   1.800   2.003   5.728  0.3484  0.3654 -0.0687
  137OSM    H4F14969   1.841   2.099   5.764  1.0005  0.4805 -1.0825
  137OSM    H4G14970   1.698   1.998   5.772  0.0369 -3.8422 -0.8050
  137OSM    C5F14971   1.802   1.999   5.574 -0.3163  0.5639  0.3472
  137OSM    H5F14972   1.760   1.903   5.536  2.5262 -0.5832 -0.2400
  137OSM    H5G14973   1.900   2.005   5.521 -1.5536  1.8946 -1.9389
  137OSM    C6F14974   1.704   2.102   5.519  0.0037 -0.7771 -0.3972
  137OSM    H6F14975   1.724   2.198   5.571 -0.4739  0.9376 -3.1940
  137OSM    H6G14976   1.598   2.077   5.541 -0.9392  3.8176  1.4481
  137OSM    C7F14977   1.727   2.133   5.371  0.2137  0.1049  0.1102
  137OSM    H7F14978   1.709   2.036   5.320 -0.0786 -0.3917  1.1258
  137OSM    H7G14979   1.831   2.167   5.354 -0.6788  1.3183 -4.0950
  137OSM    C8F14980   1.642   2.242   5.303  0.0286 -0.4027 -0.2786
  137OSM    H8F14981   1.533   2.223   5.305 -0.5402  1.7892 -3.1854
  137OSM    H8G14982   1.664   2.229   5.195  1.0804 -3.6843  0.2227
  137OSM    C9F14983   1.672   2.382   5.351 -0.1854 -0.4748  0.2265
  137OSM    H9F14984   1.610   2.413   5.437 -0.9654  3.0519 -1.4117
  137OSM   C10F14985   1.743   2.474   5.275 -0.1219  0.1992  0.0535
  137OSM   H10F14986   1.750   2.574   5.322  0.5672 -0.5253  1.5582
  137OSM   C11F14987   1.804   2.461   5.138  0.0370 -0.0083  0.3270
  137OSM   H11F14988   1.812   2.557   5.084 -2.2947 -0.4865 -1.0066
  137OSM   H11G14989   1.745   2.387   5.078  0.9527 -0.6285  0.1693
  137OSM   C12F14990   1.949   2.407   5.152  0.6585 -0.8989  0.0487
  137OSM   H12F14991   1.965   2.320   5.219  0.5104 -0.6557  0.4090
  137OSM   H12G14992   2.002   2.483   5.214 -0.1722  0.8067 -1.2524
  137OSM   C13F14993   2.027   2.385   5.023  0.1777 -0.5079 -0.3966
  137OSM   H13F14994   2.016   2.484   4.974  0.0496 -0.6042 -0.5628
  137OSM   H13G14995   1.985   2.302   4.962  2.6991 -1.7884 -0.5536
  137OSM   C14F14996   2.167   2.345   5.062  0.0982 -0.8044 -0.3003
  137OSM   H14F14997   2.179   2.258   5.130 -0.0436  0.2648  1.1513
  137OSM   H14G14998   2.216   2.434   5.107  0.7205 -2.9382  3.7679
  137OSM   C15F14999   2.244   2.289   4.944  0.2315 -0.7329  0.9232
  137OSM   H15F15000   2.222   2.182   4.922  0.1409 -0.8668  1.6384
  137OSM   H15G15001   2.352   2.283   4.970  0.5567  3.8461  1.3556
  137OSM   C16F15002   2.221   2.370   4.813  0.4730  0.2751 -0.2177
  137OSM   H16F15003   2.224   2.481   4.825 -0.8910  0.3299 -0.2271
  137OSM   H16G15004   2.125   2.329   4.776 -1.1177  1.7466  1.9876
  137OSM   C17F15005   2.325   2.335   4.714  0.0656 -0.4064  0.8154
  137OSM   H17F15006   2.350   2.227   4.720 -0.7232 -0.5989  0.7623
  137OSM   H17G15007   2.412   2.399   4.741  0.5430 -0.7832  0.1950
  137OSM   C18F15008   2.265   2.380   4.578 -0.7119 -0.0957 -0.6536
  137OSM   H18F15009   2.234   2.486   4.594 -1.0710 -0.3353  0.2869
  137OSM   H18G15010   2.179   2.328   4.531  0.5598 -0.4183 -2.7531
  137OSM   H18H15011   2.341   2.372   4.498 -0.3235 -0.8679 -0.2155
  138OSM      N15012   5.492   1.754   6.207 -0.1551 -0.7164 -0.1292
  138OSM    C1515013   5.582   1.644   6.184  0.1860  0.2474  0.6525
  138OSM   H15A15014   5.628   1.604   6.273 -0.2410  0.7897  1.1210
  138OSM   H15B15015   5.659   1.674   6.114 -0.2442 -0.7537 -0.2858
  138OSM   H15C15016   5.542   1.558   6.132 -0.6965 -0.6179  2.6620
  138OSM    C1415017   5.382   1.709   6.297 -0.4042  0.0476  0.0250
  138OSM   H14A15018   5.311   1.789   6.312 -0.5775 -0.3213  1.3580
  138OSM   H14B15019   5.412   1.672   6.394 -0.0367 -1.9243 -0.8000
  138OSM   H14C15020   5.332   1.632   6.240 -0.9926  0.3894  0.0746
  138OSM    C1315021   5.568   1.859   6.282  0.2569 -0.7610 -0.1049
  138OSM   H13A15022   5.599   1.829   6.381  0.8119  1.0444  0.3106
  138OSM   H13B15023   5.492   1.934   6.303 -0.9379 -2.2926  1.3732
  138OSM   H13C15024   5.638   1.908   6.217 -1.5972 -0.4131 -1.9411
  138OSM    C1215025   5.440   1.801   6.070  0.5546 -0.2285 -0.0812
  138OSM   H12A15026   5.340   1.841   6.073 -0.2798 -2.2233 -0.1941
  138OSM   H12B15027   5.443   1.710   6.012  0.2514 -0.3560  0.1031
  138OSM    C1115028   5.530   1.903   5.991  0.2581 -0.1859  0.7924
  138OSM   H11A15029   5.573   1.980   6.058  4.7087 -1.1857 -0.5521
  138OSM   H11B15030   5.470   1.941   5.905  0.9551 -0.3807  0.2134
  138OSM      P15031   5.766   1.868   5.866  0.2719 -0.2265 -0.3980
  138OSM    O1315032   5.826   1.992   5.919 -0.0758 -0.3093 -0.3425
  138OSM    O1415033   5.846   1.746   5.850  0.1526  0.8413 -0.1664
  138OSM    O1115034   5.712   1.889   5.718  0.1852 -0.2652  0.3728
  138OSM    O1215035   5.636   1.822   5.941 -0.1932 -0.1557  0.4511
  138OSM    C1S15036   5.662   2.016   5.669 -0.2338  0.4724  0.2722
  138OSM    H1S15037   5.750   2.083   5.675  0.8974 -0.1680 -4.6055
  138OSM    H1T15038   5.574   2.050   5.728 -0.8215 -1.9293  0.8821
  138OSM     NF15039   5.575   2.137   5.476  0.1133 -0.3609  0.4895
  138OSM    HNF15040   5.477   2.146   5.459  0.1128 -0.8466  0.2331
  138OSM    C2S15041   5.618   2.009   5.525 -0.2094 -0.5884  1.0820
  138OSM    H2S15042   5.707   1.985   5.464  0.6110  3.0970  0.5898
  138OSM    C3S15043   5.501   1.905   5.513 -0.3751 -0.4661  0.1758
  138OSM    H3S15044   5.409   1.941   5.564 -0.5356 -1.2071  0.4277
  138OSM     O315045   5.533   1.778   5.570  0.7156  0.8213 -0.0545
  138OSM    HO315046   5.612   1.798   5.621  1.4541 -2.6961  0.4051
  138OSM    C4S15047   5.473   1.881   5.373 -0.8129  0.3955 -0.0485
  138OSM    H4S15048   5.563   1.884   5.310 -0.5351  0.7183  0.3534
  138OSM    C5S15049   5.354   1.871   5.301 -0.0879  0.7929 -0.7080
  138OSM    H5S15050   5.260   1.862   5.357 -1.0650 -1.2071 -2.5269
  138OSM    C6S15051   5.326   1.858   5.156  0.0407 -0.3124  0.2551
  138OSM    H6S15052   5.249   1.930   5.119  1.1076  1.5128  1.4647
  138OSM    H6T15053   5.284   1.755   5.146 -4.3252  1.4006 -1.7488
  138OSM    C7S15054   5.459   1.867   5.070  0.2298 -0.0418 -1.0915
  138OSM    H7S15055   5.526   1.780   5.093 -2.3761 -1.4559  1.9785
  138OSM    H7T15056   5.508   1.959   5.108 -0.2388 -0.4103  0.4798
  138OSM    C8S15057   5.426   1.868   4.923  0.2163  0.1380 -0.9863
  138OSM    H8S15058   5.357   1.950   4.898 -0.7574 -0.9679 -2.0597
  138OSM    H8T15059   5.375   1.776   4.888 -0.7448  1.4067 -3.1161
  138OSM    C9S15060   5.549   1.907   4.838 -0.5833  0.5793 -0.0117
  138OSM    H9S15061   5.605   1.992   4.881  0.5570  1.1272 -2.4325
  138OSM    H9T15062   5.505   1.935   4.740 -3.0054  0.4499  0.9572
  138OSM   C10S15063   5.659   1.794   4.832 -0.4119 -0.4156  0.4700
  138OSM   H10S15064   5.619   1.700   4.789 -0.8751  0.3859 -0.9109
  138OSM   H10T15065   5.689   1.787   4.939  0.1386  2.7231  0.6253
  138OSM   C11S15066   5.784   1.833   4.754  0.4559  0.7282  0.3792
  138OSM   H11S15067   5.864   1.756   4.753 -1.2132 -1.0967 -0.0144
  138OSM   H11T15068   5.828   1.923   4.801  2.9980 -0.5534  0.6327
  138OSM   C12S15069   5.761   1.847   4.605  0.2996  0.1373  0.4615
  138OSM   H12S15070   5.686   1.927   4.592  0.3668  0.5092  2.0839
  138OSM   H12T15071   5.721   1.751   4.566  2.1480  0.1664 -1.6726
  138OSM   C13S15072   5.888   1.865   4.527 -0.0963 -0.1097 -0.0800
  138OSM   H13S15073   5.962   1.789   4.560 -0.8155 -1.2690 -1.0387
  138OSM   H13T15074   5.932   1.966   4.537 -0.3886 -0.1356  1.8776
  138OSM   C14S15075   5.884   1.836   4.376 -0.1707 -0.1242 -0.5322
  138OSM   H14S15076   5.795   1.889   4.335 -0.0745  0.7581  0.3507
  138OSM   H14T15077   5.871   1.726   4.367  2.1046 -1.2081  5.1375
  138OSM   C15S15078   6.010   1.880   4.309 -0.2764  0.6028  1.1984
  138OSM   H15S15079   6.039   1.984   4.333  0.6589  0.3412  1.2493
  138OSM   H15T15080   5.993   1.893   4.200 -1.2796  0.2638  1.3092
  138OSM   C16S15081   6.127   1.782   4.344  0.1149 -0.5810  0.4053
  138OSM   H16S15082   6.083   1.682   4.365 -0.6572 -1.2021 -3.5169
  138OSM   H16T15083   6.170   1.823   4.438 -1.0913  1.9486 -0.0653
  138OSM   C17S15084   6.240   1.784   4.237  0.6417 -0.7570  0.0049
  138OSM   H17S15085   6.287   1.885   4.236  0.3685 -0.6285  0.0531
  138OSM   H17T15086   6.195   1.768   4.137 -0.4031 -0.6510  0.4488
  138OSM   C18S15087   6.348   1.684   4.268  0.1537 -0.6885  0.5689
  138OSM   H18S15088   6.386   1.696   4.372 -0.6872 -1.1785  0.9459
  138OSM   H18T15089   6.435   1.691   4.199  0.4350  0.1485  0.9931
  138OSM   H18U15090   6.312   1.579   4.259 -1.2473 -0.1809  0.0603
  138OSM    C1F15091   5.656   2.246   5.456 -0.0105 -0.2784 -0.4302
  138OSM     OF15092   5.770   2.230   5.487 -0.1974 -0.2147  0.3962
  138OSM    C2F15093   5.595   2.376   5.396 -0.2981 -0.2972 -0.4463
  138OSM    H2F15094   5.636   2.462   5.453  2.2118 -0.7985 -1.3748
  138OSM    H2G15095   5.485   2.385   5.407 -0.0716  1.6074  0.8879
  138OSM    C3F15096   5.626   2.388   5.243  0.2176 -0.6326 -0.1344
  138OSM    H3F15097   5.735   2.408   5.236  0.0661 -0.0877 -1.1071
  138OSM    H3G15098   5.586   2.480   5.197  0.7489 -0.6192 -0.5760
  138OSM    C4F15099   5.572   2.274   5.160  0.2953  0.1788 -1.1082
  138OSM    H4F15100   5.462   2.271   5.180  0.3928 -2.8291 -0.5501
  138OSM    H4G15101   5.612   2.177   5.197  1.3080  2.1623  3.7319
  138OSM    C5F15102   5.591   2.288   5.010  0.0666  0.0103  0.2163
  138OSM    H5F15103   5.536   2.378   4.979 -0.5168 -0.5523 -0.4117
  138OSM    H5G15104   5.550   2.201   4.954 -0.7734  0.3612  0.2685
  138OSM    C6F15105   5.731   2.310   4.948  0.0551 -0.1949 -0.4334
  138OSM    H6F15106   5.769   2.407   4.987  0.6725 -0.6559  0.1211
  138OSM    H6G15107   5.724   2.318   4.837 -4.0037  0.6427 -0.2475
  138OSM    C7F15108   5.833   2.199   4.962  0.2102  0.4404  0.5798
  138OSM    H7F15109   5.792   2.102   4.925 -1.0712  0.6866  1.2738
  138OSM    H7G15110   5.871   2.159   5.058  1.3117 -0.8138 -0.3454
  138OSM    C8F15111   5.963   2.246   4.896 -0.3976 -0.2344  0.1681
  138OSM    H8F15112   6.018   2.318   4.960 -0.4548 -2.0191  2.3230
  138OSM    H8G15113   5.940   2.320   4.815  0.6038  2.4406  2.1758
  138OSM    C9F15114   6.063   2.138   4.855 -0.1435 -0.3785  0.0578
  138OSM    H9F15115   6.103   2.073   4.934  0.2985 -0.1225  0.0468
  138OSM   C10F15116   6.113   2.120   4.726  0.8336  0.1891 -0.0170
  138OSM   H10F15117   6.180   2.035   4.704 -1.6292 -2.3654  1.6635
  138OSM   C11F15118   6.088   2.193   4.603  0.1118 -0.0976 -0.1004
  138OSM   H11F15119   5.987   2.238   4.592  1.0086  1.5212 -2.6160
  138OSM   H11G15120   6.109   2.132   4.513  1.3616  0.2122 -0.0403
  138OSM   C12F15121   6.187   2.310   4.604 -0.2774  0.4993 -0.3178
  138OSM   H12F15122   6.166   2.385   4.683  3.1041  3.0993 -1.5799
  138OSM   H12G15123   6.165   2.368   4.511 -0.2222 -0.1589 -0.7528
  138OSM   C13F15124   6.332   2.265   4.600 -0.5756  0.0322 -0.1498
  138OSM   H13F15125   6.358   2.207   4.691 -0.1008  1.6023  0.7529
  138OSM   H13G15126   6.392   2.358   4.610  0.1482 -0.3155 -1.0580
  138OSM   C14F15127   6.376   2.181   4.478 -0.8263 -0.4008 -0.3249
  138OSM   H14F15128   6.341   2.226   4.382 -1.0009  1.4546  0.5588
  138OSM   H14G15129   6.328   2.082   4.488 -1.2943 -0.0195  1.6004
  138OSM   C15F15130   6.533   2.164   4.470 -0.2323  0.2876  0.7180
  138OSM   H15F15131   6.554   2.069   4.525  2.1889  0.8099  0.8304
  138OSM   H15G15132   6.575   2.249   4.528 -0.4904  0.7780  0.1899
  138OSM   C16F15133   6.599   2.150   4.333  0.6603  0.2702 -0.3508
  138OSM   H16F15134   6.707   2.166   4.356  0.2202 -0.8637  3.0064
  138OSM   H16G15135   6.576   2.239   4.271  1.7326 -0.0513 -1.2459
  138OSM   C17F15136   6.566   2.018   4.261  0.1084 -0.4971  0.7143
  138OSM   H17F15137   6.465   2.022   4.216  0.8632 -0.2458 -1.0165
  138OSM   H17G15138   6.568   1.935   4.336  0.2997 -0.4773  0.7330
  138OSM   C18F15139   6.665   1.973   4.164  0.3407 -0.1917 -0.1421
  138OSM   H18F15140   6.762   1.959   4.217 -0.1262  0.6103  0.9612
  138OSM   H18G15141   6.678   2.050   4.084 -0.4067 -0.6688 -0.7378
  138OSM   H18H15142   6.634   1.878   4.117 -1.1933 -1.9439  3.9548
  139OSM      N15143   6.079   5.731   6.321  0.2572  0.6319 -0.2105
  139OSM    C1515144   6.023   5.835   6.411  0.2833  0.6476 -0.3820
  139OSM   H15A15145   6.029   5.933   6.368  0.2278  0.1926 -1.4663
  139OSM   H15B15146   6.080   5.832   6.502 -0.4521 -0.7479  0.0772
  139OSM   H15C15147   5.923   5.809   6.441 -0.2367  3.0196  0.1149
  139OSM    C1415148   6.102   5.602   6.391  0.8274  0.5996 -0.1750
  139OSM   H14A15149   6.126   5.523   6.322  1.0884  0.9515 -0.4927
  139OSM   H14B15150   6.009   5.578   6.440 -0.6721  2.9182 -1.6835
  139OSM   H14C15151   6.182   5.609   6.463  2.4221 -1.7282 -1.5991
  139OSM    C1315152   5.986   5.708   6.206  0.2644  0.3235 -0.2701
  139OSM   H13A15153   6.022   5.632   6.138 -1.3645 -1.4944  0.8004
  139OSM   H13B15154   5.967   5.797   6.148  2.9885  0.5780 -0.8828
  139OSM   H13C15155   5.896   5.665   6.247  1.3936  0.2748  2.3251
  139OSM    C1215156   6.204   5.787   6.259  0.0693  0.1142 -0.2734
  139OSM   H12A15157   6.181   5.882   6.213  0.5136  0.8283  0.9419
  139OSM   H12B15158   6.231   5.736   6.167  1.6980  0.4644 -0.0144
  139OSM    C1115159   6.328   5.799   6.351  0.2780 -0.2997  0.0533
  139OSM   H11A15160   6.350   5.691   6.366 -1.9582 -0.7081  0.8142
  139OSM   H11B15161   6.295   5.842   6.448  0.9771 -0.8075  0.5238
  139OSM      P15162   6.569   5.828   6.261  0.0157  0.1507 -0.1659
  139OSM    O1315163   6.656   5.933   6.199  0.4601 -0.1890  0.4582
  139OSM    O1415164   6.619   5.756   6.384  0.1560  0.3214 -0.3392
  139OSM    O1115165   6.542   5.709   6.162  0.2496  0.4859 -0.2858
  139OSM    O1215166   6.423   5.887   6.288 -0.4539  0.4377 -0.3101
  139OSM    C1S15167   6.500   5.729   6.027 -0.3624  0.6650  0.4446
  139OSM    H1S15168   6.589   5.765   5.972  0.8708 -1.8561  0.6541
  139OSM    H1T15169   6.413   5.798   6.019  0.1923  1.3795  0.5073
  139OSM     NF15170   6.386   5.625   5.829 -0.3815 -0.0853 -0.4847
  139OSM    HNF15171   6.288   5.609   5.825 -1.0244  1.2051  4.2278
  139OSM    C2S15172   6.440   5.597   5.958  0.3247 -0.8882 -0.5692
  139OSM    H2S15173   6.535   5.543   5.940  1.0765  0.6660 -1.5087
  139OSM    C3S15174   6.329   5.523   6.046  0.7188  0.8777 -0.2733
  139OSM    H3S15175   6.246   5.589   6.079 -0.3937 -0.8025  0.4355
  139OSM     O315176   6.382   5.478   6.175 -0.2277 -0.2871  0.1156
  139OSM    HO315177   6.433   5.555   6.203 -1.1645  0.2573  0.4021
  139OSM    C4S15178   6.282   5.396   5.971  0.4786 -0.1701  0.1193
  139OSM    H4S15179   6.360   5.326   5.938  0.2825  0.3934 -1.6462
  139OSM    C5S15180   6.159   5.376   5.910 -0.3337 -1.2285 -0.4170
  139OSM    H5S15181   6.080   5.452   5.917 -0.8826 -1.9094  1.2196
  139OSM    C6S15182   6.119   5.258   5.838 -0.0337  0.1301  0.8964
  139OSM    H6S15183   6.065   5.192   5.909 -0.4043  0.1325  0.6227
  139OSM    H6T15184   6.194   5.197   5.784 -0.3988 -0.0484  0.5794
  139OSM    C7S15185   6.010   5.296   5.732  0.4477 -0.0504 -0.4926
  139OSM    H7S15186   5.939   5.366   5.780  0.1825 -0.9549  0.4870
  139OSM    H7T15187   5.948   5.205   5.713 -1.5715  0.9735  0.8415
  139OSM    C8S15188   6.075   5.359   5.609 -0.5133 -0.1919 -0.1764
  139OSM    H8S15189   6.150   5.289   5.566 -0.0411 -0.6392  1.3181
  139OSM    H8T15190   6.145   5.437   5.645  1.3843 -1.5129 -0.8087
  139OSM    C9S15191   5.972   5.413   5.510  0.0338  0.2297 -0.2510
  139OSM    H9S15192   5.895   5.483   5.549  0.9311  0.5757  0.9463
  139OSM    H9T15193   5.908   5.338   5.457 -1.1953  1.4034 -0.4810
  139OSM   C10S15194   6.039   5.502   5.399  0.8766 -0.4117  0.1178
  139OSM   H10S15195   6.120   5.443   5.353 -0.2632 -0.7845 -1.4876
  139OSM   H10T15196   6.093   5.585   5.450  0.8077  0.0859 -0.5987
  139OSM   C11S15197   5.945   5.543   5.284  0.1310  0.6160 -0.0601
  139OSM   H11S15198   5.848   5.580   5.324 -0.7013 -0.3546 -1.1175
  139OSM   H11T15199   5.925   5.456   5.217 -0.9362  0.4225  0.4876
  139OSM   C12S15200   6.012   5.650   5.199 -0.0586 -0.6379  0.3218
  139OSM   H12S15201   6.085   5.607   5.127  1.5471  1.3536  0.6336
  139OSM   H12T15202   6.061   5.732   5.257  0.0532 -0.7429  0.3776
  139OSM   C13S15203   5.917   5.736   5.106 -0.5045  1.0620  0.2756
  139OSM   H13S15204   5.974   5.789   5.026  0.7410 -1.4578 -0.6191
  139OSM   H13T15205   5.844   5.806   5.150 -1.7141  1.5959 -2.3648
  139OSM   C14S15206   5.848   5.628   5.022 -0.1515  0.1308  0.1991
  139OSM   H14S15207   5.785   5.559   5.081 -1.6221  0.2517 -1.1573
  139OSM   H14T15208   5.917   5.548   4.986 -0.4569 -0.4029  0.7789
  139OSM   C15S15209   5.771   5.680   4.899 -0.0114 -0.2247 -0.1132
  139OSM   H15S15210   5.727   5.591   4.849 -2.3582  1.2008 -0.7677
  139OSM   H15T15211   5.841   5.728   4.827 -1.4010  0.0383 -1.3421
  139OSM   C16S15212   5.655   5.780   4.939 -0.2962 -0.6609 -0.0892
  139OSM   H16S15213   5.706   5.866   4.987  1.2328 -1.7757  0.3830
  139OSM   H16T15214   5.596   5.737   5.023 -0.3285  0.3844  0.4449
  139OSM   C17S15215   5.563   5.831   4.826 -0.4600  0.0907 -0.0939
  139OSM   H17S15216   5.629   5.867   4.745 -1.2032 -0.1236 -0.8102
  139OSM   H17T15217   5.499   5.911   4.871  0.0555 -0.3302  1.4707
  139OSM   C18S15218   5.473   5.715   4.783 -0.1667  0.3046  0.3189
  139OSM   H18S15219   5.446   5.652   4.871  1.2639 -0.6164  0.1348
  139OSM   H18T15220   5.516   5.640   4.713 -0.5616  0.6035 -0.2556
  139OSM   H18U15221   5.380   5.756   4.738 -0.2525  0.5180  0.6866
  139OSM    C1F15222   6.457   5.680   5.722 -0.3179  0.7959  0.5536
  139OSM     OF15223   6.573   5.718   5.738 -0.3026  0.0384 -0.2121
  139OSM    C2F15224   6.388   5.680   5.589  0.3227  0.1760 -0.6137
  139OSM    H2F15225   6.385   5.782   5.546  0.4169  0.0736 -0.8687
  139OSM    H2G15226   6.284   5.650   5.612  0.3298  0.6827  0.1195
  139OSM    C3F15227   6.452   5.579   5.493  0.7741  0.1867 -0.3775
  139OSM    H3F15228   6.417   5.474   5.508 -0.0334  0.7593  2.1548
  139OSM    H3G15229   6.563   5.579   5.501  1.1339  0.5495 -3.6767
  139OSM    C4F15230   6.436   5.613   5.344 -0.5699  0.3141 -0.6299
  139OSM    H4F15231   6.514   5.687   5.315  0.0647  0.0870  0.4316
  139OSM    H4G15232   6.349   5.675   5.315 -0.1839  0.4394 -1.5638
  139OSM    C5F15233   6.432   5.488   5.254 -0.0404 -0.4847 -0.0348
  139OSM    H5F15234   6.334   5.439   5.271  0.3276 -1.0159  0.6033
  139OSM    H5G15235   6.514   5.422   5.289  0.3132  0.4908  1.0608
  139OSM    C6F15236   6.473   5.524   5.106 -0.4668 -0.3698 -0.4450
  139OSM    H6F15237   6.527   5.433   5.073 -1.6450 -0.9003 -0.9458
  139OSM    H6G15238   6.546   5.608   5.110  0.2395 -0.9863  2.4654
  139OSM    C7F15239   6.357   5.550   5.005  0.2967 -0.3361 -0.4855
  139OSM    H7F15240   6.301   5.640   5.039 -1.0426 -0.9483 -1.0318
  139OSM    H7G15241   6.282   5.468   4.996  1.2749 -1.2939 -0.1445
  139OSM    C8F15242   6.409   5.578   4.866  0.2465  0.5487 -0.3409
  139OSM    H8F15243   6.450   5.481   4.830 -3.5435 -0.7091 -1.7622
  139OSM    H8G15244   6.499   5.643   4.875 -0.5850  1.6034  0.4441
  139OSM    C9F15245   6.313   5.647   4.770  0.8355  0.7037  0.2978
  139OSM    H9F15246   6.285   5.750   4.795  0.6698  1.1662 -1.6306
  139OSM   C10F15247   6.274   5.594   4.649 -0.2784 -0.0708 -0.8112
  139OSM   H10F15248   6.205   5.651   4.585 -0.1955  0.3374 -0.5455
  139OSM   C11F15249   6.309   5.452   4.609  0.0715 -0.3817 -0.0827
  139OSM   H11F15250   6.223   5.441   4.539  1.0475 -0.1090 -1.3615
  139OSM   H11G15251   6.322   5.387   4.699  1.7772  0.0927  0.0452
  139OSM   C12F15252   6.436   5.437   4.522 -0.0112  0.0986 -0.6304
  139OSM   H12F15253   6.439   5.326   4.509  0.7701  0.2743 -2.1365
  139OSM   H12G15254   6.520   5.479   4.580  2.0872 -3.4634 -0.8144
  139OSM   C13F15255   6.430   5.500   4.386  0.1272 -0.1725 -0.2272
  139OSM   H13F15256   6.525   5.557   4.383  1.2874 -1.8075  2.3559
  139OSM   H13G15257   6.344   5.567   4.360  0.4243 -0.6267 -2.6205
  139OSM   C14F15258   6.429   5.400   4.269  0.6648 -0.5434  0.5556
  139OSM   H14F15259   6.332   5.346   4.272 -0.9704  2.0601 -1.3191
  139OSM   H14G15260   6.513   5.328   4.284  0.5122 -0.7706  0.3119
  139OSM   C15F15261   6.442   5.468   4.130  0.1678  0.3832 -0.6778
  139OSM   H15F15262   6.448   5.386   4.055 -0.9224  0.7589 -1.1994
  139OSM   H15G15263   6.533   5.530   4.121  0.2196  0.4422  0.1312
  139OSM   C16F15264   6.318   5.536   4.066 -0.5006  0.2628 -0.6822
  139OSM   H16F15265   6.315   5.640   4.104  3.2526 -0.3690  1.9631
  139OSM   H16G15266   6.225   5.483   4.093 -1.3591  2.2098  0.3978
  139OSM   C17F15267   6.329   5.536   3.914  0.5049 -0.6727  0.0569
  139OSM   H17F15268   6.235   5.581   3.875  1.8830 -1.0753 -4.1532
  139OSM   H17G15269   6.324   5.434   3.872 -0.1521 -0.6564  0.0796
  139OSM   C18F15270   6.435   5.633   3.860 -0.0598  0.6309 -0.5879
  139OSM   H18F15271   6.438   5.653   3.751  0.5894 -1.5792 -1.0119
  139OSM   H18G15272   6.535   5.594   3.887 -1.2838 -3.3121 -1.1074
  139OSM   H18H15273   6.437   5.726   3.921  1.3445  0.6167 -0.5763
  140OSM      N15274   1.162   1.542   6.501  0.1963  0.2075  0.1801
  140OSM    C1515275   1.228   1.676   6.475  0.1322  0.7737 -0.1811
  140OSM   H15A15276   1.333   1.671   6.497 -0.1381  0.7445  1.1837
  140OSM   H15B15277   1.187   1.755   6.536  0.9115  0.2685  1.0305
  140OSM   H15C15278   1.219   1.696   6.370 -2.1475 -0.0824 -0.2065
  140OSM    C1415279   1.178   1.512   6.647  0.4840  0.1189  0.0086
  140OSM   H14A15280   1.145   1.601   6.698 -0.9178  0.7223 -1.8372
  140OSM   H14B15281   1.281   1.496   6.677  0.3890  0.7006  0.6751
  140OSM   H14C15282   1.119   1.425   6.672  1.0438 -1.0481 -2.3963
  140OSM    C1315283   1.013   1.565   6.477  0.9696  0.0164  0.3699
  140OSM   H13A15284   0.956   1.473   6.482  0.8638  0.0637  0.0423
  140OSM   H13B15285   0.992   1.607   6.380 -0.2243 -0.9202  0.1944
  140OSM   H13C15286   0.972   1.637   6.547  0.7529  0.0743  0.1824
  140OSM    C1215287   1.212   1.428   6.416 -0.1880 -0.2488  0.1004
  140OSM   H12A15288   1.148   1.343   6.439  0.4454 -1.0142 -0.9106
  140OSM   H12B15289   1.314   1.412   6.446  0.0242  3.1415  1.7033
  140OSM    C1115290   1.205   1.455   6.265 -0.4232 -0.0671 -0.8039
  140OSM   H11A15291   1.099   1.473   6.237 -1.1645 -2.0836  0.5414
  140OSM   H11B15292   1.227   1.359   6.215  1.3504  0.3357 -0.8640
  140OSM      P15293   1.437   1.559   6.221 -0.5102  0.2099 -0.0068
  140OSM    O1315294   1.485   1.694   6.244 -0.4373  0.4875 -0.2601
  140OSM    O1415295   1.482   1.446   6.310  0.2635 -0.4078 -0.1004
  140OSM    O1115296   1.474   1.530   6.073  0.3874  0.4347  0.1558
  140OSM    O1215297   1.274   1.565   6.216  0.5353  0.0761  0.0262
  140OSM    C1S15298   1.476   1.394   6.019  0.3371  0.0722 -0.0713
  140OSM    H1S15299   1.375   1.348   6.026 -0.0875  1.1001  0.9250
  140OSM    H1T15300   1.551   1.331   6.071 -0.1056 -0.3934  0.0019
  140OSM     NF15301   1.491   1.251   5.815  0.5858 -0.0074 -0.0645
  140OSM    HNF15302   1.572   1.194   5.803 -0.2967 -1.0508 -1.2930
  140OSM    C2S15303   1.513   1.388   5.862 -0.3707 -0.1224 -0.2083
  140OSM    H2S15304   1.443   1.455   5.808 -1.1910  0.9559  2.0531
  140OSM    C3S15305   1.657   1.448   5.837 -0.3811 -0.0382  0.1335
  140OSM    H3S15306   1.735   1.377   5.870  0.3960  1.1674  0.9959
  140OSM     O315307   1.698   1.572   5.902  0.5829  0.2472  0.2500
  140OSM    HO315308   1.625   1.611   5.952  0.8011  0.5691  0.3199
  140OSM    C4S15309   1.685   1.454   5.684  0.1863  0.2730 -0.1282
  140OSM    H4S15310   1.739   1.368   5.641 -0.6699 -0.0149 -0.6543
  140OSM    C5S15311   1.662   1.559   5.604  0.5512  0.4006 -0.4539
  140OSM    H5S15312   1.615   1.649   5.646 -0.1084 -0.7600  1.4728
  140OSM    C6S15313   1.701   1.571   5.461 -0.0942  0.2199  0.7321
  140OSM    H6S15314   1.767   1.659   5.446  2.9485 -2.0751 -0.4560
  140OSM    H6T15315   1.612   1.576   5.396 -1.5364 -4.6159  1.9365
  140OSM    C7S15316   1.774   1.449   5.399 -0.0765  0.3066  0.3182
  140OSM    H7S15317   1.708   1.362   5.416 -1.8496  1.1436 -1.7915
  140OSM    H7T15318   1.868   1.424   5.452  0.8462  0.5922 -1.1382
  140OSM    C8S15319   1.799   1.449   5.253 -0.8544  0.2035  0.0575
  140OSM    H8S15320   1.744   1.360   5.216 -1.0575  0.6555 -0.7494
  140OSM    H8T15321   1.907   1.435   5.228 -0.7838  1.7409 -0.6184
  140OSM    C9S15322   1.759   1.576   5.168  0.1217 -1.1950  0.3161
  140OSM    H9S15323   1.792   1.665   5.225  0.0086 -1.2858  0.5257
  140OSM    H9T15324   1.651   1.593   5.145  0.3987  0.5210  0.1535
  140OSM   C10S15325   1.832   1.581   5.034  0.3936 -1.0516 -0.0859
  140OSM   H10S15326   1.942   1.590   5.045  0.1770 -0.4839  1.8324
  140OSM   H10T15327   1.795   1.677   4.992 -0.2125 -1.2884 -0.0976
  140OSM   C11S15328   1.802   1.462   4.937  0.3737 -1.0518 -0.0582
  140OSM   H11S15329   1.700   1.422   4.954  0.6331 -1.9920 -0.6088
  140OSM   H11T15330   1.862   1.371   4.962 -0.4099 -1.3923  0.6197
  140OSM   C12S15331   1.824   1.494   4.783 -0.6520  0.0510 -0.0136
  140OSM   H12S15332   1.861   1.401   4.736  0.8099  0.2064  0.7589
  140OSM   H12T15333   1.915   1.557   4.774  1.5149 -2.6170  1.4934
  140OSM   C13S15334   1.698   1.533   4.699 -0.8698  0.1270  0.0437
  140OSM   H13S15335   1.667   1.627   4.750  0.0609 -0.5836  2.0279
  140OSM   H13T15336   1.624   1.452   4.715 -1.0904  0.5575  1.3331
  140OSM   C14S15337   1.726   1.548   4.551 -0.5316  0.4520  0.6647
  140OSM   H14S15338   1.762   1.449   4.516 -0.0619  0.7878  0.1795
  140OSM   H14T15339   1.799   1.628   4.525  0.5877 -0.6534  0.3200
  140OSM   C15S15340   1.601   1.584   4.470 -0.5485  0.2870 -0.2848
  140OSM   H15S15341   1.575   1.691   4.481 -1.4568  0.0029  0.4463
  140OSM   H15T15342   1.525   1.527   4.527  2.3536 -1.5278  2.0641
  140OSM   C16S15343   1.594   1.547   4.319 -0.4067 -0.6047 -0.4322
  140OSM   H16S15344   1.606   1.436   4.313 -0.5487 -0.6070 -0.6748
  140OSM   H16T15345   1.677   1.596   4.263 -1.9879  2.6741 -0.1320
  140OSM   C17S15346   1.468   1.583   4.238 -0.0652  0.3824 -0.2944
  140OSM   H17S15347   1.454   1.693   4.241 -0.7293  0.3082 -0.4283
  140OSM   H17T15348   1.384   1.531   4.289 -0.2007  0.8343 -0.0454
  140OSM   C18S15349   1.470   1.540   4.091  0.1605  0.4087  0.6042
  140OSM   H18S15350   1.487   1.431   4.098 -3.1941 -0.2893 -0.3769
  140OSM   H18T15351   1.549   1.591   4.032  3.0222 -0.6790  3.1740
  140OSM   H18U15352   1.368   1.543   4.049  0.1294 -0.3780  0.6060
  140OSM    C1F15353   1.371   1.198   5.786 -0.6184  0.0360  1.0628
  140OSM     OF15354   1.264   1.235   5.829  0.2832 -0.3317  0.0757
  140OSM    C2F15355   1.376   1.085   5.692 -0.6774  0.9200 -0.2726
  140OSM    H2F15356   1.278   1.040   5.664  0.0460 -1.0129  0.1717
  140OSM    H2G15357   1.433   1.005   5.743 -0.5529  1.2585  0.1183
  140OSM    C3F15358   1.454   1.131   5.557 -0.4701 -0.0456 -0.0547
  140OSM    H3F15359   1.476   1.030   5.518 -2.2640 -1.4350  2.3279
  140OSM    H3G15360   1.553   1.177   5.581 -0.8303  0.5992  0.2258
  140OSM    C4F15361   1.372   1.220   5.460  0.1705  0.5528  1.0325
  140OSM    H4F15362   1.358   1.314   5.517 -1.0920  2.3717 -2.0168
  140OSM    H4G15363   1.269   1.184   5.438  0.9856 -1.7418  0.6509
  140OSM    C5F15364   1.433   1.259   5.326 -0.2733  1.3530 -0.1722
  140OSM    H5F15365   1.471   1.169   5.274 -2.0385 -0.6480  1.7997
  140OSM    H5G15366   1.521   1.323   5.350  0.6689 -0.4494  1.5346
  140OSM    C6F15367   1.347   1.358   5.239  0.8140  0.1916 -0.3652
  140OSM    H6F15368   1.334   1.448   5.303  1.0208  0.3698 -0.5703
  140OSM    H6G15369   1.248   1.311   5.220 -0.1230  0.4884  3.1530
  140OSM    C7F15370   1.414   1.393   5.101 -0.1512  0.4369 -0.1975
  140OSM    H7F15371   1.430   1.291   5.061  1.8009  0.2500  0.9088
  140OSM    H7G15372   1.517   1.432   5.118  0.5992 -1.1360 -0.9260
  140OSM    C8F15373   1.340   1.493   5.012  0.5929 -0.7169  0.2020
  140OSM    H8F15374   1.370   1.589   5.059  1.8717 -1.5007  1.0377
  140OSM    H8G15375   1.230   1.473   5.011  0.0032  2.1659  0.0696
  140OSM    C9F15376   1.385   1.473   4.872  0.1988 -0.5933  0.4476
  140OSM    H9F15377   1.492   1.489   4.849  0.0967 -0.2462  0.2070
  140OSM   C10F15378   1.308   1.454   4.763 -0.6053  0.6765  0.4998
  140OSM   H10F15379   1.371   1.443   4.674  0.6212 -1.1094  1.5092
  140OSM   C11F15380   1.157   1.421   4.751 -0.8365 -0.5150  0.0097
  140OSM   H11F15381   1.111   1.490   4.676 -0.7264  0.2322  0.6175
  140OSM   H11G15382   1.106   1.420   4.850  0.8168  0.9690  0.9344
  140OSM   C12F15383   1.124   1.283   4.689 -0.0369 -0.0380 -0.2209
  140OSM   H12F15384   1.019   1.252   4.712  0.0685 -1.4200 -1.4806
  140OSM   H12G15385   1.191   1.210   4.738 -1.2456 -0.8603  0.2468
  140OSM   C13F15386   1.126   1.280   4.540 -0.3882  0.5007  0.0371
  140OSM   H13F15387   1.214   1.329   4.493 -0.5022  1.0536  0.3977
  140OSM   H13G15388   1.040   1.334   4.495 -0.3331  0.2702 -0.3517
  140OSM   C14F15389   1.117   1.130   4.502 -0.3668 -0.1098  0.4634
  140OSM   H14F15390   1.038   1.079   4.561 -1.4904  1.9291  0.8073
  140OSM   H14G15391   1.209   1.077   4.535 -0.0384  1.2240  1.7784
  140OSM   C15F15392   1.084   1.109   4.351 -0.1478  0.8812  0.4489
  140OSM   H15F15393   1.166   1.153   4.290 -0.1731 -0.4868 -0.6380
  140OSM   H15G15394   0.982   1.145   4.326 -3.1088 -5.6311  0.9683
  140OSM   C16F15395   1.065   0.954   4.329 -0.0549  0.3430  0.4170
  140OSM   H16F15396   1.002   0.943   4.238 -0.4680  0.4080  0.6928
  140OSM   H16G15397   1.005   0.924   4.418 -0.6549  0.5441  0.0861
  140OSM   C17F15398   1.200   0.886   4.318 -0.5894 -0.1532  0.3527
  140OSM   H17F15399   1.259   0.924   4.404 -3.3246  3.0923  1.0092
  140OSM   H17G15400   1.251   0.910   4.222 -1.0947 -3.5765 -0.9020
  140OSM   C18F15401   1.199   0.736   4.321 -0.9752 -1.0946 -0.4203
  140OSM   H18F15402   1.131   0.701   4.241 -0.9517 -0.5536 -0.6788
  140OSM   H18G15403   1.167   0.694   4.419  0.1839 -1.9790 -0.3900
  140OSM   H18H15404   1.299   0.691   4.301 -0.2206 -0.4173  1.6045
  141OSM      N15405   6.877   3.448   6.223  0.2888  0.2045 -0.2736
  141OSM    C1515406   6.907   3.543   6.111 -0.3846 -0.1697  0.7075
  141OSM   H15A15407   7.006   3.586   6.111  0.3775 -1.3220 -4.5169
  141OSM   H15B15408   6.832   3.621   6.103 -1.3024 -1.1166 -0.3961
  141OSM   H15C15409   6.893   3.497   6.015  0.4105  3.1457 -1.1426
  141OSM    C1415410   6.905   3.498   6.358  0.0497  0.0270  0.9100
  141OSM   H14A15411   6.829   3.569   6.387  0.2615  1.0450 -0.8396
  141OSM   H14B15412   6.998   3.553   6.362  1.8265 -2.8129  1.6811
  141OSM   H14C15413   6.915   3.414   6.424  0.3004 -3.0934 -2.7228
  141OSM    C1315414   6.732   3.412   6.223 -0.0557  0.2264 -0.1980
  141OSM   H13A15415   6.706   3.332   6.291 -0.6314 -0.1114 -0.7989
  141OSM   H13B15416   6.704   3.384   6.122 -0.5839  0.1848 -0.0390
  141OSM   H13C15417   6.670   3.492   6.259  1.6500  2.0462 -1.1488
  141OSM    C1215418   6.972   3.330   6.206 -1.0995 -0.5317 -0.7847
  141OSM   H12A15419   6.946   3.254   6.279 -0.6994  0.3895  0.3496
  141OSM   H12B15420   7.070   3.362   6.239 -1.9547  0.7453  0.6690
  141OSM    C1115421   7.000   3.271   6.064 -0.8138  0.1223  0.6708
  141OSM   H11A15422   7.062   3.341   6.004  1.1907 -1.8414  0.3075
  141OSM   H11B15423   6.910   3.250   6.001 -0.0311  0.8791 -0.7400
  141OSM      P15424   7.217   3.124   6.066 -0.0770 -0.1472  0.1086
  141OSM    O1315425   7.290   3.216   6.152  0.1315 -0.9421  0.2179
  141OSM    O1415426   7.245   2.977   6.083 -0.1988  0.3039 -0.0768
  141OSM    O1115427   7.248   3.171   5.921  0.5664  0.3128  0.5349
  141OSM    O1215428   7.065   3.147   6.084 -0.0733 -0.9466  0.7542
  141OSM    C1S15429   7.176   3.115   5.815 -0.4014  0.0819  0.4550
  141OSM    H1S15430   7.082   3.171   5.793  0.3675  0.9332 -0.7827
  141OSM    H1T15431   7.144   3.009   5.822 -0.6860  0.0199 -1.3358
  141OSM     NF15432   7.183   3.068   5.574  0.0761 -0.3471 -0.0622
  141OSM    HNF15433   7.197   2.977   5.535  0.7492  0.3604 -1.5638
  141OSM    C2S15434   7.264   3.114   5.683 -0.1308 -0.2689 -0.4638
  141OSM    H2S15435   7.293   3.219   5.663 -2.5379  0.2465 -1.6608
  141OSM    C3S15436   7.395   3.030   5.698  0.0770  0.9702  0.2323
  141OSM    H3S15437   7.361   2.926   5.721  0.0746  1.2304  1.4506
  141OSM     O315438   7.481   3.071   5.805 -0.3560  0.4476  0.2847
  141OSM    HO315439   7.431   3.136   5.854  1.6967  0.9411  1.8591
  141OSM    C4S15440   7.480   3.036   5.574  0.8260  0.2247 -0.3221
  141OSM    H4S15441   7.515   3.140   5.562  1.4093  0.4613  2.6011
  141OSM    C5S15442   7.513   2.936   5.492 -0.4402 -0.0366  0.1692
  141OSM    H5S15443   7.477   2.834   5.513 -0.1085 -0.5776 -1.6800
  141OSM    C6S15444   7.611   2.944   5.379 -0.0035 -0.2351  0.0712
  141OSM    H6S15445   7.679   2.858   5.393 -1.2729 -1.3037 -0.1268
  141OSM    H6T15446   7.669   3.039   5.369 -2.7683  1.6629  0.7650
  141OSM    C7S15447   7.535   2.922   5.243 -0.4942  0.2722  0.1077
  141OSM    H7S15448   7.475   2.829   5.256 -2.4634  1.5362  0.3646
  141OSM    H7T15449   7.616   2.905   5.169 -1.0107  3.2662 -1.2988
  141OSM    C8S15450   7.455   3.045   5.195  0.4012 -0.5324 -0.1438
  141OSM    H8S15451   7.503   3.145   5.205  1.4129 -1.1477  1.5137
  141OSM    H8T15452   7.373   3.055   5.269  1.3775  2.1461  0.7012
  141OSM    C9S15453   7.395   3.034   5.051 -0.6603  0.0723  0.4991
  141OSM    H9S15454   7.373   3.140   5.022  1.0490  0.4879  0.6166
  141OSM    H9T15455   7.296   2.983   5.055  0.6194 -2.5732  0.5154
  141OSM   C10S15456   7.496   2.978   4.945  0.5441 -0.2748 -0.5978
  141OSM   H10S15457   7.536   2.878   4.973  0.3042 -0.9313 -2.4420
  141OSM   H10T15458   7.582   3.046   4.926  0.0419  0.3362 -0.7128
  141OSM   C11S15459   7.421   2.964   4.814  0.1197 -0.4015  0.7658
  141OSM   H11S15460   7.363   3.051   4.775  0.9545 -0.3186 -0.3627
  141OSM   H11T15461   7.339   2.892   4.833  0.4246 -0.7585  0.7452
  141OSM   C12S15462   7.508   2.909   4.701  0.3221 -0.3048  0.0426
  141OSM   H12S15463   7.551   2.810   4.729 -0.4527 -0.9234 -0.8813
  141OSM   H12T15464   7.589   2.985   4.692  0.2993 -0.5029 -3.1063
  141OSM   C13S15465   7.436   2.903   4.569 -0.5132 -0.3283  0.3337
  141OSM   H13S15466   7.417   3.009   4.541  2.1389  0.4614  1.2155
  141OSM   H13T15467   7.339   2.852   4.578 -1.1225  0.6822 -0.2668
  141OSM   C14S15468   7.515   2.834   4.454  0.1159 -0.1065 -0.4057
  141OSM   H14S15469   7.513   2.723   4.468 -4.0480 -0.2243 -0.6647
  141OSM   H14T15470   7.620   2.870   4.459  0.5323 -1.1927 -0.9077
  141OSM   C15S15471   7.470   2.866   4.309  0.5254  0.1299  0.1680
  141OSM   H15S15472   7.451   2.976   4.302 -0.0679  0.2175  2.2931
  141OSM   H15T15473   7.376   2.811   4.288 -0.3298  1.8944 -0.8867
  141OSM   C16S15474   7.562   2.823   4.200 -0.9648 -0.5569  0.5962
  141OSM   H16S15475   7.603   2.720   4.207  0.9935  0.1785  0.6775
  141OSM   H16T15476   7.656   2.883   4.197 -0.9090 -0.6192 -2.6921
  141OSM   C17S15477   7.503   2.847   4.061  0.8382 -0.5078  0.5933
  141OSM   H17S15478   7.523   2.953   4.036  2.6959 -1.3059 -1.6542
  141OSM   H17T15479   7.396   2.817   4.061  1.5556 -3.7072 -2.2065
  141OSM   C18S15480   7.556   2.759   3.945 -0.5942  0.1799 -0.0168
  141OSM   H18S15481   7.519   2.789   3.845 -1.8866  0.3322  0.4864
  141OSM   H18T15482   7.538   2.652   3.966  2.9320 -0.8988 -1.7674
  141OSM   H18U15483   7.667   2.764   3.942 -0.5407  0.1466  1.2289
  141OSM    C1F15484   7.081   3.131   5.533  0.4671 -0.3587 -0.0730
  141OSM     OF15485   7.062   3.252   5.565  0.1510 -0.2904  0.1368
  141OSM    C2F15486   6.985   3.072   5.436  1.1429  0.2291 -0.2224
  141OSM    H2F15487   6.885   3.111   5.463  1.0770 -2.0624  3.5753
  141OSM    H2G15488   6.983   2.960   5.437 -0.2988  0.2350 -0.4974
  141OSM    C3F15489   7.014   3.125   5.292 -0.0105 -0.2030  0.1200
  141OSM    H3F15490   7.094   3.064   5.244 -0.6516  1.1592 -2.9326
  141OSM    H3G15491   7.046   3.231   5.281 -2.7241  1.0714  2.9938
  141OSM    C4F15492   6.895   3.096   5.197 -0.4400 -1.0713  1.1127
  141OSM    H4F15493   6.810   3.160   5.231  0.0348 -1.7759  3.9153
  141OSM    H4G15494   6.865   2.992   5.222 -3.2879 -0.9479 -1.2338
  141OSM    C5F15495   6.932   3.116   5.045  0.4490 -0.0202 -0.0468
  141OSM    H5F15496   6.991   3.026   5.018 -1.0354 -1.0177 -0.0654
  141OSM    H5G15497   6.985   3.214   5.041  0.1314  0.1213 -0.9322
  141OSM    C6F15498   6.808   3.134   4.955 -0.1025  0.8692 -0.5756
  141OSM    H6F15499   6.817   3.220   4.885 -0.3292 -0.2231 -2.0045
  141OSM    H6G15500   6.724   3.154   5.024  1.7535 -0.1719  2.1922
  141OSM    C7F15501   6.792   3.004   4.880 -0.0170  0.0841 -0.0603
  141OSM    H7F15502   6.766   2.919   4.948 -0.0550  0.4924  0.4452
  141OSM    H7G15503   6.887   2.977   4.829 -1.1768 -1.6061 -1.4335
  141OSM    C8F15504   6.676   3.005   4.784  0.3360  0.3900  0.0578
  141OSM    H8F15505   6.584   3.010   4.846  0.3015 -0.4928  0.0871
  141OSM    H8G15506   6.662   2.904   4.741  1.9101  0.6948 -1.2691
  141OSM    C9F15507   6.676   3.109   4.676 -0.0935  0.8820 -0.4464
  141OSM    H9F15508   6.623   3.201   4.704  0.6826  1.1568  0.1567
  141OSM   C10F15509   6.749   3.106   4.562  0.0496 -0.3879 -0.8784
  141OSM   H10F15510   6.730   3.176   4.479  1.8715 -2.7129 -3.4578
  141OSM   C11F15511   6.829   2.992   4.527 -0.9852  0.2945  0.8636
  141OSM   H11F15512   6.834   2.914   4.606  1.7138 -1.1109 -0.5312
  141OSM   H11G15513   6.936   3.018   4.514 -1.3169  1.9468  1.3023
  141OSM   C12F15514   6.782   2.921   4.398 -0.6815  0.1162 -0.0821
  141OSM   H12F15515   6.831   2.974   4.314 -0.0987 -2.2449 -1.3318
  141OSM   H12G15516   6.672   2.913   4.392 -0.5412 -0.9092 -2.0190
  141OSM   C13F15517   6.828   2.775   4.392  0.5173  0.4170 -0.5866
  141OSM   H13F15518   6.800   2.736   4.291 -0.2388 -1.7600  0.3923
  141OSM   H13G15519   6.768   2.716   4.464  0.6728 -0.1562 -0.9184
  141OSM   C14F15520   6.978   2.761   4.439  0.0056  1.0459 -0.1396
  141OSM   H14F15521   6.987   2.743   4.548 -1.6825 -0.9210 -0.2565
  141OSM   H14G15522   7.045   2.844   4.408 -0.7286  1.4337 -0.7449
  141OSM   C15F15523   7.052   2.645   4.357  0.2333  0.1248  0.0557
  141OSM   H15F15524   7.002   2.547   4.373 -1.2074  0.8953  0.4704
  141OSM   H15G15525   7.148   2.638   4.412 -0.9704 -1.5841  2.1051
  141OSM   C16F15526   7.063   2.671   4.206 -0.4290 -0.0353 -0.7332
  141OSM   H16F15527   7.093   2.778   4.206 -1.9875  0.4798  1.7505
  141OSM   H16G15528   6.965   2.647   4.160 -0.9445 -1.2726  0.9067
  141OSM   C17F15529   7.172   2.606   4.132  0.4748  0.2607 -0.1877
  141OSM   H17F15530   7.269   2.649   4.165 -0.3459  0.7849  1.6528
  141OSM   H17G15531   7.171   2.645   4.027 -2.5600 -2.2769 -1.2574
  141OSM   C18F15532   7.159   2.455   4.120  0.2292 -0.3464 -0.3128
  141OSM   H18F15533   7.238   2.410   4.057  0.4097  0.1399 -0.4395
  141OSM   H18G15534   7.064   2.420   4.075  0.2119 -0.0530 -0.5066
  141OSM   H18H15535   7.171   2.418   4.224  0.3199  1.4379  0.3553
  142OSM      N15536   5.938   1.126   6.492 -0.3134  0.2621  0.2329
  142OSM    C1515537   5.953   0.979   6.534 -0.3379  0.1648  0.1909
  142OSM   H15A15538   6.008   0.935   6.453  1.2697  1.0495  0.7603
  142OSM   H15B15539   5.855   0.938   6.551 -0.1111 -0.1096  0.8718
  142OSM   H15C15540   6.019   0.963   6.618 -2.1787 -0.4714  1.5902
  142OSM    C1415541   5.817   1.137   6.402 -0.3389 -0.1098 -0.3186
  142OSM   H14A15542   5.732   1.097   6.455 -0.4041  2.8970  2.1872
  142OSM   H14B15543   5.841   1.071   6.320 -2.7113  2.5658 -3.4931
  142OSM   H14C15544   5.803   1.238   6.364  1.8479  0.2884 -0.2252
  142OSM    C1315545   5.906   1.214   6.606  0.0905 -0.6208  0.0877
  142OSM   H13A15546   5.833   1.175   6.675  1.9802 -2.4854  1.1263
  142OSM   H13B15547   5.867   1.308   6.569 -0.0770 -1.1594 -1.1264
  142OSM   H13C15548   5.994   1.230   6.666 -1.0701  0.1559  1.6613
  142OSM    C1215549   6.064   1.178   6.419  0.0290 -0.0190 -0.0313
  142OSM   H12A15550   6.076   1.117   6.331  2.5685  0.6845 -0.2430
  142OSM   H12B15551   6.152   1.166   6.481 -0.2679  0.7642  0.5657
  142OSM    C1115552   6.068   1.317   6.359  0.5487  0.0727 -0.1480
  142OSM   H11A15553   6.178   1.328   6.348  0.8041  1.1941  2.7291
  142OSM   H11B15554   6.040   1.400   6.429 -2.6448 -0.6541 -0.4056
  142OSM      P15555   5.894   1.424   6.190  0.0991  0.2262  0.1348
  142OSM    O1315556   5.780   1.435   6.287 -0.1573  0.0343  0.1888
  142OSM    O1415557   5.966   1.553   6.169 -0.0675  0.0274  0.2894
  142OSM    O1115558   5.855   1.358   6.056  0.1969  0.3044 -0.0036
  142OSM    O1215559   5.998   1.313   6.239  0.6342 -0.7326 -0.5336
  142OSM    C1S15560   5.918   1.395   5.934 -0.0682  0.2957  0.8015
  142OSM    H1S15561   6.028   1.388   5.943  0.2098  2.8297  0.3035
  142OSM    H1T15562   5.906   1.504   5.914 -1.6301  0.8029  3.9009
  142OSM     NF15563   5.930   1.361   5.690 -0.4245 -0.4349 -0.0657
  142OSM    HNF15564   5.887   1.433   5.636 -0.7599 -0.8656 -0.3818
  142OSM    C2S15565   5.845   1.334   5.806  1.2878  0.0035 -0.0314
  142OSM    H2S15566   5.849   1.223   5.806  0.1692 -0.0463 -0.6890
  142OSM    C3S15567   5.701   1.379   5.791 -0.5415  0.0347 -0.3133
  142OSM    H3S15568   5.696   1.490   5.797 -1.7087 -0.0303  0.0828
  142OSM     O315569   5.617   1.324   5.886  0.4228 -0.1384 -0.1665
  142OSM    HO315570   5.673   1.293   5.958  1.5205 -0.0394 -0.9591
  142OSM    C4S15571   5.661   1.326   5.653  0.2286  0.5667  0.5105
  142OSM    H4S15572   5.646   1.218   5.644  1.5260  0.5180 -1.7536
  142OSM    C5S15573   5.633   1.407   5.556 -0.1135  0.6220 -0.4608
  142OSM    H5S15574   5.648   1.515   5.569  0.6498  0.4248  0.3895
  142OSM    C6S15575   5.595   1.369   5.414  1.1389  0.1276  0.0410
  142OSM    H6S15576   5.491   1.403   5.395  0.2462 -0.8318  2.7519
  142OSM    H6T15577   5.594   1.258   5.407 -0.8846 -0.1835  3.1126
  142OSM    C7S15578   5.695   1.425   5.316 -0.5491 -0.3170  0.0884
  142OSM    H7S15579   5.800   1.393   5.335 -0.6858  0.0558  1.5861
  142OSM    H7T15580   5.700   1.536   5.316 -1.5655 -0.2579 -0.5256
  142OSM    C8S15581   5.661   1.387   5.171  0.0359  0.2758 -0.9732
  142OSM    H8S15582   5.576   1.445   5.129  0.1588 -0.0795 -1.7364
  142OSM    H8T15583   5.642   1.278   5.165 -0.6085  0.0652  2.7432
  142OSM    C9S15584   5.779   1.425   5.078 -0.3607 -0.0240  0.2309
  142OSM    H9S15585   5.869   1.366   5.104  0.9642  2.6609  2.1481
  142OSM    H9T15586   5.810   1.532   5.079  0.5049 -0.2068 -2.0456
  142OSM   C10S15587   5.749   1.391   4.930 -0.7186  0.0500  0.4855
  142OSM   H10S15588   5.682   1.469   4.887  1.4438  2.3090  0.9913
  142OSM   H10T15589   5.710   1.287   4.921 -1.0677 -0.1844  3.6457
  142OSM   C11S15590   5.877   1.393   4.846  0.2214  0.6869 -0.6528
  142OSM   H11S15591   5.941   1.312   4.887 -1.0433  1.4809  3.4236
  142OSM   H11T15592   5.928   1.490   4.861  0.8185  0.4229 -0.9789
  142OSM   C12S15593   5.858   1.346   4.698  0.1544  0.5441  0.2897
  142OSM   H12S15594   5.823   1.240   4.704 -4.0161  1.7815  4.0071
  142OSM   H12T15595   5.949   1.346   4.634 -0.1572 -1.6015 -0.2417
  142OSM   C13S15596   5.745   1.428   4.627 -0.7321 -0.7072  0.1413
  142OSM   H13S15597   5.756   1.535   4.655  0.5952 -0.7372 -0.2081
  142OSM   H13T15598   5.648   1.385   4.660 -1.4271 -0.3969 -1.4023
  142OSM   C14S15599   5.748   1.415   4.483 -0.3465 -0.4675  0.3908
  142OSM   H14S15600   5.762   1.308   4.458  2.4863 -0.2794  0.7773
  142OSM   H14T15601   5.841   1.462   4.442 -0.3410 -1.0753 -0.3149
  142OSM   C15S15602   5.634   1.492   4.415 -0.3372 -0.1493 -0.2647
  142OSM   H15S15603   5.630   1.583   4.478 -1.9504 -0.9078  0.7852
  142OSM   H15T15604   5.535   1.448   4.440 -0.3818 -0.0608 -0.2856
  142OSM   C16S15605   5.645   1.521   4.262  0.1632 -0.0862  0.7555
  142OSM   H16S15606   5.746   1.564   4.244  0.1200 -0.5633 -0.7709
  142OSM   H16T15607   5.568   1.598   4.241  0.3999  0.0395  0.3552
  142OSM   C17S15608   5.636   1.390   4.174  0.2635 -0.2239 -0.2751
  142OSM   H17S15609   5.528   1.365   4.180  0.2859  0.0527  2.6352
  142OSM   H17T15610   5.703   1.316   4.222  1.7363  0.4086 -1.2722
  142OSM   C18S15611   5.685   1.408   4.031 -0.2289 -0.3689 -0.4232
  142OSM   H18S15612   5.784   1.360   4.020 -0.8461 -1.3089 -2.2675
  142OSM   H18T15613   5.691   1.516   4.004  2.2589 -0.1889  0.6030
  142OSM   H18U15614   5.614   1.352   3.966 -2.7867  0.7433  1.2083
  142OSM    C1F15615   6.057   1.318   5.677 -0.3624 -0.2712  0.3412
  142OSM     OF15616   6.095   1.222   5.747 -0.2137 -0.3302 -0.0591
  142OSM    C2F15617   6.152   1.379   5.581  0.0572  0.2166 -0.0343
  142OSM    H2F15618   6.255   1.350   5.609  0.2678 -0.9235 -1.8220
  142OSM    H2G15619   6.140   1.490   5.575  0.5549  0.5164  2.8677
  142OSM    C3F15620   6.129   1.314   5.436  0.1207 -0.3037  0.6041
  142OSM    H3F15621   6.032   1.357   5.403 -0.4194 -1.1190  1.1015
  142OSM    H3G15622   6.124   1.203   5.438  1.4127 -0.4348 -0.9047
  142OSM    C4F15623   6.226   1.352   5.327 -0.6712  0.2654  0.1091
  142OSM    H4F15624   6.319   1.295   5.344 -0.3637  0.6588 -0.2254
  142OSM    H4G15625   6.247   1.461   5.333 -1.0016  0.3439 -0.1513
  142OSM    C5F15626   6.180   1.325   5.185 -0.2328 -0.1825 -0.5475
  142OSM    H5F15627   6.082   1.375   5.189 -1.0654 -1.8243  2.0326
  142OSM    H5G15628   6.168   1.216   5.167  1.5611 -0.7906  1.4777
  142OSM    C6F15629   6.266   1.392   5.086 -0.8390  0.1699  0.1219
  142OSM    H6F15630   6.355   1.326   5.077 -1.4881 -1.4968  4.2168
  142OSM    H6G15631   6.302   1.493   5.115  0.3860  0.1437 -1.1583
  142OSM    C7F15632   6.204   1.411   4.946  0.8639  0.4970  0.3602
  142OSM    H7F15633   6.131   1.495   4.947  1.8302  1.3907 -0.8036
  142OSM    H7G15634   6.152   1.315   4.930  1.8278 -0.4134  2.4157
  142OSM    C8F15635   6.304   1.439   4.840 -0.1793  0.2046  0.2521
  142OSM    H8F15636   6.385   1.362   4.839  0.0896  0.3449  3.0774
  142OSM    H8G15637   6.369   1.526   4.864  2.0299 -1.1211 -0.6213
  142OSM    C9F15638   6.241   1.466   4.703  0.2230  0.8098 -0.6031
  142OSM    H9F15639   6.176   1.555   4.696 -0.9457  0.1637  1.4311
  142OSM   C10F15640   6.269   1.392   4.592  0.1055 -0.5643 -0.2085
  142OSM   H10F15641   6.224   1.431   4.499  1.6092  1.1586 -0.2710
  142OSM   C11F15642   6.360   1.272   4.575 -0.1423  0.7977 -0.9104
  142OSM   H11F15643   6.421   1.261   4.667 -1.4684  0.4731 -0.0356
  142OSM   H11G15644   6.437   1.300   4.500  0.6229  2.4790  0.4506
  142OSM   C12F15645   6.303   1.135   4.539 -0.0302 -0.3344  0.4519
  142OSM   H12F15646   6.266   1.088   4.633 -3.3953  1.6818  0.2850
  142OSM   H12G15647   6.375   1.063   4.494 -1.9713 -1.2085 -1.4651
  142OSM   C13F15648   6.189   1.134   4.434  0.3392  0.5042  0.2776
  142OSM   H13F15649   6.120   1.218   4.459 -0.6180 -0.5467  1.2496
  142OSM   H13G15650   6.136   1.040   4.461  1.7518 -0.6388 -0.7994
  142OSM   C14F15651   6.235   1.149   4.291  0.1870  0.3945 -0.4598
  142OSM   H14F15652   6.303   1.061   4.286 -0.0320  0.1565  0.4414
  142OSM   H14G15653   6.294   1.239   4.266 -0.0017  1.1053  1.4714
  142OSM   C15F15654   6.122   1.138   4.181 -0.5856 -0.2993  0.0057
  142OSM   H15F15655   6.039   1.075   4.220  1.3560 -1.2084  2.9448
  142OSM   H15G15656   6.168   1.098   4.089 -1.2111  0.3399 -0.6006
  142OSM   C16F15657   6.041   1.269   4.153  0.1311 -0.4361 -0.2758
  142OSM   H16F15658   6.014   1.306   4.254 -0.1250 -1.6520  0.1266
  142OSM   H16G15659   5.950   1.258   4.091 -0.5222 -0.5546  0.6886
  142OSM   C17F15660   6.122   1.391   4.093 -0.6005 -0.0926 -0.0930
  142OSM   H17F15661   6.150   1.367   3.989  0.9660 -1.3759  0.5847
  142OSM   H17G15662   6.224   1.392   4.136 -0.9339 -1.6749  0.8301
  142OSM   C18F15663   6.041   1.521   4.093 -0.3189 -0.4166 -0.1423
  142OSM   H18F15664   5.949   1.512   4.030  1.5498 -0.8687 -3.0128
  142OSM   H18G15665   6.107   1.597   4.045  0.6230 -1.3587 -0.3821
  142OSM   H18H15666   6.013   1.570   4.188 -0.1352  1.6832 -1.1075
  143OSM      N15667   7.109   4.797   6.220  0.3120 -0.1621 -0.0366
  143OSM    C1515668   7.055   4.661   6.245  0.0284  0.4260 -0.3846
  143OSM   H15A15669   7.104   4.625   6.334  0.6803  0.4870 -0.7188
  143OSM   H15B15670   7.067   4.589   6.165 -3.1534 -0.0223 -0.6020
  143OSM   H15C15671   6.952   4.668   6.277  0.3190 -0.0242  0.6808
  143OSM    C1415672   7.075   4.890   6.335 -0.1816 -0.7571  0.2517
  143OSM   H14A15673   7.125   4.861   6.427  1.6995  1.2744 -0.0517
  143OSM   H14B15674   6.970   4.890   6.362  0.0715 -1.6974  1.3574
  143OSM   H14C15675   7.118   4.985   6.310  3.2869 -1.4971  2.7163
  143OSM    C1315676   7.260   4.777   6.228 -0.4059 -0.4258  0.2560
  143OSM   H13A15677   7.290   4.710   6.148  0.2403 -0.2942  0.3798
  143OSM   H13B15678   7.289   4.725   6.317  2.7104 -1.5996 -1.2918
  143OSM   H13C15679   7.318   4.865   6.205  1.0785 -1.2726  0.6061
  143OSM    C1215680   7.073   4.858   6.081  0.7932 -0.2394 -0.8908
  143OSM   H12A15681   7.067   4.779   6.008 -0.6184  1.6455 -2.9412
  143OSM   H12B15682   7.154   4.927   6.060 -0.3094  0.9042 -1.5876
  143OSM    C1115683   6.935   4.943   6.081 -0.3090  0.2302 -0.2986
  143OSM   H11A15684   6.853   4.888   6.132 -0.3022  1.1592  0.7319
  143OSM   H11B15685   6.892   4.958   5.979 -0.8127  1.4200  0.0794
  143OSM      P15686   7.042   5.172   6.079  0.5526  0.0883  0.0933
  143OSM    O1315687   6.987   5.302   6.117 -0.2598 -0.8101 -0.2101
  143OSM    O1415688   7.185   5.140   6.106  0.2172 -0.4846  0.4101
  143OSM    O1115689   7.006   5.166   5.925 -0.4294  0.3514  0.1733
  143OSM    O1215690   6.947   5.069   6.149  0.1112 -0.1137 -0.1109
  143OSM    C1S15691   7.100   5.173   5.815  0.1849  0.2115  0.5480
  143OSM    H1S15692   7.149   5.075   5.796 -1.9902 -0.6545 -0.9305
  143OSM    H1T15693   7.182   5.244   5.840  3.2380 -2.6805 -0.5045
  143OSM     NF15694   7.098   5.234   5.565  0.4411  0.3382  0.4588
  143OSM    HNF15695   7.162   5.309   5.549  2.4862 -1.6651 -1.6373
  143OSM    C2S15696   7.021   5.229   5.688 -0.0778 -0.5002  0.9029
  143OSM    H2S15697   6.942   5.152   5.677 -0.2693 -0.2321  0.3443
  143OSM    C3S15698   6.968   5.372   5.713  0.2596  0.0477 -0.0839
  143OSM    H3S15699   7.051   5.445   5.722  1.6182 -1.1902 -2.0331
  143OSM     O315700   6.895   5.386   5.836 -0.1332  0.0001  0.1728
  143OSM    HO315701   6.930   5.315   5.890 -0.0988 -0.4858 -0.4734
  143OSM    C4S15702   6.879   5.405   5.599  0.3686 -0.3114  0.8456
  143OSM    H4S15703   6.779   5.359   5.606  0.6908 -1.6016 -1.9707
  143OSM    C5S15704   6.913   5.478   5.489 -0.0883 -0.5287  0.1175
  143OSM    H5S15705   7.014   5.520   5.489  0.1285 -1.0127 -1.1378
  143OSM    C6S15706   6.839   5.514   5.370 -0.0933  0.0522 -0.2215
  143OSM    H6S15707   6.810   5.621   5.378 -0.9842 -0.2192  0.2827
  143OSM    H6T15708   6.749   5.449   5.364  1.3073 -2.4120  2.7953
  143OSM    C7S15709   6.907   5.470   5.235 -0.4342  0.4621 -0.4894
  143OSM    H7S15710   6.925   5.361   5.244  0.4012  0.7541  2.5463
  143OSM    H7T15711   7.011   5.510   5.229  0.4132 -1.6357 -0.4327
  143OSM    C8S15712   6.816   5.512   5.111 -0.3081  0.6167 -0.2383
  143OSM    H8S15713   6.792   5.620   5.113  0.2501  0.8574 -2.8138
  143OSM    H8T15714   6.730   5.442   5.116 -0.2802  0.6944  2.0937
  143OSM    C9S15715   6.899   5.508   4.980 -0.7019 -0.1670  0.3524
  143OSM    H9S15716   6.921   5.404   4.946  1.9327 -0.3037  2.1820
  143OSM    H9T15717   7.003   5.543   4.996 -1.5371  2.4187  0.5428
  143OSM   C10S15718   6.827   5.580   4.855  0.2162 -0.1998 -0.2256
  143OSM   H10S15719   6.718   5.591   4.872  0.3284  0.4239  0.1369
  143OSM   H10T15720   6.852   5.521   4.764  0.5103 -0.1437 -0.1823
  143OSM   C11S15721   6.874   5.728   4.828  0.8842 -0.1255 -0.4654
  143OSM   H11S15722   6.984   5.717   4.844  0.5579 -2.9374  0.3348
  143OSM   H11T15723   6.826   5.790   4.907 -1.2489  0.9782 -2.4882
  143OSM   C12S15724   6.834   5.774   4.683  0.7854 -0.2347 -0.5632
  143OSM   H12S15725   6.726   5.756   4.664  0.4775  0.4781  0.4135
  143OSM   H12T15726   6.898   5.721   4.609  0.8326  0.8327 -1.3048
  143OSM   C13S15727   6.852   5.923   4.648 -0.2016  0.9262 -0.2160
  143OSM   H13S15728   6.963   5.937   4.650  0.0248 -0.7472  0.9568
  143OSM   H13T15729   6.807   5.987   4.727  1.1586 -0.3675  1.6816
  143OSM   C14S15730   6.798   5.974   4.514 -0.1431  0.3117  0.0535
  143OSM   H14S15731   6.835   6.078   4.505 -4.7710  2.1284 -0.8613
  143OSM   H14T15732   6.687   5.966   4.523 -0.1142 -0.1578  0.0132
  143OSM   C15S15733   6.845   5.890   4.397  0.2918  0.5255 -0.0751
  143OSM   H15S15734   6.822   5.782   4.407  2.0037  0.1326 -0.1012
  143OSM   H15T15735   6.955   5.901   4.390  0.3807 -0.4726 -0.3421
  143OSM   C16S15736   6.783   5.937   4.258 -0.5427  0.4531 -0.1948
  143OSM   H16S15737   6.821   5.862   4.186  1.6043  1.6565 -0.3934
  143OSM   H16T15738   6.821   6.039   4.237  0.9866  0.4652  2.2061
  143OSM   C17S15739   6.627   5.932   4.253  0.3870  0.0975 -0.1202
  143OSM   H17S15740   6.605   5.963   4.148  0.2528  1.2419  0.2255
  143OSM   H17T15741   6.588   6.003   4.329  0.8160 -0.3657  0.5406
  143OSM   C18S15742   6.578   5.792   4.282  0.8552 -0.2559  0.6456
  143OSM   H18S15743   6.468   5.790   4.298  0.8705  1.6184  1.2400
  143OSM   H18T15744   6.624   5.759   4.378 -1.3559 -0.8677  1.5783
  143OSM   H18U15745   6.610   5.716   4.208  1.0643 -1.1288  1.6134
  143OSM    C1F15746   7.100   5.133   5.478 -0.3111 -0.0897  0.5986
  143OSM     OF15747   7.055   5.027   5.505  0.0398  0.0968  0.3761
  143OSM    C2F15748   7.173   5.156   5.349  0.5620  0.0158 -0.2553
  143OSM    H2F15749   7.277   5.117   5.354  1.1826  1.5463 -0.3593
  143OSM    H2G15750   7.187   5.266   5.338  1.4646 -0.0720 -0.1145
  143OSM    C3F15751   7.095   5.100   5.226  0.1465 -0.1307  0.0679
  143OSM    H3F15752   6.987   5.119   5.240  0.2214 -0.1263  0.6446
  143OSM    H3G15753   7.116   4.991   5.215  1.1226  0.0474  0.0259
  143OSM    C4F15754   7.143   5.156   5.094  0.1433  0.3647  0.1754
  143OSM    H4F15755   7.151   5.265   5.115 -0.7963  1.1378 -2.9320
  143OSM    H4G15756   7.064   5.136   5.018  1.4489  1.0619 -1.4359
  143OSM    C5F15757   7.272   5.102   5.039  0.1166  0.5074  0.1015
  143OSM    H5F15758   7.291   4.993   5.047  0.9997  0.5524 -1.1334
  143OSM    H5G15759   7.348   5.145   5.107  1.0047  0.1042 -0.6167
  143OSM    C6F15760   7.304   5.147   4.900  0.0346  0.2978 -0.0341
  143OSM    H6F15761   7.403   5.102   4.876  0.6724  1.6999 -0.1415
  143OSM    H6G15762   7.311   5.258   4.899  2.0781  0.2053  0.8899
  143OSM    C7F15763   7.203   5.115   4.790 -0.1238  0.2286 -0.7110
  143OSM    H7F15764   7.106   5.166   4.812 -0.7311 -0.4564 -1.7008
  143OSM    H7G15765   7.196   5.008   4.816  0.5686  0.7843  2.1043
  143OSM    C8F15766   7.260   5.142   4.653 -0.0074 -0.5356  0.2571
  143OSM    H8F15767   7.338   5.065   4.630  0.2829  0.3725 -2.1680
  143OSM    H8G15768   7.317   5.237   4.653 -0.0408 -0.5157  0.6780
  143OSM    C9F15769   7.150   5.137   4.549 -0.6776  1.0437 -0.3335
  143OSM    H9F15770   7.074   5.215   4.564  0.1261  1.6714  0.6385
  143OSM   C10F15771   7.144   5.048   4.448 -0.8387 -0.6185 -0.0454
  143OSM   H10F15772   7.051   5.043   4.389 -1.2590 -1.0387  0.6482
  143OSM   C11F15773   7.248   4.947   4.413 -0.3587  0.8045  0.3442
  143OSM   H11F15774   7.186   4.862   4.377 -1.8801  1.1841  1.9667
  143OSM   H11G15775   7.301   4.916   4.506 -2.9764  2.9708  2.7299
  143OSM   C12F15776   7.350   4.985   4.305  0.0807  0.1780 -0.1842
  143OSM   H12F15777   7.414   5.069   4.341 -1.7620  1.1459  0.9484
  143OSM   H12G15778   7.297   5.023   4.215  1.5312  1.1774 -0.6642
  143OSM   C13F15779   7.444   4.876   4.257  0.2241  0.3493 -0.5056
  143OSM   H13F15780   7.505   4.933   4.185  0.1189  0.9923 -0.0984
  143OSM   H13G15781   7.395   4.784   4.218 -1.2702  0.8472  0.0917
  143OSM   C14F15782   7.533   4.833   4.371  0.4618 -0.1059 -0.2101
  143OSM   H14F15783   7.485   4.754   4.433 -2.7869  2.2318  0.5337
  143OSM   H14G15784   7.548   4.923   4.435 -2.9598 -0.3003  1.0778
  143OSM   C15F15785   7.672   4.779   4.338 -0.4191  0.2412 -0.1141
  143OSM   H15F15786   7.724   4.865   4.291  0.8230 -0.5990 -0.3304
  143OSM   H15G15787   7.682   4.692   4.270  2.7277 -0.3198  0.9252
  143OSM   C16F15788   7.737   4.723   4.468 -0.0276 -0.3598 -0.3738
  143OSM   H16F15789   7.713   4.619   4.498  0.1055  0.1024  1.4642
  143OSM   H16G15790   7.711   4.791   4.552  1.9644  2.6546 -2.0138
  143OSM   C17F15791   7.890   4.714   4.471  0.2277 -0.0850 -0.1899
  143OSM   H17F15792   7.936   4.797   4.413 -1.9971  0.9982 -0.5323
  143OSM   H17G15793   7.919   4.632   4.401 -0.4531 -0.5985  0.1148
  143OSM   C18F15794   7.944   4.686   4.607  0.0326  0.2923 -0.0103
  143OSM   H18F15795   7.880   4.622   4.670 -0.0475  0.8450  0.4790
  143OSM   H18G15796   7.962   4.779   4.665  2.4903  1.3000 -2.1498
  143OSM   H18H15797   8.047   4.645   4.601 -0.6054 -1.4426  0.5730
  144OSM      N15798   0.343   4.143   5.996 -0.0801 -0.3313  0.0236
  144OSM    C1515799   0.455   4.053   6.037 -0.4355  0.0256 -0.3416
  144OSM   H15A15800   0.446   4.003   6.132  1.4791  1.4958  0.6864
  144OSM   H15B15801   0.555   4.092   6.028 -0.7555  0.7852 -0.6420
  144OSM   H15C15802   0.457   3.975   5.962 -0.8449  1.6747 -2.1601
  144OSM    C1415803   0.346   4.177   5.850 -0.3886 -0.4120 -0.2294
  144OSM   H14A15804   0.446   4.209   5.825 -0.3058 -0.0903  0.4956
  144OSM   H14B15805   0.267   4.246   5.825  0.3189 -0.2441 -2.1693
  144OSM   H14C15806   0.328   4.087   5.792 -0.1805 -0.1929 -0.6357
  144OSM    C1315807   0.216   4.064   6.020  0.2797 -0.0606 -0.7065
  144OSM   H13A15808   0.201   4.035   6.123  1.2044 -0.8880 -0.7804
  144OSM   H13B15809   0.213   3.969   5.968 -2.1782 -0.9977  0.9576
  144OSM   H13C15810   0.134   4.125   5.987 -0.0739 -1.1428 -1.9211
  144OSM    C1215811   0.344   4.271   6.078 -0.5207 -0.8870 -0.3283
  144OSM   H12A15812   0.443   4.313   6.065  0.1372 -2.2106  0.2078
  144OSM   H12B15813   0.321   4.238   6.178 -0.4228  0.2982  0.1044
  144OSM    C1115814   0.238   4.384   6.049 -0.3369  0.0248  0.4182
  144OSM   H11A15815   0.277   4.429   5.955 -1.9469  1.0269  0.1965
  144OSM   H11B15816   0.241   4.464   6.126 -2.3085  0.6553 -0.1146
  144OSM      P15817  -0.009   4.390   5.936 -0.3735  0.4882  0.0511
  144OSM    O1315818   0.022   4.338   5.803  0.5313 -0.1178  0.3479
  144OSM    O1415819  -0.145   4.361   5.993 -0.4041  0.1772  0.3779
  144OSM    O1115820   0.011   4.542   5.936 -1.0294  0.6433  0.1831
  144OSM    O1215821   0.100   4.334   6.037 -1.1523 -0.3693 -0.8800
  144OSM    C1S15822   0.044   4.611   5.811  0.3083  0.0482 -0.0044
  144OSM    H1S15823   0.123   4.568   5.746 -1.4072  1.3206 -3.1793
  144OSM    H1T15824   0.092   4.709   5.832  0.0149  0.0619  0.6234
  144OSM     NF15825  -0.036   4.711   5.581 -0.0911 -0.4420  0.5142
  144OSM    HNF15826  -0.069   4.803   5.560  0.7146 -0.5328 -1.3903
  144OSM    C2S15827  -0.082   4.645   5.708  0.1029 -0.2775  0.2337
  144OSM    H2S15828  -0.133   4.548   5.688 -0.8098 -0.3526  2.5988
  144OSM    C3S15829  -0.195   4.735   5.779  0.4636 -0.7016 -0.3667
  144OSM    H3S15830  -0.154   4.834   5.809 -0.2561 -0.0277 -1.5522
  144OSM     O315831  -0.237   4.679   5.901  0.2082  0.0760 -0.1564
  144OSM    HO315832  -0.165   4.621   5.925 -0.7484 -1.1199 -0.0714
  144OSM    C4S15833  -0.314   4.761   5.688 -0.7949  0.1643  0.4779
  144OSM    H4S15834  -0.304   4.856   5.633 -2.4947  0.9413  1.4258
  144OSM    C5S15835  -0.417   4.676   5.662 -0.5933  0.1137  0.0223
  144OSM    H5S15836  -0.406   4.576   5.706  1.4097  0.7128  1.0000
  144OSM    C6S15837  -0.530   4.702   5.563  0.1992 -0.1761  0.1263
  144OSM    H6S15838  -0.578   4.794   5.603 -3.3773 -1.2865 -1.1802
  144OSM    H6T15839  -0.608   4.625   5.582  0.4414 -0.6664 -0.7844
  144OSM    C7S15840  -0.494   4.749   5.421  0.2115  0.2941  0.0936
  144OSM    H7S15841  -0.442   4.847   5.413  0.0401  0.3899  0.1462
  144OSM    H7T15842  -0.588   4.757   5.362  1.2088  2.2728 -1.3742
  144OSM    C8S15843  -0.416   4.648   5.339  0.1161  0.3505 -0.2335
  144OSM    H8S15844  -0.477   4.555   5.336  2.3363 -1.1648 -1.1909
  144OSM    H8T15845  -0.322   4.622   5.393  0.3580 -2.8854 -1.9462
  144OSM    C9S15846  -0.383   4.685   5.193  0.3994  0.1701 -1.0388
  144OSM    H9S15847  -0.471   4.724   5.137  2.0097  0.7900 -3.2719
  144OSM    H9T15848  -0.346   4.595   5.140  0.9488 -0.1018 -0.2217
  144OSM   C10S15849  -0.279   4.797   5.178 -0.0780 -0.1068  0.0055
  144OSM   H10S15850  -0.175   4.766   5.201  0.1861  0.0639 -0.9064
  144OSM   H10T15851  -0.314   4.875   5.249  0.0826  0.9420 -1.0285
  144OSM   C11S15852  -0.304   4.857   5.040 -0.7733  0.1619  0.1392
  144OSM   H11S15853  -0.232   4.942   5.031 -0.0065 -0.6199 -1.7193
  144OSM   H11T15854  -0.405   4.901   5.052  0.4097  2.6802  1.8785
  144OSM   C12S15855  -0.273   4.784   4.910 -0.8858 -0.4221  0.1551
  144OSM   H12S15856  -0.298   4.850   4.824 -0.1108  2.2279  1.8572
  144OSM   H12T15857  -0.328   4.688   4.909  0.0649 -1.0226 -2.2119
  144OSM   C13S15858  -0.121   4.752   4.896  0.3438 -0.2275 -0.4419
  144OSM   H13S15859  -0.067   4.717   4.986 -0.3140 -0.4373 -0.1257
  144OSM   H13T15860  -0.075   4.853   4.885  1.2261 -0.1664  2.9515
  144OSM   C14S15861  -0.095   4.660   4.778  0.2676 -0.0096  0.1660
  144OSM   H14S15862  -0.148   4.703   4.690 -2.8036  0.2254  1.9714
  144OSM   H14T15863  -0.134   4.558   4.795 -0.3484  0.4437  1.6720
  144OSM   C15S15864   0.058   4.657   4.747 -0.1307 -0.4509  0.5119
  144OSM   H15S15865   0.104   4.652   4.847  1.3097  2.9176  0.1606
  144OSM   H15T15866   0.096   4.754   4.708  0.9733 -1.0620  0.0472
  144OSM   C16S15867   0.101   4.543   4.653  0.7700 -0.4097  0.0819
  144OSM   H16S15868   0.211   4.553   4.642  0.8776  1.1011  1.9433
  144OSM   H16T15869   0.043   4.548   4.558  0.2376 -0.7251  0.3888
  144OSM   C17S15870   0.060   4.407   4.710 -0.3426  0.5705 -0.1562
  144OSM   H17S15871  -0.049   4.389   4.697  0.2591 -1.4113 -3.9370
  144OSM   H17T15872   0.071   4.401   4.821 -0.6322  2.6700  0.0162
  144OSM   C18S15873   0.135   4.291   4.655 -0.0451  0.2350  0.7081
  144OSM   H18S15874   0.113   4.277   4.547 -0.6586  0.0025  0.8575
  144OSM   H18T15875   0.129   4.195   4.711 -2.2146 -1.1052 -1.5839
  144OSM   H18U15876   0.244   4.308   4.656  0.0911  0.0004 -1.9208
  144OSM    C1F15877   0.051   4.658   5.498  0.2881  0.6065 -0.1548
  144OSM     OF15878   0.084   4.538   5.503 -0.7446  0.1922  0.0703
  144OSM    C2F15879   0.134   4.753   5.413  0.5166 -0.4673  0.6777
  144OSM    H2F15880   0.232   4.782   5.456  1.1405  0.6529 -1.3883
  144OSM    H2G15881   0.075   4.844   5.388 -1.2755 -1.2970  1.6664
  144OSM    C3F15882   0.146   4.695   5.278  0.0942  0.0192 -0.6941
  144OSM    H3F15883   0.052   4.703   5.219 -0.1616 -0.3207 -0.3432
  144OSM    H3G15884   0.179   4.589   5.278 -1.2243 -0.4125 -0.0258
  144OSM    C4F15885   0.262   4.765   5.200 -0.1034 -0.3518  0.2534
  144OSM    H4F15886   0.350   4.755   5.266  0.0231 -0.1627  0.1151
  144OSM    H4G15887   0.238   4.874   5.200  1.6556  0.0815  1.3515
  144OSM    C5F15888   0.276   4.719   5.058 -0.7063 -0.0763 -0.6376
  144OSM    H5F15889   0.194   4.756   4.993 -0.3400 -0.7496 -1.4998
  144OSM    H5G15890   0.269   4.609   5.049  1.3361 -0.5277  1.9307
  144OSM    C6F15891   0.413   4.766   4.990 -0.2634 -0.7764 -0.2925
  144OSM    H6F15892   0.506   4.757   5.051  1.1290  0.9693 -2.0189
  144OSM    H6G15893   0.399   4.873   4.962 -1.0681 -0.6452  0.5768
  144OSM    C7F15894   0.432   4.699   4.854 -0.1673 -0.9909  0.3231
  144OSM    H7F15895   0.470   4.770   4.778  1.4698 -1.1382  0.9636
  144OSM    H7G15896   0.336   4.667   4.809  0.1338  0.6036 -1.5645
  144OSM    C8F15897   0.543   4.589   4.857  0.8477 -0.1422 -0.6934
  144OSM    H8F15898   0.635   4.641   4.893  1.0867  0.6822 -2.3757
  144OSM    H8G15899   0.564   4.557   4.753  0.9070 -0.5005 -0.5719
  144OSM    C9F15900   0.501   4.470   4.929 -0.3460 -0.9474 -1.0098
  144OSM    H9F15901   0.426   4.476   5.010  1.2038 -2.0259  0.5837
  144OSM   C10F15902   0.558   4.347   4.905  0.3343  0.0524 -0.7447
  144OSM   H10F15903   0.526   4.264   4.969 -0.6620  1.1722  0.2817
  144OSM   C11F15904   0.671   4.312   4.819 -0.8143  0.4789 -0.0713
  144OSM   H11F15905   0.745   4.247   4.870 -2.2169 -0.5991  0.6670
  144OSM   H11G15906   0.728   4.402   4.789  1.4325 -0.2445  1.7081
  144OSM   C12F15907   0.621   4.248   4.683  0.1817 -0.4276 -0.3665
  144OSM   H12F15908   0.546   4.173   4.716 -0.6968  1.0581  1.2235
  144OSM   H12G15909   0.712   4.197   4.643 -0.3186 -0.0242 -2.0822
  144OSM   C13F15910   0.571   4.340   4.569  0.3505  0.2015 -0.9586
  144OSM   H13F15911   0.655   4.408   4.543  0.4607 -0.2543 -1.8360
  144OSM   H13G15912   0.495   4.404   4.617  0.9407 -0.7756  1.4338
  144OSM   C14F15913   0.540   4.274   4.440  0.2771  0.1745  0.5838
  144OSM   H14F15914   0.478   4.188   4.475  1.2457 -0.1428  1.5722
  144OSM   H14G15915   0.633   4.229   4.400  0.4786 -0.4485  1.7210
  144OSM   C15F15916   0.482   4.358   4.324 -0.2693  0.5501  0.3567
  144OSM   H15F15917   0.511   4.291   4.241  0.5798 -1.0352  1.8633
  144OSM   H15G15918   0.551   4.445   4.323  0.8422 -0.3046  0.2315
  144OSM   C16F15919   0.326   4.381   4.326 -0.4452  0.3797 -0.4067
  144OSM   H16F15920   0.300   4.409   4.431  0.7665  0.5631 -0.1334
  144OSM   H16G15921   0.263   4.291   4.311 -2.2571  2.0541 -4.1561
  144OSM   C17F15922   0.286   4.484   4.216 -0.2270  0.4922 -0.1069
  144OSM   H17F15923   0.305   4.445   4.114  0.1396 -0.2859  0.2463
  144OSM   H17G15924   0.357   4.569   4.219  0.6084 -0.2010  1.0874
  144OSM   C18F15925   0.140   4.535   4.220  0.8454 -0.1013  0.2045
  144OSM   H18F15926   0.135   4.603   4.308  1.1898  0.3780 -0.1364
  144OSM   H18G15927   0.077   4.447   4.243  0.0583  0.7469  1.4735
  144OSM   H18H15928   0.111   4.587   4.127  2.1928  1.5987  0.6758
  145OSM      N15929   0.721   6.669   6.150  0.7207  0.4400  0.1653
  145OSM    C1515930   0.624   6.580   6.074  1.0897 -0.0389  0.2188
  145OSM   H15A15931   0.601   6.490   6.130  1.5144 -1.0907 -1.2202
  145OSM   H15B15932   0.671   6.535   5.987 -0.3156 -0.9688 -0.1004
  145OSM   H15C15933   0.532   6.631   6.051  0.9599  1.1950  3.0904
  145OSM    C1415934   0.637   6.731   6.256 -0.4972  0.1085  0.0487
  145OSM   H14A15935   0.593   6.658   6.322  0.1955 -2.0245 -1.7390
  145OSM   H14B15936   0.570   6.801   6.208 -0.2330 -0.5398 -1.3034
  145OSM   H14C15937   0.709   6.787   6.314 -0.3750  0.1056 -0.1000
  145OSM    C1315938   0.833   6.590   6.208  0.5336 -0.1036  0.3501
  145OSM   H13A15939   0.799   6.510   6.273  0.6900  1.8797  3.0323
  145OSM   H13B15940   0.899   6.656   6.261  0.7034  1.4188 -1.6526
  145OSM   H13C15941   0.896   6.545   6.132  0.4965 -2.4604  1.5990
  145OSM    C1215942   0.786   6.772   6.052  0.4909 -0.1090  0.4624
  145OSM   H12A15943   0.712   6.811   5.984  2.3471  1.6969 -0.6590
  145OSM   H12B15944   0.852   6.720   5.983  1.5737  1.2100  0.4491
  145OSM    C1115945   0.864   6.889   6.104  0.1882  0.3691 -0.2441
  145OSM   H11A15946   0.919   6.944   6.024  1.6820 -0.3031  0.2925
  145OSM   H11B15947   0.944   6.850   6.171 -2.1029 -1.7306  1.4269
  145OSM      P15948   0.665   7.059   6.110  0.1359 -0.2864  0.3348
  145OSM    O1315949   0.541   6.979   6.126  0.4545  0.4434 -0.6462
  145OSM    O1415950   0.660   7.198   6.160  0.4111  0.4591 -0.0281
  145OSM    O1115951   0.704   7.064   5.961 -0.0474 -0.7365 -0.2272
  145OSM    O1215952   0.783   6.981   6.181  0.5014 -0.4454  0.2035
  145OSM    C1S15953   0.620   7.115   5.852 -0.3601  0.1908  0.4649
  145OSM    H1S15954   0.621   7.225   5.870 -0.4678  0.2588  0.0606
  145OSM    H1T15955   0.523   7.064   5.838 -0.2532  0.7954 -3.5037
  145OSM     NF15956   0.591   7.150   5.618  1.0628  0.1594  0.5760
  145OSM    HNF15957   0.541   7.078   5.571  1.6134  0.4387 -0.4751
  145OSM    C2S15958   0.680   7.102   5.713 -0.4299 -0.4050  0.8195
  145OSM    H2S15959   0.763   7.176   5.716 -0.7667 -0.0451  1.7224
  145OSM    C3S15960   0.742   6.965   5.679  0.4020  0.0126  0.1244
  145OSM    H3S15961   0.669   6.881   5.686  0.1292  0.3321  1.3920
  145OSM     O315962   0.844   6.931   5.768 -0.5054 -0.2907 -0.1427
  145OSM    HO315963   0.820   6.974   5.850  0.6086  0.0278  0.0376
  145OSM    C4S15964   0.788   6.966   5.543 -0.1023  0.0055  0.1348
  145OSM    H4S15965   0.720   6.907   5.479 -0.4035  0.5087 -0.0086
  145OSM    C5S15966   0.911   7.018   5.496  0.9314  0.1006 -0.6772
  145OSM    H5S15967   0.990   7.069   5.552  1.1056  2.1782 -2.6669
  145OSM    C6S15968   0.938   7.012   5.349  0.4171  0.3437 -0.1527
  145OSM    H6S15969   0.984   6.913   5.327  1.4785  0.7567  0.1329
  145OSM    H6T15970   1.026   7.076   5.325  1.2905 -0.7932 -0.0921
  145OSM    C7S15971   0.816   7.043   5.254 -0.5778 -0.6889  0.1708
  145OSM    H7S15972   0.789   7.151   5.262  0.2246 -0.5083  0.5825
  145OSM    H7T15973   0.731   6.975   5.275 -0.7952 -0.5927 -0.3751
  145OSM    C8S15974   0.845   7.019   5.098 -1.0755  0.4091 -0.3054
  145OSM    H8S15975   0.756   7.048   5.038 -2.2956  1.4861  1.8735
  145OSM    H8T15976   0.865   6.910   5.088  0.0354  0.6066 -0.3088
  145OSM    C9S15977   0.964   7.094   5.033 -0.8302 -0.3589 -0.1314
  145OSM    H9S15978   1.060   7.053   5.071  0.9711  2.7831 -0.9805
  145OSM    H9T15979   0.950   7.200   5.064  1.0357  0.3228 -1.4571
  145OSM   C10S15980   0.955   7.090   4.877  0.3395  0.0277  0.2297
  145OSM   H10S15981   0.853   7.116   4.842  1.3857  1.8757 -1.7440
  145OSM   H10T15982   0.972   6.988   4.836 -0.7885  0.6430 -1.9227
  145OSM   C11S15983   1.053   7.187   4.803 -0.2274 -0.0440  0.4828
  145OSM   H11S15984   1.155   7.153   4.830  0.6524  2.2837  0.3135
  145OSM   H11T15985   1.050   7.285   4.855 -0.3896 -0.7312  1.8264
  145OSM   C12S15986   1.039   7.199   4.652 -0.3042  0.2245  0.2045
  145OSM   H12S15987   0.943   7.231   4.606  0.0969 -0.3610 -1.0576
  145OSM   H12T15988   1.061   7.100   4.608  2.4215  0.2278  1.3574
  145OSM   C13S15989   1.154   7.291   4.593 -0.4276 -0.2561  0.8571
  145OSM   H13S15990   1.256   7.280   4.636  0.2985 -2.2324 -1.1627
  145OSM   H13T15991   1.119   7.396   4.604  0.3147  0.1610 -0.5248
  145OSM   C14S15992   1.159   7.264   4.439 -0.3210  0.2490  0.1274
  145OSM   H14S15993   1.057   7.271   4.396  0.7986 -0.9837 -3.0535
  145OSM   H14T15994   1.199   7.161   4.432  1.8523  0.9363  1.3185
  145OSM   C15S15995   1.259   7.351   4.361  0.3226  0.3612 -0.0017
  145OSM   H15S15996   1.227   7.455   4.385 -4.8177 -1.2163  1.4247
  145OSM   H15T15997   1.251   7.329   4.253  0.2589 -0.7734  0.2145
  145OSM   C16S15998   1.406   7.335   4.395  0.2588 -0.0519  0.5932
  145OSM   H16S15999   1.427   7.228   4.417 -1.8352 -0.5288  0.4679
  145OSM   H16T16000   1.423   7.388   4.491  0.0690 -0.4761  0.8638
  145OSM   C17S16001   1.502   7.377   4.284 -1.0004  0.1807 -0.6891
  145OSM   H17S16002   1.605   7.379   4.326 -1.7882  3.1018  1.4731
  145OSM   H17T16003   1.482   7.481   4.251  0.1094  1.3534  2.0087
  145OSM   C18S16004   1.490   7.284   4.161 -0.0027  0.3830  0.2659
  145OSM   H18S16005   1.500   7.180   4.199 -0.1716  0.9114  1.8415
  145OSM   H18T16006   1.569   7.307   4.087  1.7365 -1.3246  1.4900
  145OSM   H18U16007   1.397   7.292   4.101  0.8110 -1.0384 -1.2752
  145OSM    C1F16008   0.563   7.275   5.599 -0.1516 -0.6795 -0.0595
  145OSM     OF16009   0.630   7.361   5.649  0.3750 -0.3388  0.2928
  145OSM    C2F16010   0.446   7.310   5.525 -0.0902 -0.2295 -0.0005
  145OSM    H2F16011   0.369   7.334   5.601  1.3629 -3.2677  2.6505
  145OSM    H2G16012   0.406   7.226   5.465 -2.2560 -1.2259  2.6337
  145OSM    C3F16013   0.464   7.450   5.444  0.4957  0.0767  0.5335
  145OSM    H3F16014   0.483   7.525   5.523  2.5607  0.3759 -0.1889
  145OSM    H3G16015   0.372   7.468   5.385  0.0502  0.5361  1.3495
  145OSM    C4F16016   0.587   7.449   5.358 -0.3140 -0.2239 -0.3385
  145OSM    H4F16017   0.566   7.364   5.289 -2.1625 -1.0512  1.1502
  145OSM    H4G16018   0.689   7.430   5.398 -0.5245 -0.5505  0.0525
  145OSM    C5F16019   0.602   7.587   5.291 -0.2474  0.2242 -0.0233
  145OSM    H5F16020   0.621   7.663   5.369  0.8673  2.2947 -2.1938
  145OSM    H5G16021   0.504   7.608   5.243 -1.0897 -0.7964  1.1680
  145OSM    C6F16022   0.721   7.598   5.199  0.6294  0.9079  0.1968
  145OSM    H6F16023   0.820   7.602   5.249  0.8170  3.7445 -0.2090
  145OSM    H6G16024   0.711   7.695   5.145  0.5832  0.3566 -0.8080
  145OSM    C7F16025   0.714   7.493   5.086  0.0887 -0.0094  0.2344
  145OSM    H7F16026   0.613   7.480   5.042 -0.1316  0.5754  0.5634
  145OSM    H7G16027   0.730   7.389   5.123  1.5472  0.3315  0.6526
  145OSM    C8F16028   0.820   7.499   4.972 -0.5424  0.6950 -0.1298
  145OSM    H8F16029   0.812   7.399   4.925  0.1519  0.8096 -0.5004
  145OSM    H8G16030   0.919   7.514   5.019  0.3175  1.3380 -2.0503
  145OSM    C9F16031   0.798   7.608   4.875 -1.0400  0.2048  0.4260
  145OSM    H9F16032   0.803   7.704   4.929  0.3542  0.2998  0.1614
  145OSM   C10F16033   0.782   7.599   4.743 -0.3551  0.0377  0.9159
  145OSM   H10F16034   0.772   7.690   4.682 -1.5408  0.0489  1.1044
  145OSM   C11F16035   0.777   7.471   4.664  0.1796 -0.0900 -0.5346
  145OSM   H11F16036   0.834   7.396   4.724 -3.1674 -1.8818  0.6548
  145OSM   H11G16037   0.842   7.489   4.576  1.8210 -0.0677  0.6206
  145OSM   C12F16038   0.639   7.421   4.626 -0.3180 -0.0482 -0.6433
  145OSM   H12F16039   0.561   7.488   4.670 -0.5931 -0.3385 -0.6801
  145OSM   H12G16040   0.621   7.314   4.651  0.9945 -0.4860 -1.4944
  145OSM   C13F16041   0.617   7.418   4.471 -1.0000 -0.0286 -0.0218
  145OSM   H13F16042   0.667   7.330   4.426 -1.2283 -0.9870  1.5449
  145OSM   H13G16043   0.664   7.507   4.422 -0.4281  0.5613  1.5112
  145OSM   C14F16044   0.468   7.404   4.422  0.6795  0.5749  0.9484
  145OSM   H14F16045   0.479   7.422   4.313  0.0680  2.8500  1.2132
  145OSM   H14G16046   0.397   7.480   4.462 -0.2999 -0.1507  0.6401
  145OSM   C15F16047   0.422   7.266   4.442 -0.4188 -0.5849  0.2273
  145OSM   H15F16048   0.439   7.245   4.550 -1.0483  1.7868  0.8364
  145OSM   H15G16049   0.488   7.192   4.391  2.5966 -0.8951  4.1142
  145OSM   C16F16050   0.271   7.243   4.410  0.0859 -0.6165 -0.5301
  145OSM   H16F16051   0.214   7.316   4.470 -0.8783 -0.5626 -1.4826
  145OSM   H16G16052   0.238   7.147   4.455 -0.7025 -0.7279 -1.3005
  145OSM   C17F16053   0.248   7.249   4.255 -0.2253 -0.2758 -0.2176
  145OSM   H17F16054   0.316   7.182   4.198 -0.1626 -0.0860 -0.3659
  145OSM   H17G16055   0.261   7.350   4.211 -1.8479  0.0135 -0.1068
  145OSM   C18F16056   0.106   7.226   4.217 -0.8152  0.1458 -0.0023
  145OSM   H18F16057   0.053   7.139   4.260 -3.5515  0.8140 -1.7396
  145OSM   H18G16058   0.113   7.222   4.106  0.2726 -1.0472  0.0899
  145OSM   H18H16059   0.036   7.310   4.239  1.2867  1.8274  0.6330
  146OSM      N16060   7.107   6.638   6.287  0.4510 -0.2451  0.0156
  146OSM    C1516061   7.133   6.653   6.437 -0.3762 -0.4645  0.1674
  146OSM   H15A16062   7.090   6.569   6.491 -1.0442 -0.4053 -0.2530
  146OSM   H15B16063   7.100   6.747   6.477 -1.9250 -1.1039  0.4862
  146OSM   H15C16064   7.239   6.666   6.446 -0.3885  0.0062 -0.3101
  146OSM    C1416065   7.153   6.500   6.252  0.0618  0.2206  0.4782
  146OSM   H14A16066   7.115   6.426   6.321  1.8408 -1.1396  0.0823
  146OSM   H14B16067   7.260   6.487   6.255  0.2858  1.6190 -0.4895
  146OSM   H14C16068   7.114   6.480   6.153  1.4487 -0.4673  0.0478
  146OSM    C1316069   6.954   6.640   6.267 -0.0616  0.1014  0.0865
  146OSM   H13A16070   6.908   6.577   6.341 -1.5009  0.8749 -0.1207
  146OSM   H13B16071   6.921   6.600   6.172  1.1832  1.5935 -1.0290
  146OSM   H13C16072   6.920   6.741   6.282  2.3086  1.5271 -2.9602
  146OSM    C1216073   7.184   6.747   6.213  0.1643  0.6944  0.0296
  146OSM   H12A16074   7.170   6.736   6.106  1.3904  0.0238 -0.0842
  146OSM   H12B16075   7.292   6.741   6.223  0.0585  0.3555  1.0147
  146OSM    C1116076   7.154   6.894   6.258  0.0982  0.0028 -0.3873
  146OSM   H11A16077   7.233   6.967   6.229  0.2426 -0.1365 -0.3490
  146OSM   H11B16078   7.145   6.909   6.368 -3.1541  3.2613 -0.8940
  146OSM      P16079   6.997   6.971   6.054  0.5349  0.1103 -0.2945
  146OSM    O1316080   6.944   6.854   5.974 -0.3117 -0.1025  0.0788
  146OSM    O1416081   6.909   7.091   6.054  0.7628  0.2401  0.4070
  146OSM    O1116082   7.134   7.026   5.999 -0.0893  0.3900 -0.5433
  146OSM    O1216083   7.026   6.932   6.201  0.5282 -0.3841  0.6699
  146OSM    C1S16084   7.172   7.010   5.860 -0.3441  0.1383 -0.7366
  146OSM    H1S16085   7.089   6.975   5.796 -2.0252  0.6340  1.0861
  146OSM    H1T16086   7.259   6.941   5.851 -0.5141  0.1585 -3.0757
  146OSM     NF16087   7.261   7.125   5.657 -0.2349  0.6772  0.0099
  146OSM    HNF16088   7.353   7.095   5.636 -0.3867 -0.7209  1.1861
  146OSM    C2S16089   7.235   7.139   5.798 -0.2256  0.0788  0.5529
  146OSM    H2S16090   7.165   7.224   5.815 -0.0966  0.1244  0.8757
  146OSM    C3S16091   7.353   7.175   5.894  0.5537  0.1742 -0.4175
  146OSM    H3S16092   7.428   7.096   5.873  0.5771  0.2670 -0.6910
  146OSM     O316093   7.333   7.177   6.037  0.1428  0.0302  0.0583
  146OSM    HO316094   7.252   7.125   6.044 -0.2615  0.7735  1.1271
  146OSM    C4S16095   7.428   7.308   5.856  0.3405  0.3506  0.2713
  146OSM    H4S16096   7.514   7.294   5.788 -1.6597 -0.8689 -2.1834
  146OSM    C5S16097   7.403   7.438   5.882 -0.1060 -0.2166 -0.4196
  146OSM    H5S16098   7.305   7.465   5.926 -0.1626 -1.3256  0.1764
  146OSM    C6S16099   7.499   7.553   5.838 -0.3876  0.8687 -0.0388
  146OSM    H6S16100   7.607   7.529   5.829 -0.5144 -0.7566  1.9841
  146OSM    H6T16101   7.510   7.622   5.924 -0.7492 -0.5141  1.1533
  146OSM    C7S16102   7.452   7.647   5.729 -0.7829 -0.7073 -0.0409
  146OSM    H7S16103   7.348   7.675   5.753 -0.5060  0.0439  0.3196
  146OSM    H7T16104   7.441   7.585   5.637 -0.9574 -0.4150 -0.2186
  146OSM    C8S16105   7.540   7.774   5.722 -0.3751 -0.5442 -0.5073
  146OSM    H8S16106   7.643   7.740   5.699 -0.6335 -1.0041 -1.0223
  146OSM    H8T16107   7.539   7.837   5.813 -0.0024  1.8800 -2.0761
  146OSM    C9S16108   7.488   7.871   5.603  0.6803 -0.7254 -0.4009
  146OSM    H9S16109   7.568   7.948   5.597  1.9675 -2.0800 -1.3912
  146OSM    H9T16110   7.391   7.916   5.634  1.4828 -0.4798  1.9715
  146OSM   C10S16111   7.484   7.819   5.461 -0.0224  0.3565  0.5003
  146OSM   H10S16112   7.436   7.720   5.447  1.1243 -0.0117 -1.1269
  146OSM   H10T16113   7.587   7.810   5.420  0.1119 -1.7041  1.1338
  146OSM   C11S16114   7.419   7.922   5.364 -0.0597  0.4718  0.1323
  146OSM   H11S16115   7.465   8.023   5.363  3.0054 -0.8393  0.1626
  146OSM   H11T16116   7.316   7.933   5.406 -0.2019 -2.2510  0.7094
  146OSM   C12S16117   7.422   7.875   5.220 -0.0662  0.6806 -0.0553
  146OSM   H12S16118   7.343   7.937   5.174 -0.5369  0.5384  0.5463
  146OSM   H12T16119   7.393   7.769   5.208 -1.0603  1.0391 -0.8965
  146OSM   C13S16120   7.557   7.914   5.154  0.7657  0.0681 -0.5001
  146OSM   H13S16121   7.638   7.857   5.205 -0.3355 -2.4717 -1.4434
  146OSM   H13T16122   7.574   8.024   5.150 -2.4328  0.6181 -3.7761
  146OSM   C14S16123   7.556   7.861   5.007 -0.4681 -0.8494 -0.8001
  146OSM   H14S16124   7.536   7.752   5.010 -2.3700 -0.5995 -2.6732
  146OSM   H14T16125   7.658   7.876   4.966  0.0405 -1.5085  0.1740
  146OSM   C15S16126   7.457   7.933   4.922 -0.3220 -0.3546 -0.3182
  146OSM   H15S16127   7.444   8.037   4.961  0.1227 -0.3135 -0.2694
  146OSM   H15T16128   7.358   7.886   4.932 -1.2150  1.3733 -0.5505
  146OSM   C16S16129   7.488   7.936   4.773 -0.2996  0.3461  0.2138
  146OSM   H16S16130   7.474   7.829   4.745 -0.6306  0.2230  0.8216
  146OSM   H16T16131   7.593   7.967   4.756 -0.2358 -0.5364 -1.1666
  146OSM   C17S16132   7.411   8.042   4.689 -0.1881 -0.8162  0.5989
  146OSM   H17S16133   7.436   8.024   4.582 -0.3436 -2.2029  0.7820
  146OSM   H17T16134   7.433   8.148   4.716  1.4713 -1.1579  0.7026
  146OSM   C18S16135   7.258   8.027   4.684  0.2479  0.0552  0.3104
  146OSM   H18S16136   7.212   8.101   4.615 -0.3155 -0.1721  0.4459
  146OSM   H18T16137   7.214   8.035   4.785  2.0229 -0.6860  1.1894
  146OSM   H18U16138   7.247   7.926   4.638 -0.9592 -0.9624  2.6848
  146OSM    C1F16139   7.158   7.130   5.571 -0.1704  0.6198 -0.0775
  146OSM     OF16140   7.046   7.164   5.612 -0.8174  0.1284  0.5247
  146OSM    C2F16141   7.196   7.098   5.426  0.4702 -0.8625  0.3870
  146OSM    H2F16142   7.163   6.993   5.408  0.4200 -0.8228  0.2537
  146OSM    H2G16143   7.305   7.108   5.408  0.7281  1.1025  2.6059
  146OSM    C3F16144   7.106   7.181   5.331 -0.0519 -0.1013  0.0923
  146OSM    H3F16145   7.000   7.162   5.360  0.4820  0.6352  2.8565
  146OSM    H3G16146   7.117   7.139   5.229 -1.5030  0.0591 -0.1610
  146OSM    C4F16147   7.150   7.330   5.322 -0.3709 -0.2336 -0.1711
  146OSM    H4F16148   7.261   7.323   5.311 -0.0305 -1.6428  2.9403
  146OSM    H4G16149   7.123   7.382   5.416  0.5711 -1.1330  0.6262
  146OSM    C5F16150   7.087   7.401   5.202 -0.5186  0.5914 -0.2388
  146OSM    H5F16151   7.055   7.502   5.233 -1.0071  0.3959 -0.1029
  146OSM    H5G16152   6.995   7.344   5.176 -1.5060  1.1137  1.9049
  146OSM    C6F16153   7.191   7.418   5.085 -0.1582  0.7950 -0.3479
  146OSM    H6F16154   7.147   7.450   4.988  2.7597  1.3367 -1.5881
  146OSM    H6G16155   7.232   7.315   5.075  2.0928  1.3326  2.2825
  146OSM    C7F16156   7.307   7.508   5.114 -0.3838 -0.3391 -0.2091
  146OSM    H7F16157   7.314   7.506   5.225  1.7871 -1.8873 -0.2918
  146OSM    H7G16158   7.282   7.604   5.065  0.2669 -0.0804 -0.0422
  146OSM    C8F16159   7.439   7.454   5.047 -0.7290 -0.1526 -0.2371
  146OSM    H8F16160   7.512   7.538   5.054 -1.5386  0.5144  0.5870
  146OSM    H8G16161   7.401   7.450   4.943 -1.7791  1.0066  0.0698
  146OSM    C9F16162   7.489   7.326   5.095 -0.0751  0.4756 -0.0742
  146OSM    H9F16163   7.493   7.323   5.205  0.0057 -0.8870 -0.0926
  146OSM   C10F16164   7.526   7.220   5.017  0.3682 -0.1646  0.2166
  146OSM   H10F16165   7.541   7.125   5.071 -1.2249 -0.4275  0.2393
  146OSM   C11F16166   7.535   7.213   4.859  0.3106  0.6014 -0.6502
  146OSM   H11F16167   7.602   7.130   4.828 -0.3381 -0.2701  0.1879
  146OSM   H11G16168   7.569   7.309   4.816  0.8211 -0.0293 -1.7009
  146OSM   C12F16169   7.396   7.191   4.789  0.5232  0.6041  0.0560
  146OSM   H12F16170   7.423   7.187   4.681  0.5816 -0.8961  0.1044
  146OSM   H12G16171   7.327   7.278   4.798  0.4111  0.6085 -0.7499
  146OSM   C13F16172   7.317   7.063   4.829 -0.0792  0.5722  0.6355
  146OSM   H13F16173   7.315   7.078   4.940  0.1711 -0.6663  0.8179
  146OSM   H13G16174   7.385   6.979   4.805 -1.4872 -0.2211 -0.7218
  146OSM   C14F16175   7.173   7.061   4.772 -0.6533 -0.4985  0.0116
  146OSM   H14F16176   7.096   7.015   4.837 -4.0556  1.5962 -2.2024
  146OSM   H14G16177   7.128   7.160   4.749 -0.9407 -0.8811 -1.1449
  146OSM   C15F16178   7.162   7.001   4.633  0.2281 -0.1117  0.3085
  146OSM   H15F16179   7.206   6.903   4.661 -0.4053  0.6068  4.5867
  146OSM   H15G16180   7.244   7.041   4.570 -0.2312  0.6558  0.1878
  146OSM   C16F16181   7.027   6.997   4.559 -0.5618  0.4317  0.5210
  146OSM   H16F16182   6.942   6.942   4.605 -0.2787 -1.3160 -0.9511
  146OSM   H16G16183   7.052   6.945   4.464  0.1614 -1.7795  1.8596
  146OSM   C17F16184   6.978   7.131   4.512 -0.2080 -0.1767 -0.7683
  146OSM   H17F16185   7.067   7.169   4.459 -1.5861  2.5955 -1.2492
  146OSM   H17G16186   6.949   7.204   4.590 -1.3110 -0.4679 -0.8923
  146OSM   C18F16187   6.865   7.112   4.420  0.6799 -0.4979  0.0885
  146OSM   H18F16188   6.893   7.090   4.315 -0.6612 -0.1579 -0.3542
  146OSM   H18G16189   6.807   7.207   4.419  0.4725 -0.6267 -0.6689
  146OSM   H18H16190   6.791   7.035   4.450  0.6087 -0.7939 -0.8380
  147OSM      N16191   3.629   3.216   1.757 -0.1896 -0.1824  0.4004
  147OSM    C1516192   3.509   3.220   1.673  0.2952  0.3820  0.0717
  147OSM   H15A16193   3.497   3.326   1.652  1.4290  0.6799  0.8468
  147OSM   H15B16194   3.432   3.169   1.729  0.5454  1.2563  1.2559
  147OSM   H15C16195   3.519   3.173   1.576 -0.1639 -3.2629  1.6353
  147OSM    C1416196   3.594   3.266   1.895 -0.4558 -0.1577 -0.6230
  147OSM   H14A16197   3.569   3.370   1.877 -3.4107 -0.6178  0.1985
  147OSM   H14B16198   3.681   3.258   1.958  0.5201 -0.2148 -1.9413
  147OSM   H14C16199   3.508   3.218   1.939 -1.2593  2.3063  0.7088
  147OSM    C1316200   3.683   3.074   1.759  0.4179 -0.5626  0.2208
  147OSM   H13A16201   3.724   3.049   1.662  1.7264  0.2501  0.5293
  147OSM   H13B16202   3.613   3.002   1.800 -0.5358  1.4504  2.3519
  147OSM   H13C16203   3.764   3.073   1.831  0.7056 -0.1036 -0.0966
  147OSM    C1216204   3.737   3.314   1.704  0.8656  0.1299  0.2884
  147OSM   H12A16205   3.790   3.273   1.620  0.6541  1.8567 -0.7353
  147OSM   H12B16206   3.807   3.340   1.782  0.8123 -0.9951  0.7454
  147OSM    C1116207   3.689   3.447   1.658 -0.1342 -0.2509 -0.2483
  147OSM   H11A16208   3.618   3.434   1.573  0.2204  0.2962 -0.6376
  147OSM   H11B16209   3.782   3.498   1.625 -0.2601  0.0413 -0.1550
  147OSM      P16210   3.553   3.658   1.717  0.0571  0.0768 -0.4769
  147OSM    O1316211   3.657   3.755   1.672 -0.2175  0.0337  0.0360
  147OSM    O1416212   3.440   3.626   1.627  0.0438  0.4286 -0.2876
  147OSM    O1116213   3.500   3.711   1.853  0.6758  0.1117  0.0803
  147OSM    O1216214   3.624   3.526   1.760  0.2777  0.7905  0.4820
  147OSM    C1S16215   3.425   3.642   1.948 -0.0609  0.2534  1.2564
  147OSM    H1S16216   3.461   3.537   1.953  0.6913  0.4154 -0.1039
  147OSM    H1T16217   3.322   3.625   1.909  0.9145  1.5948 -2.2556
  147OSM     NF16218   3.403   3.618   2.197  1.0087 -0.1389  0.5137
  147OSM    HNF16219   3.322   3.641   2.250  0.7643  1.7707 -0.6077
  147OSM    C2S16220   3.449   3.709   2.089  0.1809  0.3353  0.3985
  147OSM    H2S16221   3.559   3.713   2.107 -0.1681 -0.9418  3.5013
  147OSM    C3S16222   3.381   3.844   2.093  0.4222  0.5753  0.2625
  147OSM    H3S16223   3.271   3.825   2.094  0.6848 -1.1854  0.1024
  147OSM     O316224   3.407   3.916   1.976 -0.3502  0.2958 -0.3924
  147OSM    HO316225   3.438   3.850   1.915 -1.9601 -0.2142 -0.7157
  147OSM    C4S16226   3.423   3.925   2.215  0.5827  0.1798  0.0446
  147OSM    H4S16227   3.505   3.996   2.198  0.9135 -0.3840 -0.8008
  147OSM    C5S16228   3.357   3.918   2.330 -0.6248 -0.3201  0.2194
  147OSM    H5S16229   3.273   3.848   2.344  0.7481 -1.7455  1.8122
  147OSM    C6S16230   3.406   3.992   2.447 -0.2052  0.4222 -0.3579
  147OSM    H6S16231   3.323   4.032   2.510 -0.1722 -1.8263  1.2233
  147OSM    H6T16232   3.468   4.081   2.424  1.7013 -0.5371  0.8977
  147OSM    C7S16233   3.499   3.905   2.526 -0.4090 -0.0572 -0.7598
  147OSM    H7S16234   3.597   3.901   2.476 -0.0410  3.2801 -0.5562
  147OSM    H7T16235   3.457   3.805   2.550  1.3245  0.2940  5.4003
  147OSM    C8S16236   3.518   3.962   2.668  0.3371  0.3467 -0.6749
  147OSM    H8S16237   3.419   3.966   2.720 -0.2142 -0.9581 -1.5552
  147OSM    H8T16238   3.557   4.063   2.647  0.3073  0.1359 -1.7813
  147OSM    C9S16239   3.606   3.872   2.749 -0.5788 -0.8181  0.1863
  147OSM    H9S16240   3.704   3.854   2.698 -1.4059 -1.1435 -1.3534
  147OSM    H9T16241   3.551   3.777   2.767 -0.1766 -1.1309 -0.2094
  147OSM   C10S16242   3.639   3.933   2.877  0.4757  0.5020 -0.4697
  147OSM   H10S16243   3.542   3.942   2.930  0.3362 -4.2245  0.4831
  147OSM   H10T16244   3.673   4.037   2.859 -0.3185  0.7585 -0.5029
  147OSM   C11S16245   3.731   3.846   2.959 -0.7277 -0.5660  0.4651
  147OSM   H11S16246   3.828   3.851   2.905 -0.4589 -0.4184  0.9547
  147OSM   H11T16247   3.691   3.743   2.952  0.0183 -0.7180 -2.5662
  147OSM   C12S16248   3.747   3.894   3.105 -0.8632 -0.1119 -0.4107
  147OSM   H12S16249   3.650   3.894   3.159 -1.0995 -2.4282 -0.7149
  147OSM   H12T16250   3.796   3.994   3.099  0.8541 -0.8907 -0.1687
  147OSM   C13S16251   3.833   3.800   3.184 -0.2711 -0.0560 -0.6763
  147OSM   H13S16252   3.936   3.788   3.147  0.9007  1.1716  1.9145
  147OSM   H13T16253   3.778   3.703   3.186 -1.6952  0.7195 -0.5423
  147OSM   C14S16254   3.849   3.859   3.320 -0.4270  0.3667 -0.0569
  147OSM   H14S16255   3.749   3.876   3.364 -0.2940 -1.5079  1.0699
  147OSM   H14T16256   3.895   3.960   3.312  0.0186  0.0422 -2.2470
  147OSM   C15S16257   3.936   3.756   3.408 -0.2742  0.0743 -0.0743
  147OSM   H15S16258   3.956   3.663   3.351  0.4668  0.3656 -0.2931
  147OSM   H15T16259   3.868   3.727   3.491 -1.7940  3.4251  0.0445
  147OSM   C16S16260   4.073   3.812   3.455  0.3510 -0.2295  0.1527
  147OSM   H16S16261   4.054   3.918   3.483 -1.4952 -0.2048 -1.0114
  147OSM   H16T16262   4.142   3.815   3.368 -0.5691 -1.9935 -0.6946
  147OSM   C17S16263   4.149   3.733   3.566  0.3223  0.3234 -0.0560
  147OSM   H17S16264   4.093   3.734   3.661  1.1849  0.4852  0.4612
  147OSM   H17T16265   4.247   3.783   3.583  0.9069 -0.9978  0.5615
  147OSM   C18S16266   4.184   3.591   3.536 -0.2496  0.0795  0.2947
  147OSM   H18S16267   4.101   3.519   3.543  1.7959 -2.6303 -1.1507
  147OSM   H18T16268   4.255   3.550   3.610 -1.8964 -2.1005  0.7373
  147OSM   H18U16269   4.216   3.584   3.429 -0.7148  0.1943  0.1442
  147OSM    C1F16270   3.473   3.516   2.226  0.1121 -0.4010 -0.0366
  147OSM     OF16271   3.575   3.489   2.167 -0.0023  0.4109 -0.4530
  147OSM    C2F16272   3.431   3.441   2.344 -0.2680  0.0612 -0.0661
  147OSM    H2F16273   3.373   3.361   2.292 -0.5696  1.2728 -1.6845
  147OSM    H2G16274   3.364   3.498   2.412  0.6434  1.3109 -0.1878
  147OSM    C3F16275   3.555   3.395   2.426  0.3323 -0.4170  0.2834
  147OSM    H3F16276   3.630   3.477   2.431  2.8811 -2.3904 -2.2003
  147OSM    H3G16277   3.601   3.318   2.361 -1.2476  1.0118 -2.7611
  147OSM    C4F16278   3.527   3.358   2.571  0.5364  0.4601 -0.4353
  147OSM    H4F16279   3.604   3.288   2.609  0.0771  0.6004  0.7850
  147OSM    H4G16280   3.432   3.300   2.566  1.7702 -1.6603 -0.4715
  147OSM    C5F16281   3.515   3.474   2.673  0.1684  0.5222  0.6151
  147OSM    H5F16282   3.426   3.532   2.640 -0.1080 -0.1545  0.1441
  147OSM    H5G16283   3.606   3.537   2.682  1.3765 -0.8877 -0.9598
  147OSM    C6F16284   3.481   3.415   2.816  0.0244  0.2225  0.4628
  147OSM    H6F16285   3.542   3.330   2.851 -1.9599 -1.0403  1.0274
  147OSM    H6G16286   3.380   3.370   2.826 -0.0588  0.4506  0.6568
  147OSM    C7F16287   3.499   3.533   2.915  0.4059  0.1914  1.0380
  147OSM    H7F16288   3.496   3.625   2.854 -1.6907 -0.1147  0.6179
  147OSM    H7G16289   3.598   3.516   2.963  0.5022 -0.8165  0.5023
  147OSM    C8F16290   3.383   3.542   3.024  0.0483  0.0414 -0.1718
  147OSM    H8F16291   3.293   3.515   2.965  0.8978  3.5962 -3.5155
  147OSM    H8G16292   3.371   3.649   3.050 -0.2461 -0.2024  0.7411
  147OSM    C9F16293   3.387   3.453   3.142 -0.0235 -0.4101 -0.0878
  147OSM    H9F16294   3.317   3.369   3.142  0.7969 -1.1005 -0.2950
  147OSM   C10F16295   3.448   3.486   3.260  0.3493 -0.1954 -0.1583
  147OSM   H10F16296   3.439   3.411   3.340  3.2902 -0.7800 -0.2800
  147OSM   C11F16297   3.525   3.614   3.299 -0.0182  0.3524  0.1868
  147OSM   H11F16298   3.564   3.656   3.204 -1.2101  2.1084  0.4277
  147OSM   H11G16299   3.606   3.597   3.373 -0.0809  2.3294  0.7620
  147OSM   C12F16300   3.436   3.732   3.357 -0.4723 -0.2053 -0.0704
  147OSM   H12F16301   3.343   3.740   3.297  1.3569 -1.2797 -3.2542
  147OSM   H12G16302   3.496   3.822   3.331 -1.7728  0.9230  0.6312
  147OSM   C13F16303   3.412   3.731   3.511 -0.4533  0.3928 -0.3950
  147OSM   H13F16304   3.348   3.644   3.536 -0.4146  0.1252 -1.2066
  147OSM   H13G16305   3.364   3.828   3.536 -0.5769  0.0709  0.6709
  147OSM   C14F16306   3.540   3.719   3.609 -0.7407 -0.6034  0.3211
  147OSM   H14F16307   3.602   3.808   3.585  0.8283 -1.3698  1.3396
  147OSM   H14G16308   3.589   3.625   3.577 -2.0555 -0.4435 -2.4441
  147OSM   C15F16309   3.515   3.726   3.764  0.3805 -0.1632 -0.1951
  147OSM   H15F16310   3.456   3.640   3.800  0.6378 -0.3207 -0.1501
  147OSM   H15G16311   3.458   3.821   3.774  1.8896  0.5837  2.0837
  147OSM   C16F16312   3.646   3.735   3.843  1.5658 -0.0775 -0.1790
  147OSM   H16F16313   3.623   3.761   3.949  0.9724  0.7266 -0.4930
  147OSM   H16G16314   3.715   3.810   3.798  0.2614  1.8195  0.8534
  147OSM   C17F16315   3.711   3.599   3.846  0.6206 -0.6022 -0.5314
  147OSM   H17F16316   3.730   3.549   3.749  1.2323 -2.0171  0.2944
  147OSM   H17G16317   3.644   3.539   3.911  0.9737 -0.2161  0.2023
  147OSM   C18F16318   3.848   3.607   3.915  0.6022 -0.4546 -0.0180
  147OSM   H18F16319   3.886   3.504   3.935  3.0869  0.1734 -1.0672
  147OSM   H18G16320   3.833   3.663   4.010  0.9937 -2.0382  1.0278
  147OSM   H18H16321   3.915   3.663   3.847  0.3674 -0.7120 -0.4663
  148OSM      N16322   3.549   2.411   1.695  0.1340 -0.6579 -0.3570
  148OSM    C1516323   3.509   2.315   1.590  0.1783 -0.5593  0.1950
  148OSM   H15A16324   3.595   2.280   1.535  0.1958  1.9773 -1.5932
  148OSM   H15B16325   3.443   2.360   1.518 -0.1301  0.4443  1.0769
  148OSM   H15C16326   3.444   2.238   1.628  0.3398 -2.7292 -3.5256
  148OSM    C1416327   3.425   2.426   1.781  0.2109  0.6351  0.2488
  148OSM   H14A16328   3.389   2.339   1.835 -0.3832  1.8915  1.9795
  148OSM   H14B16329   3.340   2.431   1.715 -0.6385 -2.1114  0.9856
  148OSM   H14C16330   3.418   2.520   1.833 -0.6152  0.9645 -0.4445
  148OSM    C1316331   3.663   2.363   1.782 -0.4747  0.1035  0.3688
  148OSM   H13A16332   3.684   2.435   1.860  2.0150  0.9891 -0.9908
  148OSM   H13B16333   3.750   2.362   1.717 -0.3056 -1.2659  0.5950
  148OSM   H13C16334   3.642   2.267   1.827 -2.3910  0.5143  0.4218
  148OSM    C1216335   3.571   2.545   1.635 -0.3551 -0.2587 -0.2394
  148OSM   H12A16336   3.660   2.541   1.573 -1.1139 -2.1869 -1.2657
  148OSM   H12B16337   3.589   2.611   1.719 -0.7253 -1.1235  0.5354
  148OSM    C1116338   3.458   2.621   1.559  0.0773 -0.2991 -0.5031
  148OSM   H11A16339   3.441   2.547   1.478  1.1835  0.5399 -1.5500
  148OSM   H11B16340   3.500   2.716   1.518 -2.7494  2.0845  1.6802
  148OSM      P16341   3.201   2.660   1.587  0.1236 -0.5484 -0.1067
  148OSM    O1316342   3.168   2.796   1.538  0.4339 -0.0141 -0.6144
  148OSM    O1416343   3.182   2.549   1.490 -0.5572 -0.1917 -0.1735
  148OSM    O1116344   3.104   2.627   1.715 -0.1268  0.3916 -0.1167
  148OSM    O1216345   3.353   2.666   1.642  0.3821 -0.1079  0.6688
  148OSM    C1S16346   3.155   2.673   1.842  0.1933 -0.0046 -0.5642
  148OSM    H1S16347   3.174   2.782   1.836 -1.2457  0.2316 -1.3813
  148OSM    H1T16348   3.250   2.622   1.867 -0.2194 -1.0144 -0.9932
  148OSM     NF16349   3.144   2.675   2.086 -0.0087  0.5449  0.6111
  148OSM    HNF16350   3.198   2.607   2.134  0.8374 -0.0961 -1.1566
  148OSM    C2S16351   3.069   2.633   1.964  0.2337  0.3504  0.2143
  148OSM    H2S16352   2.967   2.678   1.961  0.0851  0.3996  3.1277
  148OSM    C3S16353   3.041   2.480   1.968 -0.9048 -0.0366  0.5983
  148OSM    H3S16354   3.140   2.432   1.984 -2.0116 -2.3726  0.9307
  148OSM     O316355   2.996   2.422   1.846  0.2967 -0.3053  0.2739
  148OSM    HO316356   3.003   2.504   1.795 -0.8613 -1.0565 -1.1746
  148OSM    C4S16357   2.955   2.447   2.084 -0.0120  0.4976 -0.2620
  148OSM    H4S16358   2.863   2.508   2.084 -0.4537 -0.0747  2.5728
  148OSM    C5S16359   2.978   2.358   2.178 -0.1446  0.6145 -0.1434
  148OSM    H5S16360   3.066   2.292   2.175 -0.0603  0.7678 -2.0760
  148OSM    C6S16361   2.881   2.326   2.288 -0.0181  0.5348  0.0559
  148OSM    H6S16362   2.851   2.220   2.277 -3.0350  1.3083  0.1078
  148OSM    H6T16363   2.782   2.374   2.274 -0.8181 -0.6945  1.3033
  148OSM    C7S16364   2.930   2.352   2.428  0.8238  0.1291  0.0987
  148OSM    H7S16365   2.948   2.459   2.451  0.8607 -0.0368  0.8778
  148OSM    H7T16366   3.031   2.307   2.440  0.6109  0.0327  1.8557
  148OSM    C8S16367   2.840   2.286   2.532 -0.5836 -0.3090  0.9213
  148OSM    H8S16368   2.855   2.176   2.534  2.4380  0.0275  3.2392
  148OSM    H8T16369   2.735   2.321   2.519 -0.8878 -1.6937 -0.7102
  148OSM    C9S16370   2.887   2.319   2.671  0.1442  0.1869  0.3455
  148OSM    H9S16371   2.882   2.428   2.695  0.6522  0.1131  0.8327
  148OSM    H9T16372   2.993   2.285   2.668 -0.7868 -2.9609  0.2084
  148OSM   C10S16373   2.820   2.240   2.789 -0.6036 -0.8133  0.7288
  148OSM   H10S16374   2.826   2.130   2.778  0.8629 -0.6994  0.1745
  148OSM   H10T16375   2.712   2.264   2.774 -0.3010  0.5552  0.5766
  148OSM   C11S16376   2.874   2.270   2.931  0.0842  0.0497 -0.1402
  148OSM   H11S16377   2.855   2.376   2.961 -0.0967 -0.5325  1.9874
  148OSM   H11T16378   2.982   2.246   2.939  0.2440  1.2352  2.1574
  148OSM   C12S16379   2.801   2.186   3.039 -0.2584  0.6253  0.1662
  148OSM   H12S16380   2.834   2.081   3.025 -0.2369  0.6756 -0.1739
  148OSM   H12T16381   2.693   2.211   3.043 -0.1397  1.2320 -0.2194
  148OSM   C13S16382   2.860   2.226   3.181  0.9039  0.1448 -0.0309
  148OSM   H13S16383   2.848   2.336   3.197  1.1159  0.1724 -0.0608
  148OSM   H13T16384   2.968   2.202   3.174  1.4423  2.6487 -2.1211
  148OSM   C14S16385   2.783   2.159   3.294 -0.6266 -0.3083  0.3682
  148OSM   H14S16386   2.757   2.052   3.278 -1.5957 -0.2913  1.6633
  148OSM   H14T16387   2.691   2.220   3.297  0.3500  1.4400 -2.1023
  148OSM   C15S16388   2.851   2.172   3.433 -0.5191  0.2903 -0.6885
  148OSM   H15S16389   2.949   2.120   3.430 -0.8195 -0.4076  0.7174
  148OSM   H15T16390   2.787   2.131   3.514  0.9938  0.1953  0.4992
  148OSM   C16S16391   2.879   2.317   3.479  0.1674 -0.3590 -0.2192
  148OSM   H16S16392   2.776   2.357   3.472  0.5359  0.5971 -0.3043
  148OSM   H16T16393   2.949   2.363   3.406  1.3976  2.0115  2.2710
  148OSM   C17S16394   2.931   2.344   3.622  1.1860 -0.1475 -0.6224
  148OSM   H17S16395   2.859   2.287   3.686 -0.5279 -0.6842 -2.8875
  148OSM   H17T16396   2.916   2.453   3.637  0.3003 -0.5764  2.4479
  148OSM   C18S16397   3.077   2.308   3.647  0.9469 -0.3617 -0.2761
  148OSM   H18S16398   3.139   2.372   3.580 -0.9305  0.5956 -1.1913
  148OSM   H18T16399   3.110   2.203   3.640 -1.3217 -1.3498  1.9986
  148OSM   H18U16400   3.086   2.346   3.752  0.6785  0.6704 -0.6117
  148OSM    C1F16401   3.170   2.803   2.111  0.0099  0.1426 -0.5676
  148OSM     OF16402   3.121   2.884   2.038  0.1318 -0.5985  0.2701
  148OSM    C2F16403   3.255   2.830   2.233  0.4580  0.4033 -0.2225
  148OSM    H2F16404   3.347   2.769   2.226  0.5641  0.6057 -0.6168
  148OSM    H2G16405   3.197   2.799   2.322  0.3092 -0.9391 -0.7699
  148OSM    C3F16406   3.305   2.972   2.257 -0.1837 -0.0536 -0.5342
  148OSM    H3F16407   3.219   3.041   2.256 -1.7581 -1.9185  0.3161
  148OSM    H3G16408   3.372   2.992   2.170  0.7112  0.9418  0.3536
  148OSM    C4F16409   3.377   2.987   2.394 -0.1405  0.6230 -0.0067
  148OSM    H4F16410   3.440   3.079   2.396  0.5224  0.1700  2.2251
  148OSM    H4G16411   3.438   2.896   2.413 -0.5320  0.5094  0.7377
  148OSM    C5F16412   3.275   2.983   2.513 -0.8850 -0.2555  0.3010
  148OSM    H5F16413   3.248   2.876   2.528  0.1491 -0.4785  0.6321
  148OSM    H5G16414   3.192   3.039   2.464 -2.7590 -0.9595  2.4784
  148OSM    C6F16415   3.316   3.050   2.643 -0.5542 -0.7562 -0.4629
  148OSM    H6F16416   3.240   3.040   2.723 -0.4180  0.6459 -0.1291
  148OSM    H6G16417   3.318   3.160   2.627  3.3683 -0.3563  1.4553
  148OSM    C7F16418   3.449   3.003   2.702 -0.3529  0.2034  0.1143
  148OSM    H7F16419   3.528   3.067   2.658  1.1769 -1.3241  0.5468
  148OSM    H7G16420   3.483   2.902   2.673 -0.5528 -0.5111  2.2383
  148OSM    C8F16421   3.441   3.005   2.859  0.6702  0.2000 -0.2698
  148OSM    H8F16422   3.400   3.101   2.898 -0.6564 -0.3128 -0.3484
  148OSM    H8G16423   3.546   3.016   2.893  0.7500  1.0196 -0.7594
  148OSM    C9F16424   3.372   2.882   2.911 -0.3206 -0.2066  0.2553
  148OSM    H9F16425   3.364   2.800   2.838  0.6572 -0.8353  0.8316
  148OSM   C10F16426   3.337   2.875   3.035 -0.0346 -0.1225 -0.4589
  148OSM   H10F16427   3.273   2.796   3.079 -0.0624  0.9165  1.5078
  148OSM   C11F16428   3.369   2.982   3.145  0.3638  1.0253  1.0646
  148OSM   H11F16429   3.469   3.024   3.120 -0.4916  1.7751 -1.4109
  148OSM   H11G16430   3.380   2.920   3.236  1.5550 -2.2859 -1.1456
  148OSM   C12F16431   3.261   3.093   3.168 -0.5688  0.6138  0.0761
  148OSM   H12F16432   3.248   3.141   3.068  2.1412  0.1706 -0.5761
  148OSM   H12G16433   3.301   3.157   3.250  0.3457  1.0872 -0.7180
  148OSM   C13F16434   3.126   3.041   3.216  0.3572 -0.0002  0.0057
  148OSM   H13F16435   3.134   2.959   3.290 -0.1803 -0.3162 -0.2827
  148OSM   H13G16436   3.065   2.997   3.135  1.0069 -2.8796  0.9705
  148OSM   C14F16437   3.043   3.157   3.283  0.1667  0.5526  0.3847
  148OSM   H14F16438   2.944   3.112   3.304  0.2121  0.7121  0.9668
  148OSM   H14G16439   3.029   3.246   3.217 -0.4747  0.4456  0.3776
  148OSM   C15F16440   3.103   3.206   3.414 -0.6403  0.2937 -1.4019
  148OSM   H15F16441   3.207   3.240   3.393 -0.2059 -0.5222 -0.6369
  148OSM   H15G16442   3.101   3.121   3.486 -0.5898  0.7158 -0.9002
  148OSM   C16F16443   3.028   3.320   3.471 -0.5122 -0.6627 -0.0702
  148OSM   H16F16444   2.919   3.301   3.480 -0.6020  0.3281  1.3730
  148OSM   H16G16445   3.051   3.398   3.395  1.5055 -0.6696  0.4622
  148OSM   C17F16446   3.079   3.363   3.609  0.1697  0.2417  0.3480
  148OSM   H17F16447   3.050   3.296   3.693 -0.3334  0.0049 -0.0144
  148OSM   H17G16448   3.030   3.460   3.631  0.2110  0.3737 -0.1338
  148OSM   C18F16449   3.229   3.391   3.628  0.2627 -0.0748  0.3833
  148OSM   H18F16450   3.252   3.432   3.729  0.0025 -0.6126  0.6663
  148OSM   H18G16451   3.262   3.452   3.541  0.5811 -1.0678 -0.2116
  148OSM   H18H16452   3.292   3.299   3.620 -0.1580 -0.2297 -1.5389
  149OSM      N16453   4.385   2.154   1.575 -0.3695  0.3015 -0.2542
  149OSM    C1516454   4.241   2.105   1.608 -0.3880  0.1435  0.1171
  149OSM   H15A16455   4.248   2.014   1.664  0.0387  0.1429  0.0702
  149OSM   H15B16456   4.187   2.099   1.515 -1.3936 -0.0987  0.7091
  149OSM   H15C16457   4.202   2.186   1.669 -1.6948 -0.7321  0.4779
  149OSM    C1416458   4.450   2.035   1.507 -0.2562 -0.0403  1.1169
  149OSM   H14A16459   4.489   1.969   1.583  1.2137 -0.4330  0.0519
  149OSM   H14B16460   4.525   2.053   1.432 -1.9365 -0.6031 -0.7990
  149OSM   H14C16461   4.374   1.971   1.466  1.0306 -1.1442  0.4047
  149OSM    C1316462   4.390   2.282   1.496 -0.0117  0.4002 -0.1344
  149OSM   H13A16463   4.490   2.316   1.480 -0.1410  0.0267 -1.8944
  149OSM   H13B16464   4.328   2.354   1.547 -0.7014 -0.6979  0.6370
  149OSM   H13C16465   4.350   2.268   1.397  2.2310  0.5951 -1.1247
  149OSM    C1216466   4.464   2.172   1.702  0.5420 -0.2496 -0.0551
  149OSM   H12A16467   4.570   2.170   1.681  0.5327  0.1574 -0.1594
  149OSM   H12B16468   4.441   2.084   1.760 -0.6316  1.2971  1.9638
  149OSM    C1116469   4.445   2.296   1.793 -0.3176 -0.4126  0.4055
  149OSM   H11A16470   4.461   2.391   1.736  0.6306 -0.8653 -0.1040
  149OSM   H11B16471   4.523   2.299   1.873  0.0714  2.2565  0.0359
  149OSM      P16472   4.269   2.196   1.967  0.0904  0.1290  0.0085
  149OSM    O1316473   4.153   2.251   2.034 -0.3004  0.1769 -0.3755
  149OSM    O1416474   4.262   2.062   1.909 -0.5018  0.6143 -0.5233
  149OSM    O1116475   4.391   2.197   2.060  0.2777  0.0293 -0.0566
  149OSM    O1216476   4.314   2.299   1.851  0.4501 -0.2617 -0.4324
  149OSM    C1S16477   4.432   2.303   2.150 -0.4346 -0.3097  0.0756
  149OSM    H1S16478   4.368   2.392   2.133  0.6357  0.5270  0.3196
  149OSM    H1T16479   4.539   2.327   2.131 -0.2531 -0.5843  0.7228
  149OSM     NF16480   4.457   2.372   2.391  0.9184  0.5007  0.5481
  149OSM    HNF16481   4.549   2.386   2.425  0.9009 -2.1940  1.9524
  149OSM    C2S16482   4.436   2.255   2.302  0.8921  0.0456 -0.1094
  149OSM    H2S16483   4.340   2.209   2.332  0.7817  0.6979  0.5597
  149OSM    C3S16484   4.550   2.141   2.310 -0.1194 -0.6355  0.7146
  149OSM    H3S16485   4.640   2.199   2.281 -0.9997 -0.0988 -1.1266
  149OSM     O316486   4.529   2.034   2.212 -0.3791 -0.2988  0.0192
  149OSM    HO316487   4.461   2.074   2.158  0.4673  0.7417 -0.3093
  149OSM    C4S16488   4.552   2.098   2.451 -0.0059 -0.1707 -0.4991
  149OSM    H4S16489   4.616   2.161   2.516 -0.0480  0.0462 -0.6681
  149OSM    C5S16490   4.474   2.007   2.506  0.1790 -0.4522  0.1763
  149OSM    H5S16491   4.402   1.947   2.448  1.4244  0.8452 -2.9335
  149OSM    C6S16492   4.490   1.977   2.653  0.7279  0.0132  0.2342
  149OSM    H6S16493   4.476   1.868   2.667 -0.6022 -0.1258 -1.7911
  149OSM    H6T16494   4.394   2.011   2.699  0.0674 -1.6311  0.1238
  149OSM    C7S16495   4.589   2.044   2.746  0.1876  0.1082  0.2324
  149OSM    H7S16496   4.569   2.152   2.758 -0.9942 -0.1717  0.9368
  149OSM    H7T16497   4.689   2.036   2.698 -0.0482  0.7928 -0.3865
  149OSM    C8S16498   4.611   1.963   2.872  0.3953  0.1083 -0.0707
  149OSM    H8S16499   4.696   1.892   2.870 -0.1510 -0.6888  2.0878
  149OSM    H8T16500   4.524   1.897   2.893 -0.7891  0.8118 -2.3416
  149OSM    C9S16501   4.627   2.060   2.983  0.1756 -0.0780  0.1671
  149OSM    H9S16502   4.526   2.099   3.008 -1.0255 -1.5414 -2.0387
  149OSM    H9T16503   4.697   2.138   2.947  0.4548  0.2465  1.3889
  149OSM   C10S16504   4.694   1.997   3.106  0.5233 -0.3954 -0.0369
  149OSM   H10S16505   4.693   2.081   3.179 -0.7521  0.1712 -0.6651
  149OSM   H10T16506   4.795   1.960   3.080  0.1590 -2.0880  0.8143
  149OSM   C11S16507   4.615   1.887   3.173  0.4772 -0.2002  0.4867
  149OSM   H11S16508   4.616   1.793   3.113  1.9956 -0.1594  0.4074
  149OSM   H11T16509   4.510   1.923   3.164  1.7206  3.9523  0.6934
  149OSM   C12S16510   4.674   1.869   3.304 -0.1255  0.3944 -0.2417
  149OSM   H12S16511   4.666   1.955   3.375  0.0309  0.4693 -0.3137
  149OSM   H12T16512   4.781   1.845   3.287  0.9972  2.6637  2.6935
  149OSM   C13S16513   4.604   1.748   3.379  0.4412  0.1880 -0.3798
  149OSM   H13S16514   4.599   1.661   3.310  0.2339  0.5343 -0.8079
  149OSM   H13T16515   4.503   1.784   3.409  0.9409 -0.4356  2.3052
  149OSM   C14S16516   4.661   1.702   3.514  0.0256 -0.0494 -0.3502
  149OSM   H14S16517   4.670   1.784   3.589 -1.5965 -0.8739  0.8190
  149OSM   H14T16518   4.764   1.666   3.494  0.9896  1.6589  1.2570
  149OSM   C15S16519   4.576   1.591   3.595  1.3343 -0.3029  0.2879
  149OSM   H15S16520   4.547   1.509   3.526  1.6138  1.0473 -1.4998
  149OSM   H15T16521   4.483   1.649   3.612  0.2117 -1.2423 -2.2306
  149OSM   C16S16522   4.649   1.535   3.717 -0.7058  0.2481  0.0120
  149OSM   H16S16523   4.713   1.621   3.748  0.9072 -0.3869 -1.4216
  149OSM   H16T16524   4.707   1.444   3.690 -0.4111  0.0968  1.0772
  149OSM   C17S16525   4.558   1.489   3.830  1.1122  0.0826  0.9785
  149OSM   H17S16526   4.501   1.403   3.788  0.7325  1.4285 -1.4629
  149OSM   H17T16527   4.483   1.569   3.852  0.0647 -0.7064  0.4054
  149OSM   C18S16528   4.634   1.452   3.947 -0.1134 -0.2774 -0.5138
  149OSM   H18S16529   4.578   1.428   4.041  0.2578  0.1841 -0.1731
  149OSM   H18T16530   4.723   1.515   3.967  0.9861 -2.4709  2.4520
  149OSM   H18U16531   4.674   1.351   3.922 -0.8616 -0.3040 -1.6718
  149OSM    C1F16532   4.371   2.479   2.394  0.2355  0.0279  0.6816
  149OSM     OF16533   4.268   2.492   2.329 -0.2881  0.1789  0.3628
  149OSM    C2F16534   4.410   2.595   2.478  0.1973 -1.0389  0.0287
  149OSM    H2F16535   4.379   2.685   2.420 -1.0377 -2.3182 -1.3881
  149OSM    H2G16536   4.519   2.610   2.489  0.0469  0.8161 -0.7039
  149OSM    C3F16537   4.348   2.589   2.614 -0.4342  0.1498 -0.5055
  149OSM    H3F16538   4.237   2.590   2.613 -0.5080 -0.2894  1.7553
  149OSM    H3G16539   4.378   2.680   2.671  0.0986 -0.5269  0.3163
  149OSM    C4F16540   4.389   2.459   2.689 -0.1470 -0.4153  0.3402
  149OSM    H4F16541   4.498   2.442   2.678 -0.6530 -2.5617 -2.7205
  149OSM    H4G16542   4.337   2.373   2.642 -0.5644 -0.4500  0.8686
  149OSM    C5F16543   4.350   2.471   2.833  0.3154 -0.3063 -0.5485
  149OSM    H5F16544   4.241   2.488   2.839  0.1369 -1.1235 -1.2717
  149OSM    H5G16545   4.399   2.564   2.869  0.2727 -0.7961  0.8144
  149OSM    C6F16546   4.399   2.352   2.924  0.8939 -0.2371 -0.5503
  149OSM    H6F16547   4.508   2.332   2.919  1.3070  1.7725 -0.3682
  149OSM    H6G16548   4.329   2.270   2.901  1.2713 -0.7469  0.0872
  149OSM    C7F16549   4.381   2.388   3.077  0.0016 -0.1082  0.6535
  149OSM    H7F16550   4.415   2.297   3.131  2.8203 -0.9847 -2.3219
  149OSM    H7G16551   4.277   2.425   3.092  0.3697  0.7327  1.1835
  149OSM    C8F16552   4.468   2.496   3.136  0.0319 -0.1897  0.1834
  149OSM    H8F16553   4.442   2.593   3.089  2.0011 -0.6176 -1.9244
  149OSM    H8G16554   4.575   2.472   3.121  0.5777 -0.2181  3.3925
  149OSM    C9F16555   4.456   2.528   3.284  0.2021 -0.6791  0.1071
  149OSM    H9F16556   4.405   2.624   3.304 -1.5935 -1.5967  0.0711
  149OSM   C10F16557   4.501   2.456   3.385 -0.0555 -0.5248  0.6145
  149OSM   H10F16558   4.481   2.480   3.490  1.0388 -0.9180  0.9230
  149OSM   C11F16559   4.572   2.328   3.380 -0.1045  0.0750  0.0643
  149OSM   H11F16560   4.667   2.328   3.438  0.6930 -0.7802 -1.1794
  149OSM   H11G16561   4.606   2.315   3.275  0.2323 -0.7506  0.2639
  149OSM   C12F16562   4.489   2.203   3.410  0.2632  0.3811  0.7136
  149OSM   H12F16563   4.551   2.120   3.370  0.9227  1.1974  0.0190
  149OSM   H12G16564   4.403   2.200   3.340 -0.6939 -0.9422  1.8753
  149OSM   C13F16565   4.442   2.178   3.551  0.5543  0.1264 -0.2804
  149OSM   H13F16566   4.366   2.097   3.544  2.1444 -1.3151 -3.2921
  149OSM   H13G16567   4.404   2.275   3.589  1.1826 -0.2419  1.3607
  149OSM   C14F16568   4.555   2.119   3.638 -0.3842  0.2745  0.1000
  149OSM   H14F16569   4.645   2.183   3.645  0.7207 -1.0021 -1.7085
  149OSM   H14G16570   4.594   2.024   3.596  1.0417  0.4286  0.9914
  149OSM   C15F16571   4.499   2.080   3.772 -0.3045 -0.4209  0.1893
  149OSM   H15F16572   4.439   2.164   3.814 -2.2634 -0.9421 -1.3803
  149OSM   H15G16573   4.582   2.054   3.841  0.8272  0.9292 -0.5921
  149OSM   C16F16574   4.388   1.971   3.772  0.5966  0.0488  0.3146
  149OSM   H16F16575   4.429   1.884   3.717  0.2441 -0.5006  0.9038
  149OSM   H16G16576   4.298   2.014   3.723 -0.0368 -0.1725  1.2609
  149OSM   C17F16577   4.344   1.910   3.912  0.5002  0.6545  0.3641
  149OSM   H17F16578   4.273   1.826   3.896  0.9418  0.5476 -1.3255
  149OSM   H17G16579   4.301   1.983   3.983 -1.6971  1.3917 -1.5828
  149OSM   C18F16580   4.465   1.855   3.987  0.4579 -0.4570  0.0962
  149OSM   H18F16581   4.540   1.932   4.016  0.2095  0.0547 -0.5909
  149OSM   H18G16582   4.515   1.771   3.936  0.3740  0.3332 -1.3435
  149OSM   H18H16583   4.421   1.805   4.076  0.1156 -1.3123 -0.5376
  150OSM      N16584   2.553   4.405   1.664 -0.3045 -0.3923 -0.8092
  150OSM    C1516585   2.602   4.413   1.519 -0.0069  0.3513 -0.3396
  150OSM   H15A16586   2.535   4.470   1.456  0.3769  0.6238 -0.5071
  150OSM   H15B16587   2.613   4.313   1.479  0.2697 -1.0702  2.9923
  150OSM   H15C16588   2.694   4.468   1.506 -0.7058  1.6153 -0.0548
  150OSM    C1416589   2.651   4.339   1.750 -0.0014  0.7793 -0.1036
  150OSM   H14A16590   2.600   4.332   1.845 -0.7203  4.2188 -0.1016
  150OSM   H14B16591   2.727   4.411   1.779  0.5648  0.1862 -0.0868
  150OSM   H14C16592   2.702   4.251   1.714 -0.7322 -0.5611  1.9542
  150OSM    C1316593   2.527   4.550   1.707 -0.2502  0.8513 -0.7567
  150OSM   H13A16594   2.624   4.599   1.708 -0.4751  1.3755 -2.2367
  150OSM   H13B16595   2.487   4.549   1.807  0.8776 -0.6684 -0.2682
  150OSM   H13C16596   2.454   4.598   1.644 -2.3418 -0.5952  0.4567
  150OSM    C1216597   2.421   4.338   1.670  0.2354  0.1854  0.3096
  150OSM   H12A16598   2.439   4.241   1.626 -0.2680 -0.0444  0.6080
  150OSM   H12B16599   2.346   4.383   1.606 -0.4418 -1.8426 -0.3803
  150OSM    C1116600   2.364   4.301   1.810  0.5717 -0.1392  0.2524
  150OSM   H11A16601   2.433   4.232   1.863 -0.6051 -0.6802  1.1078
  150OSM   H11B16602   2.270   4.245   1.793 -0.9046  1.6708  2.0455
  150OSM      P16603   2.206   4.471   1.908 -0.3948  0.0588 -0.3580
  150OSM    O1316604   2.213   4.571   2.016  0.1916 -0.3769  0.2141
  150OSM    O1416605   2.167   4.520   1.776 -0.2130  0.0494  0.4433
  150OSM    O1116606   2.115   4.349   1.953 -0.2053  0.3618  0.6492
  150OSM    O1216607   2.347   4.411   1.900 -0.4658 -0.5435  0.1825
  150OSM    C1S16608   2.147   4.275   2.071 -0.1526 -1.0599  0.5072
  150OSM    H1S16609   2.251   4.292   2.106 -1.0875 -1.9890  4.2372
  150OSM    H1T16610   2.143   4.166   2.053  1.0633 -0.7925 -1.6980
  150OSM     NF16611   2.102   4.251   2.307  0.1889 -0.1596 -0.0366
  150OSM    HNF16612   2.056   4.170   2.345  0.9505  0.1756  1.6825
  150OSM    C2S16613   2.053   4.314   2.184  0.3759 -0.3077  0.9356
  150OSM    H2S16614   2.061   4.424   2.197 -1.4828 -0.1091  0.5972
  150OSM    C3S16615   1.898   4.281   2.147 -0.8975  0.1992 -0.2478
  150OSM    H3S16616   1.895   4.170   2.141  0.0150  0.1581 -0.0813
  150OSM     O316617   1.840   4.335   2.032 -0.3394  0.4738  0.5689
  150OSM    HO316618   1.911   4.379   1.986  0.3221  0.1183  1.2414
  150OSM    C4S16619   1.806   4.318   2.260  0.6030  0.3969  0.2242
  150OSM    H4S16620   1.788   4.249   2.344  1.1806 -1.4390 -1.0836
  150OSM    C5S16621   1.731   4.438   2.276 -0.1194  0.3545 -0.5624
  150OSM    H5S16622   1.752   4.527   2.215  1.8836  1.7750  1.9845
  150OSM    C6S16623   1.633   4.471   2.386  0.5172  0.2597 -0.3353
  150OSM    H6S16624   1.651   4.573   2.426  2.8548  0.1603 -0.9957
  150OSM    H6T16625   1.640   4.392   2.464  1.2872 -0.3542 -1.0082
  150OSM    C7S16626   1.489   4.444   2.332 -1.1344 -0.3889  0.2119
  150OSM    H7S16627   1.485   4.340   2.295  1.1941  0.3956 -2.6077
  150OSM    H7T16628   1.460   4.504   2.243 -1.7901 -0.6422  0.2489
  150OSM    C8S16629   1.385   4.444   2.439 -0.6733  0.1960  0.4645
  150OSM    H8S16630   1.378   4.346   2.491  0.9467 -1.3331 -1.9540
  150OSM    H8T16631   1.290   4.444   2.382  1.3503 -1.4902 -3.3180
  150OSM    C9S16632   1.389   4.567   2.537  0.0723  0.4651 -0.0113
  150OSM    H9S16633   1.475   4.560   2.607  1.4075  0.8052 -1.5616
  150OSM    H9T16634   1.295   4.562   2.596 -0.1208  0.1345 -0.3357
  150OSM   C10S16635   1.386   4.700   2.468  0.5003  0.1185  1.0367
  150OSM   H10S16636   1.318   4.675   2.384  1.1308  1.0130  0.2253
  150OSM   H10T16637   1.489   4.727   2.434  0.8255 -2.3588 -0.1675
  150OSM   C11S16638   1.335   4.817   2.556 -0.5685 -0.2530 -0.1397
  150OSM   H11S16639   1.237   4.776   2.590 -0.8592  0.9879  0.5801
  150OSM   H11T16640   1.321   4.909   2.496  0.8899  0.8204  1.0678
  150OSM   C12S16641   1.420   4.854   2.689 -0.6630 -0.3770 -0.0267
  150OSM   H12S16642   1.499   4.929   2.663  0.3261 -0.9326  1.2544
  150OSM   H12T16643   1.473   4.758   2.706 -1.1416 -1.1193 -2.3714
  150OSM   C13S16644   1.319   4.904   2.800 -0.1683  0.1022 -0.1515
  150OSM   H13S16645   1.235   4.832   2.812 -0.8784  0.8494 -0.5148
  150OSM   H13T16646   1.264   4.992   2.762 -0.2052 -0.5345 -1.6507
  150OSM   C14S16647   1.375   4.933   2.940 -0.1594  0.6415  0.1504
  150OSM   H14S16648   1.443   5.021   2.935  0.3828  0.1849 -0.9875
  150OSM   H14T16649   1.433   4.842   2.966 -0.6903 -0.6220 -2.7194
  150OSM   C15S16650   1.266   4.950   3.053  0.0487 -0.0859  0.2858
  150OSM   H15S16651   1.185   4.875   3.044 -1.5813  1.7742 -1.5434
  150OSM   H15T16652   1.228   5.054   3.041  0.4228  0.2307  1.5717
  150OSM   C16S16653   1.322   4.957   3.192  0.1654 -0.0876 -1.2691
  150OSM   H16S16654   1.417   5.015   3.188  0.9673 -0.8971  2.7169
  150OSM   H16T16655   1.351   4.855   3.224 -1.9114 -0.5160 -0.6132
  150OSM   C17S16656   1.239   5.036   3.296 -0.1577 -0.5504 -0.7178
  150OSM   H17S16657   1.235   5.144   3.271 -0.3135 -0.2777  0.4159
  150OSM   H17T16658   1.289   5.026   3.395 -1.4393 -3.1030 -0.2437
  150OSM   C18S16659   1.094   4.987   3.306 -0.4910  1.1342  0.5342
  150OSM   H18S16660   1.042   5.013   3.211  0.2821 -0.6240 -0.4192
  150OSM   H18T16661   1.039   5.038   3.388 -2.0046  0.3530  0.0359
  150OSM   H18U16662   1.109   4.877   3.320 -0.7620  0.7161 -1.9870
  150OSM    C1F16663   2.211   4.294   2.374 -0.0074 -0.3263  0.9328
  150OSM     OF16664   2.260   4.402   2.357  0.1932 -1.0085  0.5245
  150OSM    C2F16665   2.292   4.200   2.465 -0.1463  0.0225  0.4351
  150OSM    H2F16666   2.348   4.268   2.532 -0.5527  2.3241 -1.4175
  150OSM    H2G16667   2.353   4.152   2.386  0.2038  0.2472  0.5693
  150OSM    C3F16668   2.212   4.096   2.545 -0.0502 -0.1949 -0.8156
  150OSM    H3F16669   2.285   4.025   2.590  0.9065  1.9629  1.2568
  150OSM    H3G16670   2.146   4.047   2.470 -1.3562  0.0108  0.1758
  150OSM    C4F16671   2.139   4.154   2.674 -0.6372 -0.3293  0.1736
  150OSM    H4F16672   2.223   4.204   2.727 -0.2043 -2.8110  2.0267
  150OSM    H4G16673   2.124   4.069   2.744  0.3661 -0.8536 -0.2295
  150OSM    C5F16674   2.031   4.254   2.635  0.5729  0.5880  0.5141
  150OSM    H5F16675   1.951   4.198   2.582  0.8989  0.6936 -0.0987
  150OSM    H5G16676   2.062   4.339   2.571 -1.0152 -1.7421 -3.7587
  150OSM    C6F16677   1.953   4.325   2.747 -0.4824 -0.2017  0.2049
  150OSM    H6F16678   2.022   4.397   2.796 -0.1654 -0.7942  0.6528
  150OSM    H6G16679   1.941   4.247   2.825  2.8573 -2.0281 -0.8653
  150OSM    C7F16680   1.817   4.387   2.716  0.2839  0.9877  0.1515
  150OSM    H7F16681   1.763   4.300   2.671 -0.8714  0.9025  1.6308
  150OSM    H7G16682   1.831   4.472   2.646  1.2517 -1.2132 -2.5223
  150OSM    C8F16683   1.736   4.436   2.842 -0.6339 -0.2620 -0.6839
  150OSM    H8F16684   1.665   4.510   2.801 -2.3444 -1.4426  0.0103
  150OSM    H8G16685   1.812   4.481   2.909 -1.4738  1.4542 -0.8472
  150OSM    C9F16686   1.647   4.326   2.905 -0.1385 -0.5436 -0.5317
  150OSM    H9F16687   1.612   4.253   2.830 -2.5666  1.3839 -1.4501
  150OSM   C10F16688   1.619   4.321   3.039  0.7583 -0.0071 -0.1041
  150OSM   H10F16689   1.551   4.244   3.077  1.7515 -1.5075 -1.2276
  150OSM   C11F16690   1.667   4.415   3.148  0.2835 -0.2437  0.2159
  150OSM   H11F16691   1.741   4.486   3.106  0.2140 -1.9537 -3.1532
  150OSM   H11G16692   1.707   4.356   3.233 -0.5473  0.8685  1.4208
  150OSM   C12F16693   1.549   4.503   3.209  0.2272 -0.3826  0.3985
  150OSM   H12F16694   1.473   4.432   3.250 -1.2140  1.3443  0.8517
  150OSM   H12G16695   1.499   4.556   3.125  0.4935 -1.1093 -0.2291
  150OSM   C13F16696   1.586   4.601   3.318  0.0969 -0.0271  0.2167
  150OSM   H13F16697   1.614   4.701   3.279  0.7557  0.3874  1.6528
  150OSM   H13G16698   1.667   4.560   3.383 -0.4963 -1.8511 -0.1175
  150OSM   C14F16699   1.469   4.641   3.412  0.3767 -0.3985 -0.2314
  150OSM   H14F16700   1.408   4.551   3.438 -0.7387 -0.0412 -1.4780
  150OSM   H14G16701   1.401   4.714   3.364  0.4198 -0.3600 -0.2335
  150OSM   C15F16702   1.504   4.695   3.543 -0.1615 -0.1140  0.1581
  150OSM   H15F16703   1.584   4.770   3.529  1.0578 -1.1950  1.0791
  150OSM   H15G16704   1.547   4.612   3.603 -0.6025 -1.1287 -0.8979
  150OSM   C16F16705   1.390   4.765   3.618 -0.4298 -0.6897  0.1791
  150OSM   H16F16706   1.363   4.863   3.575 -0.8680 -1.0383 -0.3467
  150OSM   H16G16707   1.444   4.798   3.709 -0.2245  0.2244 -0.2649
  150OSM   C17F16708   1.266   4.680   3.635  0.0913  0.4358 -0.0421
  150OSM   H17F16709   1.290   4.582   3.683 -0.3670  1.1203  1.6543
  150OSM   H17G16710   1.210   4.668   3.540 -0.3308  0.5840  0.1844
  150OSM   C18F16711   1.164   4.748   3.729 -0.3060  0.4997  0.0819
  150OSM   H18F16712   1.154   4.853   3.694  2.7066  1.1568  0.8745
  150OSM   H18G16713   1.222   4.749   3.824  0.6585  0.7189 -0.4904
  150OSM   H18H16714   1.065   4.704   3.754 -0.1312 -0.0253 -0.1411
  151OSM      N16715   1.888   4.084   1.731  0.3963  0.6289  0.4834
  151OSM    C1516716   2.023   4.140   1.751 -0.4049  0.0030 -0.2694
  151OSM   H15A16717   2.015   4.218   1.825  0.5572 -0.1055 -0.0383
  151OSM   H15B16718   2.066   4.156   1.654  0.7679 -0.3762  0.1733
  151OSM   H15C16719   2.089   4.066   1.795 -0.5025  1.0430  1.7794
  151OSM    C1416720   1.799   4.179   1.653  0.5096  0.1930 -0.9011
  151OSM   H14A16721   1.816   4.279   1.688  0.1043  0.4957 -1.5662
  151OSM   H14B16722   1.692   4.163   1.658  0.2737  1.9061  0.2995
  151OSM   H14C16723   1.834   4.172   1.552  0.4228  0.3558 -0.9422
  151OSM    C1316724   1.895   3.961   1.647  0.1662  0.3060  0.2132
  151OSM   H13A16725   1.800   3.928   1.608  0.8770 -0.3264 -1.0393
  151OSM   H13B16726   1.929   3.877   1.706 -1.4069  0.7639  1.8554
  151OSM   H13C16727   1.967   3.954   1.567  0.0966  0.1277  0.1657
  151OSM    C1216728   1.827   4.048   1.872 -0.1200 -0.5254  0.3716
  151OSM   H12A16729   1.733   3.995   1.867 -0.6626  0.4424 -0.0170
  151OSM   H12B16730   1.817   4.137   1.932 -0.4742 -0.9473  0.9422
  151OSM    C1116731   1.921   3.958   1.963  0.4064 -1.0732  0.0228
  151OSM   H11A16732   1.875   3.948   2.064 -0.6914  2.3872 -0.0146
  151OSM   H11B16733   2.016   4.011   1.989  0.5739 -1.5687  0.4598
  151OSM      P16734   2.023   3.728   1.977 -0.0364 -0.1487 -0.2206
  151OSM    O1316735   1.962   3.592   1.959 -0.3690 -0.0558 -0.3358
  151OSM    O1416736   2.166   3.747   1.949  0.1429  0.0463 -0.0906
  151OSM    O1116737   1.996   3.764   2.125 -0.2282 -0.7643  0.3578
  151OSM    O1216738   1.945   3.839   1.896 -0.8307  0.4418 -0.3031
  151OSM    C1S16739   1.962   3.665   2.223  0.3113  0.7379  0.8382
  151OSM    H1S16740   2.037   3.584   2.212 -0.7649  0.0057 -1.9105
  151OSM    H1T16741   1.862   3.622   2.198  1.5594 -0.9601 -1.6169
  151OSM     NF16742   1.904   3.595   2.453 -0.3281 -0.1259  0.1351
  151OSM    HNF16743   1.815   3.608   2.496 -0.7811 -0.6965 -0.6040
  151OSM    C2S16744   1.950   3.707   2.380 -0.2043 -0.4062  0.1598
  151OSM    H2S16745   2.054   3.732   2.411 -0.2386 -0.7365  0.5502
  151OSM    C3S16746   1.862   3.838   2.377 -0.2009  0.1834 -0.6746
  151OSM    H3S16747   1.768   3.835   2.318 -1.4507  0.6244  1.2135
  151OSM     O316748   1.930   3.945   2.312  1.0694  0.5707  0.2452
  151OSM    HO316749   1.975   3.908   2.236  1.7175  0.0209  0.8827
  151OSM    C4S16750   1.840   3.886   2.518  0.7318  0.0987  0.2799
  151OSM    H4S16751   1.934   3.922   2.564 -0.6559  1.6668  2.0634
  151OSM    C5S16752   1.719   3.881   2.578  0.0974  0.0178 -0.0505
  151OSM    H5S16753   1.641   3.823   2.526  1.3609 -0.1016 -1.9218
  151OSM    C6S16754   1.695   3.923   2.719 -0.3043 -0.0976 -0.4423
  151OSM    H6S16755   1.607   3.862   2.747  0.4813 -0.8273  0.5226
  151OSM    H6T16756   1.652   4.025   2.725 -0.0129  0.0374 -0.6132
  151OSM    C7S16757   1.814   3.903   2.819  0.4536  0.1211  0.2123
  151OSM    H7S16758   1.774   3.935   2.918  0.2725 -1.3620  0.6343
  151OSM    H7T16759   1.893   3.978   2.800  0.7994 -0.4949 -0.8271
  151OSM    C8S16760   1.865   3.761   2.830 -0.4616  0.1906  0.0129
  151OSM    H8S16761   1.897   3.716   2.733  0.8874  1.4588 -0.1703
  151OSM    H8T16762   1.781   3.693   2.857  1.3376 -2.2007 -0.0635
  151OSM    C9S16763   1.968   3.734   2.937  0.6389 -0.0355  0.8037
  151OSM    H9S16764   1.920   3.721   3.036  2.8865  1.8486  2.2615
  151OSM    H9T16765   2.035   3.818   2.968  1.1181 -0.6037  1.3369
  151OSM   C10S16766   2.072   3.624   2.913  0.3508  0.4816  0.3587
  151OSM   H10S16767   2.130   3.624   2.818 -1.0404 -0.9248 -0.5498
  151OSM   H10T16768   2.019   3.526   2.915 -0.2874  0.7442 -1.7319
  151OSM   C11S16769   2.182   3.614   3.025  0.4114  0.0723  0.0766
  151OSM   H11S16770   2.249   3.701   3.005  1.0053 -0.2696  0.5305
  151OSM   H11T16771   2.222   3.511   3.021  1.3934  0.3903  1.0161
  151OSM   C12S16772   2.130   3.640   3.167 -0.6714  0.2945  0.1013
  151OSM   H12S16773   2.083   3.544   3.195  3.5046 -1.6104  1.3080
  151OSM   H12T16774   2.071   3.731   3.189  0.7573  1.0017  1.1745
  151OSM   C13S16775   2.248   3.649   3.266  0.0084  0.2622  0.4731
  151OSM   H13S16776   2.321   3.727   3.237  1.9963 -2.1246 -1.4483
  151OSM   H13T16777   2.305   3.554   3.259 -0.5740 -0.0005 -1.2308
  151OSM   C14S16778   2.207   3.669   3.407 -0.4171 -0.3492 -0.2850
  151OSM   H14S16779   2.144   3.760   3.406 -0.9512 -0.6156  2.1637
  151OSM   H14T16780   2.293   3.697   3.473  0.0444 -1.2241 -0.4970
  151OSM   C15S16781   2.128   3.549   3.471  0.1972  0.0696  0.0924
  151OSM   H15S16782   2.065   3.496   3.395  0.1787  0.3295 -0.0779
  151OSM   H15T16783   2.047   3.587   3.537  1.5977  1.5736  1.0060
  151OSM   C16S16784   2.208   3.452   3.556  0.2776  0.3353  0.0130
  151OSM   H16S16785   2.244   3.513   3.641  1.7738  4.0768 -2.9780
  151OSM   H16T16786   2.288   3.405   3.496  1.2612  0.9298  0.8369
  151OSM   C17S16787   2.115   3.331   3.594 -0.6313  0.0327 -0.5246
  151OSM   H17S16788   2.171   3.234   3.588 -0.9308 -0.2066  0.3652
  151OSM   H17T16789   2.031   3.325   3.523 -0.8513  0.4558 -0.3021
  151OSM   C18S16790   2.060   3.346   3.729  0.2832  1.2026 -0.2252
  151OSM   H18S16791   2.029   3.245   3.763  0.4515  1.5027  0.8572
  151OSM   H18T16792   1.978   3.421   3.727  0.2442  1.2791  1.9703
  151OSM   H18U16793   2.135   3.389   3.799 -0.3226  0.6579  0.7884
  151OSM    C1F16794   1.981   3.488   2.477  0.5596 -0.2661  0.0829
  151OSM     OF16795   2.087   3.481   2.421 -0.0909  0.7260 -0.1853
  151OSM    C2F16796   1.934   3.400   2.582  0.1986 -0.5643  0.2299
  151OSM    H2F16797   1.839   3.347   2.561  0.4785 -1.2251  0.6082
  151OSM    H2G16798   1.914   3.454   2.678  1.3035 -0.7854  0.6068
  151OSM    C3F16799   2.036   3.293   2.617  0.4142  0.2417 -0.3252
  151OSM    H3F16800   2.133   3.347   2.616  1.2004 -1.1000  0.7588
  151OSM    H3G16801   2.039   3.215   2.538  0.4008 -1.0878  0.9493
  151OSM    C4F16802   2.001   3.221   2.752  0.5741 -0.2544 -0.6212
  151OSM    H4F16803   1.952   3.298   2.816 -2.5393 -2.5837  0.0528
  151OSM    H4G16804   2.097   3.183   2.795  1.2334  1.6661 -0.3037
  151OSM    C5F16805   1.906   3.106   2.726  0.5771 -0.1702  0.3368
  151OSM    H5F16806   1.964   3.040   2.658 -1.0336  0.1886 -1.4965
  151OSM    H5G16807   1.809   3.125   2.676 -0.1483 -0.4315  1.5994
  151OSM    C6F16808   1.856   3.031   2.856 -0.3381 -0.3382 -0.2671
  151OSM    H6F16809   1.788   3.091   2.920 -0.5791 -0.4637 -0.4050
  151OSM    H6G16810   1.938   3.011   2.929  0.0043  0.9815 -0.2588
  151OSM    C7F16811   1.761   2.913   2.820 -0.2050  0.2210  0.3912
  151OSM    H7F16812   1.824   2.827   2.788 -1.7416 -0.1639 -1.8577
  151OSM    H7G16813   1.699   2.942   2.732  0.0123  2.8995  1.0453
  151OSM    C8F16814   1.664   2.879   2.939  0.5828  0.1702  0.3530
  151OSM    H8F16815   1.598   2.802   2.894 -2.5940  1.2249  2.7855
  151OSM    H8G16816   1.601   2.968   2.958  0.6280  0.1280  0.7229
  151OSM    C9F16817   1.712   2.809   3.068 -0.7442 -0.0867  1.2274
  151OSM    H9F16818   1.735   2.703   3.053 -1.9226 -0.1962  0.0023
  151OSM   C10F16819   1.714   2.863   3.195 -0.7138  0.1538 -0.5913
  151OSM   H10F16820   1.736   2.797   3.280 -3.7867 -0.2721 -0.0339
  151OSM   C11F16821   1.677   3.004   3.237 -0.5932 -0.0539 -0.2978
  151OSM   H11F16822   1.663   3.061   3.143  0.5656 -0.6859 -0.8696
  151OSM   H11G16823   1.761   3.052   3.291 -1.5300  0.3319  0.8539
  151OSM   C12F16824   1.563   3.030   3.336  0.2913  1.1874  1.1504
  151OSM   H12F16825   1.556   3.136   3.367 -0.2603  0.7234  2.6759
  151OSM   H12G16826   1.585   2.971   3.428  0.3377  0.0105  0.4164
  151OSM   C13F16827   1.422   2.968   3.276 -0.1373  0.4462 -0.5764
  151OSM   H13F16828   1.416   2.872   3.332  3.5262 -0.1095 -0.8801
  151OSM   H13G16829   1.431   2.959   3.165  1.1649  3.0897 -0.7791
  151OSM   C14F16830   1.309   3.069   3.311 -0.3598  0.0711 -0.0747
  151OSM   H14F16831   1.309   3.088   3.420  1.6844 -0.5515  0.0604
  151OSM   H14G16832   1.208   3.027   3.292 -0.4615 -0.3547  1.3182
  151OSM   C15F16833   1.309   3.197   3.231 -0.6250 -0.8243  0.0543
  151OSM   H15F16834   1.335   3.180   3.125  2.0060 -0.9268  0.6573
  151OSM   H15G16835   1.386   3.270   3.263  2.6472 -3.1118 -2.1107
  151OSM   C16F16836   1.175   3.269   3.224  0.0949  0.5803  0.1754
  151OSM   H16F16837   1.106   3.190   3.188  0.2124  0.1540  0.8707
  151OSM   H16G16838   1.177   3.334   3.134  1.5429  0.6902  0.2506
  151OSM   C17F16839   1.122   3.338   3.351 -0.1364  0.2857  0.5194
  151OSM   H17F16840   1.180   3.429   3.377  0.5077  0.6191 -1.8183
  151OSM   H17G16841   1.130   3.266   3.435 -1.2931  0.0828  0.4772
  151OSM   C18F16842   0.978   3.380   3.342 -0.6896  0.2316  1.0418
  151OSM   H18F16843   0.967   3.449   3.256  2.7750  0.7988  0.9259
  151OSM   H18G16844   0.952   3.427   3.439  4.3748  0.7926  2.4017
  151OSM   H18H16845   0.923   3.286   3.318 -0.6723 -0.3080  2.9475
  152OSM      N16846   3.090   5.987   1.889  0.2050 -0.0809 -0.1757
  152OSM    C1516847   3.092   6.005   1.743 -0.5315 -0.3110 -0.9232
  152OSM   H15A16848   2.997   6.034   1.700  0.0075  2.3695 -0.4912
  152OSM   H15B16849   3.142   5.926   1.688  0.1407  0.1831 -1.0397
  152OSM   H15C16850   3.159   6.088   1.729  3.1570 -2.6720  0.9889
  152OSM    C1416851   3.227   5.946   1.939 -0.1815  0.2469  0.0209
  152OSM   H14A16852   3.246   5.846   1.904  1.3907  0.0298  1.3616
  152OSM   H14B16853   3.231   5.942   2.047  0.4219 -1.7359 -0.0314
  152OSM   H14C16854   3.303   6.017   1.910 -1.1430  1.2590 -0.0949
  152OSM    C1316855   3.056   6.118   1.955  0.2425  0.1370 -0.5536
  152OSM   H13A16856   2.953   6.134   1.929 -0.4212 -2.3152  0.2879
  152OSM   H13B16857   3.117   6.203   1.927  0.2906  0.1765 -0.3350
  152OSM   H13C16858   3.065   6.102   2.061 -1.9065  2.0644 -0.0029
  152OSM    C1216859   2.980   5.891   1.920  0.4753  0.1535 -0.2231
  152OSM   H12A16860   2.890   5.933   1.879 -0.0623 -0.0072  0.7429
  152OSM   H12B16861   2.970   5.883   2.028 -0.4794 -0.4474 -0.3455
  152OSM    C1116862   2.973   5.742   1.868  0.1152  0.4571 -0.5881
  152OSM   H11A16863   2.975   5.736   1.757  1.3932  1.1428 -0.6227
  152OSM   H11B16864   2.873   5.710   1.906 -0.7277 -0.4157 -3.3433
  152OSM      P16865   3.073   5.606   2.072 -0.1503 -0.0809 -0.2606
  152OSM    O1316866   2.971   5.496   2.097 -0.2056  0.2579  0.0889
  152OSM    O1416867   3.218   5.581   2.105 -0.0705  0.1612 -0.0059
  152OSM    O1116868   3.032   5.743   2.147 -0.3972 -0.7674 -0.1525
  152OSM    O1216869   3.069   5.648   1.917 -0.3187  0.1091 -0.2969
  152OSM    C1S16870   3.002   5.743   2.290 -0.0690  0.0663  0.2011
  152OSM    H1S16871   2.927   5.663   2.310 -1.2171  0.6174 -1.6476
  152OSM    H1T16872   2.958   5.840   2.322  0.5277  0.0160  1.2190
  152OSM     NF16873   3.084   5.723   2.518 -0.1948 -0.0353 -0.2421
  152OSM    HNF16874   3.091   5.807   2.572 -0.4582  0.8538 -1.5522
  152OSM    C2S16875   3.129   5.724   2.382 -0.5962 -0.6247  1.0452
  152OSM    H2S16876   3.167   5.622   2.363 -1.4170 -0.9965  1.3860
  152OSM    C3S16877   3.243   5.827   2.355  0.4024 -0.0048  0.1381
  152OSM    H3S16878   3.199   5.929   2.358  1.6249  0.5656 -0.6637
  152OSM     O316879   3.297   5.817   2.227 -0.0226 -0.2237  0.3371
  152OSM    HO316880   3.256   5.741   2.185 -0.1617  0.3849 -0.6760
  152OSM    C4S16881   3.357   5.816   2.449 -0.6201 -0.8363  0.1792
  152OSM    H4S16882   3.429   5.735   2.428 -1.2766 -1.2276 -0.6463
  152OSM    C5S16883   3.393   5.903   2.543  0.1165  0.0508 -0.4550
  152OSM    H5S16884   3.333   5.992   2.568 -3.3768 -1.7650 -1.7364
  152OSM    C6S16885   3.515   5.877   2.624 -0.0021 -0.7162  0.7878
  152OSM    H6S16886   3.560   5.977   2.641  0.2593 -0.7646  0.4029
  152OSM    H6T16887   3.589   5.809   2.576 -1.4408 -0.7851 -1.4680
  152OSM    C7S16888   3.479   5.815   2.760 -0.2833  0.4648 -0.3447
  152OSM    H7S16889   3.458   5.708   2.739 -0.9933  0.5350 -0.0260
  152OSM    H7T16890   3.394   5.877   2.794 -1.0726 -1.4917  1.5081
  152OSM    C8S16891   3.595   5.805   2.863 -0.4540 -0.4654 -0.1357
  152OSM    H8S16892   3.634   5.906   2.888  1.4461 -0.6153 -2.1548
  152OSM    H8T16893   3.688   5.752   2.833  0.2311 -0.6394  2.1217
  152OSM    C9S16894   3.545   5.735   2.986 -0.1005  0.3392 -0.1449
  152OSM    H9S16895   3.552   5.627   2.962  0.5617  0.7296 -1.8005
  152OSM    H9T16896   3.437   5.755   3.008 -0.2623 -1.3043  0.6999
  152OSM   C10S16897   3.641   5.770   3.097  0.4110 -0.0533 -0.2460
  152OSM   H10S16898   3.632   5.876   3.130  0.5224 -0.0335 -0.2777
  152OSM   H10T16899   3.745   5.756   3.059  0.0857 -0.3586 -1.0354
  152OSM   C11S16900   3.631   5.678   3.227  0.3532  0.4667 -0.5991
  152OSM   H11S16901   3.687   5.583   3.213 -0.7842 -0.2951 -0.1244
  152OSM   H11T16902   3.525   5.653   3.247  0.8151 -2.4069 -1.1968
  152OSM   C12S16903   3.682   5.744   3.358 -0.2872 -0.3830 -0.5795
  152OSM   H12S16904   3.625   5.839   3.359 -0.0549 -0.2432 -0.4857
  152OSM   H12T16905   3.790   5.770   3.356  0.2211 -1.8401  2.2244
  152OSM   C13S16906   3.686   5.668   3.487  0.5541 -0.2836  0.5946
  152OSM   H13S16907   3.713   5.745   3.563 -0.9665  1.3327 -0.4335
  152OSM   H13T16908   3.773   5.600   3.478  2.0612  1.7612 -1.2249
  152OSM   C14S16909   3.547   5.606   3.534 -0.4744  0.5197  0.3128
  152OSM   H14S16910   3.558   5.554   3.632  1.8139  0.8253  0.2781
  152OSM   H14T16911   3.511   5.537   3.454 -0.8204  0.0636  0.8486
  152OSM   C15S16912   3.439   5.706   3.553  0.3503 -0.3719 -0.0715
  152OSM   H15S16913   3.349   5.645   3.574 -1.0067  1.5091 -0.1951
  152OSM   H15T16914   3.426   5.755   3.454  0.0245 -0.4822 -0.0845
  152OSM   C16S16915   3.466   5.801   3.671 -0.2902  0.7039 -0.4350
  152OSM   H16S16916   3.515   5.897   3.647 -0.4868  1.0694  0.5904
  152OSM   H16T16917   3.526   5.744   3.745 -0.8789  1.0580  0.3360
  152OSM   C17S16918   3.334   5.836   3.752  0.2917 -0.1972 -0.3933
  152OSM   H17S16919   3.361   5.905   3.834  2.3316 -0.1720 -1.0395
  152OSM   H17T16920   3.293   5.746   3.803 -0.1564 -0.4883 -1.2396
  152OSM   C18S16921   3.224   5.898   3.669  0.1864 -0.1006  0.1997
  152OSM   H18S16922   3.184   5.821   3.600  1.6190  0.0479 -0.8236
  152OSM   H18T16923   3.261   5.979   3.603 -0.4340  1.3776  1.5887
  152OSM   H18U16924   3.140   5.947   3.724  0.7224  1.3832 -0.2720
  152OSM    C1F16925   2.999   5.637   2.576 -0.0875  0.2783 -0.1013
  152OSM     OF16926   2.963   5.542   2.510 -0.4136  0.0548 -0.3879
  152OSM    C2F16927   2.956   5.670   2.716 -0.8390 -0.3071  0.3905
  152OSM    H2F16928   2.850   5.697   2.733 -0.0310  3.8431 -0.2327
  152OSM    H2G16929   3.017   5.756   2.752 -2.5351  0.5271  1.4083
  152OSM    C3F16930   2.985   5.553   2.812  0.1650 -0.4367  0.1747
  152OSM    H3F16931   3.091   5.518   2.813  0.9937  1.8572 -0.7344
  152OSM    H3G16932   2.920   5.469   2.780 -0.9187 -0.2717  1.8229
  152OSM    C4F16933   2.944   5.586   2.957  0.2948 -0.2596 -0.0303
  152OSM    H4F16934   2.837   5.615   2.966  0.6013  1.8011 -1.9426
  152OSM    H4G16935   3.020   5.659   2.994 -2.1295  2.0957  0.6718
  152OSM    C5F16936   2.949   5.453   3.039 -0.4520  0.3563 -0.8949
  152OSM    H5F16937   2.876   5.382   2.996  0.3768  0.6799 -2.9979
  152OSM    H5G16938   2.916   5.474   3.142  2.1910  0.1803  0.0690
  152OSM    C6F16939   3.085   5.395   3.067 -0.3897 -0.1688 -0.1090
  152OSM    H6F16940   3.129   5.336   2.984  3.2204  0.5384  1.1486
  152OSM    H6G16941   3.065   5.314   3.140  0.8595 -0.5027 -0.1113
  152OSM    C7F16942   3.198   5.488   3.111 -0.4111  0.2259 -1.2350
  152OSM    H7F16943   3.155   5.568   3.175  2.0932 -0.5685  1.6755
  152OSM    H7G16944   3.236   5.544   3.023  0.0605 -0.2559 -1.3429
  152OSM    C8F16945   3.324   5.424   3.188 -0.0459 -0.0541  0.3289
  152OSM    H8F16946   3.406   5.498   3.198  1.1137 -1.1454 -0.7188
  152OSM    H8G16947   3.373   5.366   3.107  0.9998  1.0143  0.1700
  152OSM    C9F16948   3.281   5.343   3.310  0.1062 -0.3454  0.4239
  152OSM    H9F16949   3.177   5.360   3.342 -0.7389 -0.6259 -2.0178
  152OSM   C10F16950   3.353   5.244   3.366  0.2200  0.3732  0.1592
  152OSM   H10F16951   3.314   5.183   3.449 -0.6780  1.7800  0.8085
  152OSM   C11F16952   3.491   5.210   3.314 -0.4758 -0.2493 -0.3620
  152OSM   H11F16953   3.509   5.256   3.214 -0.4055  1.0327  0.2183
  152OSM   H11G16954   3.492   5.102   3.290  2.2698  0.1236 -2.3921
  152OSM   C12F16955   3.609   5.243   3.405 -0.4895 -0.5363 -0.2806
  152OSM   H12F16956   3.633   5.350   3.387  0.3485 -0.6228  0.2393
  152OSM   H12G16957   3.697   5.194   3.357  0.0358  0.4058 -0.3228
  152OSM   C13F16958   3.596   5.194   3.551 -0.0229  0.7517  1.0578
  152OSM   H13F16959   3.609   5.083   3.552 -2.8137  0.2798 -1.7642
  152OSM   H13G16960   3.497   5.225   3.589 -0.5384  1.0877 -0.5072
  152OSM   C14F16961   3.703   5.248   3.640  0.5065 -0.6705 -0.8614
  152OSM   H14F16962   3.695   5.358   3.640 -2.8208 -0.7850 -2.2673
  152OSM   H14G16963   3.796   5.207   3.593 -0.0087 -2.2217 -0.6050
  152OSM   C15F16964   3.684   5.190   3.788 -0.1738 -0.4138  1.1051
  152OSM   H15F16965   3.778   5.213   3.843 -0.2005  1.7821  0.3154
  152OSM   H15G16966   3.688   5.082   3.762  4.4680  0.3638 -2.7480
  152OSM   C16F16967   3.570   5.247   3.869  0.0551 -0.0610  0.4182
  152OSM   H16F16968   3.475   5.212   3.823  0.5500 -0.3999 -0.3665
  152OSM   H16G16969   3.590   5.356   3.862 -0.0915 -0.0455  0.2152
  152OSM   C17F16970   3.577   5.203   4.015  0.4300 -0.1605  0.1918
  152OSM   H17F16971   3.676   5.239   4.050  0.7600  1.1640 -1.8947
  152OSM   H17G16972   3.569   5.093   4.016 -3.5418 -0.0498 -0.5618
  152OSM   C18F16973   3.465   5.271   4.102  0.0719  0.3846  0.4445
  152OSM   H18F16974   3.366   5.270   4.051  1.6828  0.7021 -2.9353
  152OSM   H18G16975   3.494   5.377   4.114  1.1112  0.3975 -1.8084
  152OSM   H18H16976   3.455   5.209   4.194 -1.8083  0.9172  0.6448
  153OSM      N16977   2.086   5.655   1.500 -0.0131 -0.3727 -0.1100
  153OSM    C1516978   2.068   5.773   1.590 -0.0656 -0.2188 -0.1305
  153OSM   H15A16979   1.993   5.837   1.545 -1.7074 -1.0528  1.3138
  153OSM   H15B16980   2.158   5.833   1.588  0.0978 -0.4243  0.6858
  153OSM   H15C16981   2.043   5.754   1.693 -1.0718  0.9360 -0.1334
  153OSM    C1416982   1.954   5.598   1.446  0.0897  0.7996  0.1848
  153OSM   H14A16983   1.877   5.582   1.520  1.1485  1.1898  1.4145
  153OSM   H14B16984   1.981   5.504   1.400  1.2329  0.2335  1.9031
  153OSM   H14C16985   1.910   5.654   1.365 -2.0292 -0.7288  0.1968
  153OSM    C1316986   2.165   5.699   1.380  0.1637 -0.1742  0.0367
  153OSM   H13A16987   2.193   5.613   1.320  1.4878 -2.1631  3.2525
  153OSM   H13B16988   2.259   5.746   1.404  0.1473  1.2607 -2.3437
  153OSM   H13C16989   2.106   5.768   1.322  0.3053 -0.3546 -0.3262
  153OSM    C1216990   2.168   5.561   1.572 -0.0919  0.1480  0.1319
  153OSM   H12A16991   2.254   5.611   1.614  1.5731 -1.8913 -0.6639
  153OSM   H12B16992   2.192   5.486   1.498 -2.4353 -1.4265  0.8564
  153OSM    C1116993   2.097   5.488   1.684 -0.2669  0.1805 -0.0571
  153OSM   H11A16994   2.017   5.435   1.628  0.6745  0.0821 -1.3577
  153OSM   H11B16995   2.054   5.564   1.752  0.4031  2.0141 -1.6020
  153OSM      P16996   2.323   5.418   1.808 -0.4029 -0.1709 -0.0102
  153OSM    O1316997   2.404   5.293   1.800 -0.3754 -0.7259  0.0277
  153OSM    O1416998   2.380   5.540   1.749 -0.1677  0.0569 -0.0120
  153OSM    O1116999   2.299   5.451   1.957  0.2673 -0.3826  0.0029
  153OSM    O1217000   2.177   5.393   1.752  0.1135 -0.1160 -0.3529
  153OSM    C1S17001   2.253   5.357   2.050  0.2548  0.5168  0.7306
  153OSM    H1S17002   2.347   5.311   2.087  0.8723  1.3282  0.2098
  153OSM    H1T17003   2.189   5.278   2.005 -0.4557  2.2484 -1.4411
  153OSM     NF17004   2.163   5.316   2.283  0.1499 -0.4588 -0.3976
  153OSM    HNF17005   2.069   5.292   2.307  0.1990 -0.3744 -0.1066
  153OSM    C2S17006   2.182   5.420   2.179  0.2232 -0.0814  0.4744
  153OSM    H2S17007   2.242   5.509   2.209 -1.2267  1.1924 -0.2107
  153OSM    C3S17008   2.056   5.486   2.137 -0.0102  0.1922  0.3038
  153OSM    H3S17009   1.991   5.409   2.090  1.6059 -0.9107 -0.2171
  153OSM     O317010   2.081   5.581   2.038  0.1585  0.4140 -0.8835
  153OSM    HO317011   2.161   5.546   1.997  1.3897 -0.4725  2.0261
  153OSM    C4S17012   1.974   5.551   2.247 -0.1806 -0.5728 -0.2804
  153OSM    H4S17013   2.035   5.618   2.308 -0.5179  1.4699 -2.0787
  153OSM    C5S17014   1.840   5.534   2.279 -0.4195 -0.2010  0.3937
  153OSM    H5S17015   1.776   5.468   2.220 -0.2575  1.4528 -1.7390
  153OSM    C6S17016   1.768   5.609   2.391 -0.3304  0.8442  0.3749
  153OSM    H6S17017   1.666   5.624   2.350 -0.3166 -1.2528 -0.5636
  153OSM    H6T17018   1.819   5.703   2.423  2.5327  0.1059 -1.6078
  153OSM    C7S17019   1.761   5.530   2.523  0.8236  0.1904 -0.3054
  153OSM    H7S17020   1.689   5.448   2.501  1.2119  0.1589 -1.5349
  153OSM    H7T17021   1.711   5.586   2.604 -2.1717 -3.4929  0.6922
  153OSM    C8S17022   1.896   5.465   2.569  0.1459 -0.2096 -0.2422
  153OSM    H8S17023   1.975   5.543   2.575  2.6951 -2.4150 -2.6622
  153OSM    H8T17024   1.939   5.396   2.495  2.6586 -0.6043  1.4806
  153OSM    C9S17025   1.889   5.392   2.707  0.2097 -0.1157  0.0304
  153OSM    H9S17026   1.982   5.332   2.719 -0.8938 -1.7774  0.5573
  153OSM    H9T17027   1.811   5.314   2.711  1.1446 -0.9981  1.9054
  153OSM   C10S17028   1.868   5.481   2.826 -0.0771 -0.3299  0.1396
  153OSM   H10S17029   1.769   5.533   2.834  0.1773 -0.0565  1.6974
  153OSM   H10T17030   1.946   5.560   2.824  0.0956 -0.5054 -0.9679
  153OSM   C11S17031   1.879   5.406   2.963 -0.3283  0.9351  0.3050
  153OSM   H11S17032   1.984   5.369   2.960 -0.7799 -0.4017 -3.2701
  153OSM   H11T17033   1.805   5.324   2.965  2.3133 -1.8161 -2.8361
  153OSM   C12S17034   1.860   5.490   3.091  0.7242 -0.4827  0.6311
  153OSM   H12S17035   1.751   5.502   3.108  0.0001 -1.2134 -2.7426
  153OSM   H12T17036   1.902   5.593   3.083  0.2951  0.0691  3.9971
  153OSM   C13S17037   1.916   5.418   3.220  0.3884 -0.8210  0.0097
  153OSM   H13S17038   2.007   5.364   3.186  0.0994 -0.1464 -1.9388
  153OSM   H13T17039   1.843   5.343   3.259 -0.7587  0.4815  0.4498
  153OSM   C14S17040   1.956   5.512   3.332 -0.1908  0.4679 -0.2677
  153OSM   H14S17041   1.865   5.546   3.387  0.3174 -0.1528  0.9998
  153OSM   H14T17042   2.000   5.603   3.288  2.1763 -0.4340  0.1132
  153OSM   C15S17043   2.052   5.451   3.425  0.1033 -0.6764  0.1190
  153OSM   H15S17044   2.156   5.458   3.387  0.4827  2.8527  1.4121
  153OSM   H15T17045   2.024   5.345   3.443  0.9539 -0.7419  1.1212
  153OSM   C16S17046   2.055   5.527   3.558 -0.1209  1.4094  0.3494
  153OSM   H16S17047   1.962   5.519   3.620 -0.1482 -1.0091  0.0898
  153OSM   H16T17048   2.087   5.632   3.539  3.7695  0.2962 -0.0940
  153OSM   C17S17049   2.151   5.462   3.651  0.1770 -0.2770 -0.4406
  153OSM   H17S17050   2.159   5.530   3.738 -3.1505  1.2288 -1.1524
  153OSM   H17T17051   2.248   5.450   3.598  0.0911 -1.8810 -0.2830
  153OSM   C18S17052   2.106   5.328   3.713 -0.1266  0.3081 -0.3760
  153OSM   H18S17053   2.082   5.253   3.634  0.4535 -0.8946  0.5485
  153OSM   H18T17054   2.012   5.346   3.768  0.6171  0.4761  0.8755
  153OSM   H18U17055   2.187   5.288   3.778  1.2665  0.6139 -1.8617
  153OSM    C1F17056   2.257   5.266   2.353 -0.4770 -0.6153 -0.0634
  153OSM     OF17057   2.375   5.297   2.347 -0.0562  0.4001  0.3780
  153OSM    C2F17058   2.210   5.174   2.463 -0.3904 -0.0151 -0.4671
  153OSM    H2F17059   2.197   5.075   2.413  0.0478  0.1852 -0.9917
  153OSM    H2G17060   2.107   5.204   2.491  0.5147  1.6694  1.3128
  153OSM    C3F17061   2.294   5.192   2.594 -0.9037 -0.2005 -0.4845
  153OSM    H3F17062   2.316   5.300   2.609 -2.4585 -0.1523  1.9428
  153OSM    H3G17063   2.393   5.144   2.580 -0.1616  0.7248  1.2611
  153OSM    C4F17064   2.225   5.149   2.726  0.2257 -0.6225 -0.1497
  153OSM    H4F17065   2.222   5.038   2.718  0.4229 -0.7325  1.0912
  153OSM    H4G17066   2.121   5.186   2.735  1.2898  3.3202 -1.6473
  153OSM    C5F17067   2.303   5.196   2.854  0.6080  0.4163 -1.2135
  153OSM    H5F17068   2.333   5.303   2.854  2.6041 -0.0397 -3.3690
  153OSM    H5G17069   2.400   5.143   2.846 -0.0025 -1.5974  2.5531
  153OSM    C6F17070   2.217   5.163   2.979  0.5327  0.7004 -0.5058
  153OSM    H6F17071   2.191   5.056   2.993 -0.5975  1.2262  2.0987
  153OSM    H6G17072   2.113   5.200   2.963  0.0741  0.1644  0.9969
  153OSM    C7F17073   2.266   5.225   3.115 -0.4001  0.4240  0.4867
  153OSM    H7F17074   2.175   5.210   3.177 -1.3150  0.3430 -0.8463
  153OSM    H7G17075   2.295   5.332   3.108  1.6474 -0.1743 -0.9539
  153OSM    C8F17076   2.390   5.149   3.172 -0.4175  0.5325  0.1713
  153OSM    H8F17077   2.472   5.200   3.119 -0.0286  0.9815  1.1834
  153OSM    H8G17078   2.387   5.049   3.123  1.2789 -0.2447  1.5541
  153OSM    C9F17079   2.413   5.132   3.320  0.2724 -0.2146  0.6201
  153OSM    H9F17080   2.393   5.036   3.370  0.3085  1.1834  3.5268
  153OSM   C10F17081   2.453   5.236   3.402  0.4259 -0.4866  0.3510
  153OSM   H10F17082   2.433   5.212   3.507 -1.1970 -0.1528  0.1481
  153OSM   C11F17083   2.483   5.377   3.369 -0.3106  0.2543 -0.7103
  153OSM   H11F17084   2.385   5.428   3.356 -1.0120 -0.5212  1.1316
  153OSM   H11G17085   2.537   5.379   3.272 -0.2172 -1.1628 -0.7147
  153OSM   C12F17086   2.582   5.458   3.461  0.1785  0.9051  0.0989
  153OSM   H12F17087   2.544   5.431   3.562 -0.1322  1.8812  0.2530
  153OSM   H12G17088   2.589   5.567   3.441  1.2283  1.0064  0.9313
  153OSM   C13F17089   2.724   5.396   3.454 -0.0756 -1.0091 -0.2400
  153OSM   H13F17090   2.757   5.397   3.348  0.9238 -1.9585  0.0475
  153OSM   H13G17091   2.730   5.292   3.492 -1.9481 -0.3685  1.9766
  153OSM   C14F17092   2.820   5.473   3.551 -0.1628  0.1257  0.1995
  153OSM   H14F17093   2.779   5.473   3.654  1.5279  0.6363  0.9016
  153OSM   H14G17094   2.842   5.574   3.512  0.2291 -0.3433 -0.8466
  153OSM   C15F17095   2.951   5.403   3.572  0.2224 -0.3407  0.0224
  153OSM   H15F17096   2.998   5.378   3.475 -1.0329 -1.9100 -0.2256
  153OSM   H15G17097   2.934   5.302   3.616  1.8194 -0.1144  1.2629
  153OSM   C16F17098   3.048   5.470   3.663 -0.8024  0.3300  0.8104
  153OSM   H16F17099   2.992   5.511   3.750  0.6678 -1.5244  2.7143
  153OSM   H16G17100   3.092   5.560   3.615 -0.1514 -1.1074 -1.4332
  153OSM   C17F17101   3.166   5.387   3.708  0.0921 -0.4446 -0.2726
  153OSM   H17F17102   3.211   5.348   3.614 -1.0658 -0.9571 -0.6342
  153OSM   H17G17103   3.132   5.298   3.766  1.5414 -0.0092  1.3151
  153OSM   C18F17104   3.261   5.459   3.809 -0.0485  0.4539 -0.6246
  153OSM   H18F17105   3.319   5.540   3.760 -0.4290  1.6181  0.8042
  153OSM   H18G17106   3.334   5.388   3.853 -1.9594  0.0039  2.0652
  153OSM   H18H17107   3.204   5.503   3.893  1.6754  3.6288 -0.9590
  154OSM      N17108   1.273   4.944   1.840  0.6519  0.4756 -0.2665
  154OSM    C1517109   1.379   5.040   1.877  0.3402  0.1492 -0.5816
  154OSM   H15A17110   1.412   5.094   1.789 -0.3356 -0.3382 -1.1445
  154OSM   H15B17111   1.470   4.992   1.911 -1.0414 -0.4768  2.5165
  154OSM   H15C17112   1.344   5.115   1.946  1.4904  0.0380  0.1482
  154OSM    C1417113   1.155   5.022   1.790 -0.7068  0.0842 -0.8600
  154OSM   H14A17114   1.131   5.098   1.864  0.8773  0.2526 -0.4808
  154OSM   H14B17115   1.067   4.964   1.769 -1.3827  0.8486 -0.2156
  154OSM   H14C17116   1.175   5.085   1.704 -0.7223  2.1612  0.5646
  154OSM    C1317117   1.333   4.861   1.730  0.1224  0.0354 -0.1235
  154OSM   H13A17118   1.384   4.922   1.657 -1.9640  0.7411 -1.0915
  154OSM   H13B17119   1.256   4.803   1.680 -1.2384  0.5506  1.3012
  154OSM   H13C17120   1.412   4.800   1.771 -0.8108 -2.3240 -1.6294
  154OSM    C1217121   1.240   4.846   1.957 -0.2023 -0.2875 -0.8741
  154OSM   H12A17122   1.330   4.787   1.970  0.8668  1.3471 -0.5595
  154OSM   H12B17123   1.165   4.782   1.911 -2.0715 -0.2220  1.8122
  154OSM    C1117124   1.176   4.893   2.089  0.6579 -0.2389 -0.1443
  154OSM   H11A17125   1.240   4.974   2.131  1.8288 -0.5038 -1.3344
  154OSM   H11B17126   1.176   4.810   2.162 -3.6113 -0.7183 -0.4717
  154OSM      P17127   0.912   4.854   2.043  0.1145 -0.3599  0.4558
  154OSM    O1317128   0.803   4.955   2.042  0.2293 -0.7240  0.4776
  154OSM    O1417129   0.925   4.778   1.917 -0.0828  0.0223 -0.2075
  154OSM    O1117130   0.895   4.767   2.171 -0.2860 -0.5140  0.3479
  154OSM    O1217131   1.043   4.940   2.080  0.7551  0.1669 -0.7362
  154OSM    C1S17132   0.896   4.627   2.172 -0.8658 -0.5746 -0.1804
  154OSM    H1S17133   0.957   4.582   2.090  2.1241 -0.0709  1.6583
  154OSM    H1T17134   0.793   4.585   2.174 -0.3661 -1.8200  1.0467
  154OSM     NF17135   0.949   4.434   2.316 -0.0776  0.4477  0.3120
  154OSM    HNF17136   0.890   4.393   2.385  2.4570 -0.8141  1.9003
  154OSM    C2S17137   0.963   4.575   2.303 -0.1866 -0.3265  0.2633
  154OSM    H2S17138   1.069   4.606   2.289 -0.8081  2.1497  0.4230
  154OSM    C3S17139   0.914   4.659   2.430  0.3475  0.3202  0.2639
  154OSM    H3S17140   0.803   4.651   2.425  0.1339  0.9402  2.7471
  154OSM     O317141   0.938   4.800   2.425 -0.5122  1.0442  0.1231
  154OSM    HO317142   0.933   4.826   2.332  0.5029  1.3285  0.1346
  154OSM    C4S17143   0.969   4.614   2.559 -0.3917  0.5497  0.3516
  154OSM    H4S17144   1.079   4.610   2.567 -0.5332 -0.4224  2.8579
  154OSM    C5S17145   0.902   4.560   2.660  0.4291  0.4943 -0.3868
  154OSM    H5S17146   0.794   4.553   2.640  0.1672  2.5403  0.0546
  154OSM    C6S17147   0.953   4.498   2.794 -0.2992 -0.0782  0.0933
  154OSM    H6S17148   0.938   4.387   2.796  0.7853 -0.2531 -0.5358
  154OSM    H6T17149   0.907   4.559   2.874  2.8749 -0.4360  2.3861
  154OSM    C7S17150   1.100   4.509   2.820 -0.5341  0.1071 -0.4608
  154OSM    H7S17151   1.124   4.608   2.865 -2.1807 -0.4551  1.8047
  154OSM    H7T17152   1.165   4.512   2.730 -0.3290  0.0343 -0.3160
  154OSM    C8S17153   1.166   4.402   2.920 -0.2412  0.8048 -0.4649
  154OSM    H8S17154   1.273   4.388   2.895 -0.3614 -1.0895 -0.1294
  154OSM    H8T17155   1.126   4.299   2.906 -1.2995  0.7898  2.0317
  154OSM    C9S17156   1.157   4.428   3.076 -0.0169 -0.0557 -0.1396
  154OSM    H9S17157   1.060   4.467   3.114  0.6676  1.2932  0.2755
  154OSM    H9T17158   1.228   4.512   3.088 -0.8369  0.7849 -1.0328
  154OSM   C10S17159   1.180   4.299   3.163  0.9140 -0.0589  0.5135
  154OSM   H10S17160   1.278   4.260   3.128 -0.4940 -1.6102 -1.9691
  154OSM   H10T17161   1.106   4.224   3.130 -0.8909  1.4823  0.8926
  154OSM   C11S17162   1.173   4.309   3.313 -0.2423 -0.7027  0.1829
  154OSM   H11S17163   1.069   4.345   3.333  0.4453  1.3415  0.2506
  154OSM   H11T17164   1.247   4.383   3.349 -0.8651 -0.5852  1.2881
  154OSM   C12S17165   1.191   4.180   3.387 -1.2459 -0.0231 -0.4975
  154OSM   H12S17166   1.163   4.098   3.317 -2.9176 -1.5067  1.7325
  154OSM   H12T17167   1.126   4.174   3.478 -0.6005 -0.9124 -0.0799
  154OSM   C13S17168   1.343   4.157   3.423 -0.1325 -0.1114  0.5856
  154OSM   H13S17169   1.405   4.177   3.332 -1.6456 -0.1910 -0.5024
  154OSM   H13T17170   1.355   4.050   3.450  1.1639 -0.8254 -2.3477
  154OSM   C14S17171   1.404   4.250   3.528  0.2813 -0.0411  0.3401
  154OSM   H14S17172   1.332   4.261   3.612  1.3088  0.5109  1.1552
  154OSM   H14T17173   1.416   4.352   3.486  2.2322 -0.5598 -0.4860
  154OSM   C15S17174   1.537   4.197   3.572 -0.5166 -0.0382  0.2652
  154OSM   H15S17175   1.571   4.130   3.489 -0.8113  0.5984 -0.3736
  154OSM   H15T17176   1.510   4.130   3.656  1.8478 -1.3290  0.1100
  154OSM   C16S17177   1.637   4.311   3.594  0.3788 -0.8707 -0.1740
  154OSM   H16S17178   1.588   4.378   3.669  2.0421  1.5085 -1.1113
  154OSM   H16T17179   1.663   4.373   3.506  0.0259 -0.2981  0.1210
  154OSM   C17S17180   1.769   4.270   3.662  0.3972  0.5706  0.7475
  154OSM   H17S17181   1.769   4.168   3.705  1.2575  0.2212 -0.0277
  154OSM   H17T17182   1.794   4.344   3.741  1.6582  1.4516 -0.4200
  154OSM   C18S17183   1.883   4.270   3.556  0.5991 -0.0272 -0.0443
  154OSM   H18S17184   1.974   4.265   3.620 -1.2373 -0.2474  2.6781
  154OSM   H18T17185   1.884   4.361   3.492 -0.4074  2.9180  3.7767
  154OSM   H18U17186   1.878   4.182   3.489 -0.9079  0.3890 -0.5072
  154OSM    C1F17187   1.028   4.350   2.244 -0.1595 -0.1377 -0.1709
  154OSM     OF17188   1.109   4.391   2.159  0.1907  0.5590  0.5511
  154OSM    C2F17189   0.999   4.207   2.259  0.1730  0.6695 -0.3984
  154OSM    H2F17190   0.966   4.163   2.162 -0.8012 -0.8682  0.5897
  154OSM    H2G17191   0.912   4.197   2.327  1.9202  0.9175  1.9962
  154OSM    C3F17192   1.117   4.130   2.318  0.6691 -0.0878 -0.0666
  154OSM    H3F17193   1.216   4.168   2.285  0.6533  2.9137  2.8397
  154OSM    H3G17194   1.108   4.020   2.307 -0.5762 -0.3303  2.5595
  154OSM    C4F17195   1.133   4.152   2.473  0.3524  0.2664 -0.0419
  154OSM    H4F17196   1.037   4.112   2.510  0.2533 -1.3445 -1.8443
  154OSM    H4G17197   1.140   4.257   2.509  1.9096 -0.6699  2.7375
  154OSM    C5F17198   1.256   4.091   2.536  0.5052  0.6510  0.3918
  154OSM    H5F17199   1.347   4.132   2.488  1.0459 -2.8955 -2.0062
  154OSM    H5G17200   1.255   3.985   2.505  2.1157  1.0014 -1.0006
  154OSM    C6F17201   1.263   4.126   2.686  0.2330  0.2659  0.1215
  154OSM    H6F17202   1.167   4.083   2.722 -0.0243  0.6609 -0.0762
  154OSM    H6G17203   1.269   4.237   2.695  2.9932  0.0467  1.9663
  154OSM    C7F17204   1.377   4.057   2.760 -0.4435 -0.7658 -0.5309
  154OSM    H7F17205   1.466   4.119   2.738 -0.5581 -0.3868  0.0532
  154OSM    H7G17206   1.379   3.959   2.708 -0.6042 -2.5930  2.6678
  154OSM    C8F17207   1.355   4.052   2.913  0.2453  0.7765 -0.4506
  154OSM    H8F17208   1.253   4.007   2.918  0.8143 -0.9554 -2.7685
  154OSM    H8G17209   1.347   4.152   2.961  0.3333  0.0118  1.2484
  154OSM    C9F17210   1.465   3.970   2.978  0.1856 -0.4179 -0.3796
  154OSM    H9F17211   1.561   4.022   2.970  0.9152 -1.4405  1.3284
  154OSM   C10F17212   1.465   3.854   3.051  0.7330  0.5190 -0.5673
  154OSM   H10F17213   1.560   3.800   3.062  0.9290  0.7247 -1.1900
  154OSM   C11F17214   1.339   3.772   3.073  0.0642 -0.2697  0.1841
  154OSM   H11F17215   1.373   3.668   3.092 -0.8077 -0.9569 -1.7439
  154OSM   H11G17216   1.263   3.756   2.994 -1.0176 -4.8633  1.8483
  154OSM   C12F17217   1.262   3.804   3.197 -0.1814  0.2366  0.2655
  154OSM   H12F17218   1.220   3.907   3.196 -0.3254  0.1798  0.4360
  154OSM   H12G17219   1.325   3.807   3.289  1.3470 -1.2421 -0.6672
  154OSM   C13F17220   1.151   3.702   3.213 -0.0382  0.0737 -0.0296
  154OSM   H13F17221   1.185   3.599   3.237 -2.5261 -1.5001 -2.6691
  154OSM   H13G17222   1.089   3.692   3.121  0.1343 -0.3600 -0.1008
  154OSM   C14F17223   1.052   3.755   3.320  0.3382 -0.6656 -0.3500
  154OSM   H14F17224   0.954   3.703   3.310  0.8793 -1.6131 -0.9413
  154OSM   H14G17225   1.025   3.857   3.286 -1.8356 -1.1077 -0.1470
  154OSM   C15F17226   1.110   3.745   3.456 -0.1378  0.3338 -0.1566
  154OSM   H15F17227   1.203   3.804   3.473 -0.6360  1.2266 -0.4621
  154OSM   H15G17228   1.151   3.642   3.444 -2.2908 -0.3142 -3.3146
  154OSM   C16F17229   1.014   3.767   3.577  0.6283  0.2705  0.0882
  154OSM   H16F17230   1.078   3.758   3.667  1.7307 -2.6996 -0.8756
  154OSM   H16G17231   0.939   3.685   3.569  1.0653 -0.0514 -0.8651
  154OSM   C17F17232   0.940   3.902   3.570  0.1484  0.3650 -0.5025
  154OSM   H17F17233   0.876   3.889   3.481 -1.5360 -0.3684  0.7541
  154OSM   H17G17234   1.014   3.983   3.551 -0.6570  1.5015  0.9947
  154OSM   C18F17235   0.850   3.940   3.690 -0.0822 -0.6506  0.1115
  154OSM   H18F17236   0.906   3.958   3.784 -0.7737  1.2982  0.1973
  154OSM   H18G17237   0.780   3.857   3.710 -0.7992  0.5627  3.3548
  154OSM   H18H17238   0.780   4.021   3.659  0.3857 -0.5749 -0.7814
  155OSM      N17239   2.113   1.059   1.992  0.2803 -0.2815  0.1346
  155OSM    C1517240   2.044   1.166   1.900  0.0594 -0.4847 -0.1439
  155OSM   H15A17241   2.118   1.203   1.831  1.0744 -0.2461  1.0253
  155OSM   H15B17242   2.007   1.256   1.947  0.2464 -0.3901 -0.1759
  155OSM   H15C17243   1.954   1.127   1.854 -0.4503  2.1147 -1.5538
  155OSM    C1417244   2.164   0.942   1.914  0.3459 -0.0921  0.1659
  155OSM   H14A17245   2.217   0.971   1.825 -1.2913  1.1771 -0.4447
  155OSM   H14B17246   2.079   0.887   1.878 -0.2552  0.7621  0.2554
  155OSM   H14C17247   2.218   0.872   1.977 -2.5021 -2.8505 -0.2105
  155OSM    C1317248   2.235   1.117   2.058  0.6031  0.0135  0.3501
  155OSM   H13A17249   2.217   1.217   2.096 -1.5436  0.3047 -1.2983
  155OSM   H13B17250   2.318   1.112   1.989  0.7902  3.4985  0.1216
  155OSM   H13C17251   2.263   1.055   2.143  0.9255 -1.4021 -0.7539
  155OSM    C1217252   2.016   1.010   2.095  0.1840  0.5451 -0.1310
  155OSM   H12A17253   1.997   1.092   2.162 -0.6721  0.8098 -0.6848
  155OSM   H12B17254   2.068   0.938   2.156  0.0410  2.1503  1.9539
  155OSM    C1117255   1.873   0.964   2.072  0.3109  0.5619 -0.1429
  155OSM   H11A17256   1.826   0.933   2.168 -1.4973  0.3793 -1.0492
  155OSM   H11B17257   1.866   0.878   2.002 -0.8586  0.7951 -0.3309
  155OSM      P17258   1.749   1.204   2.088  0.0042  0.0625 -0.1954
  155OSM    O1317259   1.801   1.311   2.000 -0.1155  0.6252 -0.5391
  155OSM    O1417260   1.603   1.199   2.108 -0.1625  0.1870 -0.3967
  155OSM    O1117261   1.829   1.209   2.226  0.3226 -0.3194  0.0556
  155OSM    O1217262   1.791   1.068   2.012 -0.3803 -0.0598  0.2996
  155OSM    C1S17263   1.894   1.336   2.250 -0.5185  0.5466 -0.2566
  155OSM    H1S17264   1.816   1.415   2.256  0.0926  1.0957  0.6809
  155OSM    H1T17265   1.968   1.366   2.173 -1.9892  2.7363 -0.9081
  155OSM     NF17266   2.016   1.469   2.416 -0.4335 -0.8242  0.9146
  155OSM    HNF17267   2.111   1.495   2.396 -1.1148  0.3029 -1.1830
  155OSM    C2S17268   1.957   1.343   2.395  0.1053 -0.2621 -0.0088
  155OSM    H2S17269   1.882   1.335   2.477  0.1320  1.9718  0.3008
  155OSM    C3S17270   2.062   1.229   2.417 -0.2409 -0.2473 -0.8901
  155OSM    H3S17271   2.157   1.238   2.361  1.0477 -1.2852  1.0277
  155OSM     O317272   2.009   1.106   2.385  0.2183  0.7507 -0.4363
  155OSM    HO317273   1.928   1.116   2.335 -0.7576 -2.2003  0.3293
  155OSM    C4S17274   2.099   1.227   2.562  0.6962 -0.4373 -0.1152
  155OSM    H4S17275   2.040   1.163   2.630  0.6540 -1.7538 -1.3515
  155OSM    C5S17276   2.211   1.296   2.603  0.0366  0.0419 -0.6260
  155OSM    H5S17277   2.272   1.352   2.530  1.7846 -0.8782  0.0783
  155OSM    C6S17278   2.250   1.319   2.745  0.8147 -0.2823 -1.5209
  155OSM    H6S17279   2.269   1.426   2.765 -0.0398 -0.7129  2.4973
  155OSM    H6T17280   2.345   1.261   2.750  1.1914  0.3775 -0.8319
  155OSM    C7S17281   2.156   1.279   2.868  0.1346 -0.5409 -0.0005
  155OSM    H7S17282   2.128   1.171   2.868  2.8282 -1.3297  1.4373
  155OSM    H7T17283   2.055   1.326   2.861  0.3248 -0.2236 -0.7008
  155OSM    C8S17284   2.227   1.318   3.005 -0.3576  0.2303 -0.3935
  155OSM    H8S17285   2.248   1.427   2.997  2.2634 -0.0441  1.3722
  155OSM    H8T17286   2.331   1.281   2.991 -0.4359  0.0845 -0.6065
  155OSM    C9S17287   2.158   1.275   3.129 -0.2818  0.3509 -0.2060
  155OSM    H9S17288   2.151   1.166   3.148  0.8117  0.1927 -0.6470
  155OSM    H9T17289   2.052   1.308   3.120 -0.6011 -0.5608  0.1187
  155OSM   C10S17290   2.222   1.343   3.253 -0.3503 -0.0232 -0.4929
  155OSM   H10S17291   2.245   1.451   3.236  0.0040 -0.0522 -0.2129
  155OSM   H10T17292   2.320   1.293   3.265 -1.0522 -1.0942  0.9730
  155OSM   C11S17293   2.153   1.310   3.382  0.0987  0.2150 -0.0606
  155OSM   H11S17294   2.140   1.201   3.399 -1.3183  0.3051 -0.4299
  155OSM   H11T17295   2.048   1.346   3.382 -0.2644 -0.7750  0.8961
  155OSM   C12S17296   2.232   1.373   3.496 -0.0550  0.1956 -0.1312
  155OSM   H12S17297   2.274   1.471   3.466 -0.6877  1.1399  1.8439
  155OSM   H12T17298   2.327   1.320   3.521  0.8952  1.7657 -0.2981
  155OSM   C13S17299   2.145   1.403   3.617 -0.3291 -0.3985  0.0892
  155OSM   H13S17300   2.090   1.309   3.642 -0.2113 -0.5853 -0.3400
  155OSM   H13T17301   2.068   1.475   3.584  0.6950  0.0440 -1.4307
  155OSM   C14S17302   2.227   1.461   3.732  0.2197 -0.0658 -0.9586
  155OSM   H14S17303   2.260   1.561   3.695 -0.6060  0.9396  0.8669
  155OSM   H14T17304   2.304   1.393   3.773 -2.5135 -2.2089  1.0509
  155OSM   C15S17305   2.135   1.492   3.853  0.2402  0.0110 -0.0273
  155OSM   H15S17306   2.080   1.398   3.871 -0.2422  0.3694  0.4154
  155OSM   H15T17307   2.062   1.573   3.829 -0.0080  1.7114  5.3117
  155OSM   C16S17308   2.202   1.530   3.980 -1.3647 -0.1877 -0.2777
  155OSM   H16S17309   2.274   1.456   4.020 -0.6149  0.8625  0.3696
  155OSM   H16T17310   2.125   1.531   4.060 -0.6667 -2.2192  0.4841
  155OSM   C17S17311   2.282   1.666   3.980 -0.3616  0.0480 -0.1441
  155OSM   H17S17312   2.222   1.748   3.936 -1.1634 -0.1053  0.6479
  155OSM   H17T17313   2.369   1.664   3.911  0.1039  1.3493  0.3870
  155OSM   C18S17314   2.322   1.706   4.120  0.7568 -0.0500 -0.1164
  155OSM   H18S17315   2.386   1.622   4.155 -1.5303 -2.2649 -1.0161
  155OSM   H18T17316   2.239   1.708   4.192 -0.0910 -3.0717 -0.8539
  155OSM   H18U17317   2.375   1.804   4.125  1.1938 -0.2555 -0.5765
  155OSM    C1F17318   1.940   1.580   2.440 -0.1404 -0.2301 -0.2028
  155OSM     OF17319   1.817   1.577   2.429  0.2109 -0.5131 -0.4624
  155OSM    C2F17320   2.007   1.712   2.473 -0.4039 -0.7934  0.1495
  155OSM    H2F17321   1.995   1.783   2.388 -2.1155  0.6327  1.5181
  155OSM    H2G17322   2.114   1.688   2.489  0.2729  0.5134 -1.9696
  155OSM    C3F17323   1.953   1.766   2.602  0.2324  0.0609  0.0146
  155OSM    H3F17324   1.844   1.785   2.589  0.3299 -0.8741 -2.8632
  155OSM    H3G17325   2.002   1.865   2.613 -2.3350  1.5046 -0.8885
  155OSM    C4F17326   1.971   1.680   2.731 -0.0387  0.5796 -0.1329
  155OSM    H4F17327   2.068   1.625   2.725 -0.2149  0.3891 -1.6523
  155OSM    H4G17328   1.908   1.588   2.729 -0.6949  1.0007  0.8076
  155OSM    C5F17329   1.960   1.761   2.861 -0.8037 -0.1993 -0.3513
  155OSM    H5F17330   1.858   1.805   2.857 -0.9750 -0.6143 -0.6251
  155OSM    H5G17331   2.033   1.844   2.869 -2.4596  1.1972  1.2684
  155OSM    C6F17332   1.981   1.680   2.982  0.2301 -0.0072  0.6593
  155OSM    H6F17333   2.078   1.628   2.991 -0.9639 -2.2277  1.6300
  155OSM    H6G17334   1.907   1.597   2.987  2.6523 -2.2892  0.8990
  155OSM    C7F17335   1.964   1.768   3.112  0.6155  0.2165  0.5573
  155OSM    H7F17336   1.867   1.822   3.104  0.9316  1.0765  2.2032
  155OSM    H7G17337   2.038   1.849   3.130  0.1261  0.2053  2.9189
  155OSM    C8F17338   1.954   1.674   3.235 -0.5966 -0.0140  0.6195
  155OSM    H8F17339   2.053   1.632   3.264 -1.3734  0.1662  3.9387
  155OSM    H8G17340   1.895   1.583   3.211 -0.6923  0.5896 -1.6765
  155OSM    C9F17341   1.887   1.724   3.358 -0.5325 -0.2439  0.0997
  155OSM    H9F17342   1.780   1.699   3.367 -0.2644 -1.4390  0.1302
  155OSM   C10F17343   1.940   1.808   3.448  0.1624 -0.0732  0.4813
  155OSM   H10F17344   1.877   1.831   3.535  0.9309  3.1719  0.2836
  155OSM   C11F17345   2.075   1.873   3.448  0.1394  0.0564  0.0058
  155OSM   H11F17346   2.062   1.976   3.488 -0.9709  0.3235 -0.9688
  155OSM   H11G17347   2.118   1.880   3.346 -0.8145 -0.7592 -0.4689
  155OSM   C12F17348   2.184   1.774   3.525 -0.5889 -0.4916  0.3101
  155OSM   H12F17349   2.161   1.678   3.473  1.0379  0.3837 -2.2154
  155OSM   H12G17350   2.153   1.776   3.632 -0.3546 -1.3211  0.3956
  155OSM   C13F17351   2.331   1.815   3.487 -0.9537  0.3204 -0.0001
  155OSM   H13F17352   2.354   1.806   3.379  0.3622  2.0913  0.0937
  155OSM   H13G17353   2.392   1.751   3.554 -1.3508  1.0949  1.1301
  155OSM   C14F17354   2.373   1.958   3.521 -0.2671  0.9348  0.5870
  155OSM   H14F17355   2.311   2.031   3.464  1.4149  1.9804  0.0216
  155OSM   H14G17356   2.478   1.984   3.495 -0.3284  0.8502  0.2442
  155OSM   C15F17357   2.369   1.985   3.669  0.0321 -0.0443 -0.0252
  155OSM   H15F17358   2.267   1.964   3.707  0.4727 -2.5995 -0.0500
  155OSM   H15G17359   2.383   2.095   3.678  2.3008 -0.0026 -2.6326
  155OSM   C16F17360   2.477   1.906   3.744  0.5990  0.9216 -0.1721
  155OSM   H16F17361   2.578   1.900   3.698  0.5195  1.0347 -0.3644
  155OSM   H16G17362   2.426   1.809   3.763 -0.1121  0.6276 -3.0523
  155OSM   C17F17363   2.525   1.960   3.883  0.5023 -0.5135  0.0079
  155OSM   H17F17364   2.567   1.883   3.951 -0.7903  0.0843  1.5445
  155OSM   H17G17365   2.428   1.983   3.934  0.2314 -2.2234  0.3374
  155OSM   C18F17366   2.627   2.078   3.866  0.1108 -0.4321  0.7651
  155OSM   H18F17367   2.624   2.132   3.963  0.2635 -2.2715  1.8345
  155OSM   H18G17368   2.600   2.152   3.788  0.2636  1.4409  2.3984
  155OSM   H18H17369   2.727   2.032   3.860 -0.3877 -1.4924  0.3288
  156OSM      N17370   4.877   6.071   1.148 -0.5041  0.0241 -0.1930
  156OSM    C1517371   4.916   6.163   1.033 -0.5251  0.1632 -0.0484
  156OSM   H15A17372   4.835   6.194   0.969  1.2959 -0.7944 -3.0277
  156OSM   H15B17373   4.987   6.124   0.963 -1.4339  0.7718 -1.3451
  156OSM   H15C17374   4.963   6.247   1.082 -1.9531  0.2639  1.2413
  156OSM    C1417375   4.782   6.145   1.240 -0.4208  0.1309 -0.7988
  156OSM   H14A17376   4.821   6.242   1.266  2.0439 -1.2482  0.9838
  156OSM   H14B17377   4.773   6.096   1.336 -0.7692 -0.4265 -1.1074
  156OSM   H14C17378   4.681   6.134   1.203 -0.2366 -1.0933 -0.9920
  156OSM    C1317379   4.808   5.950   1.084  0.6701  0.3971  0.2479
  156OSM   H13A17380   4.737   5.974   1.007  0.3695 -1.1682 -0.0007
  156OSM   H13B17381   4.749   5.899   1.159  0.2278  2.6932  1.5726
  156OSM   H13C17382   4.881   5.883   1.041  0.6284  0.4858  0.0376
  156OSM    C1217383   5.002   6.026   1.218  0.0248  0.4613 -0.1806
  156OSM   H12A17384   5.064   6.115   1.219  1.2335 -0.3442 -0.9178
  156OSM   H12B17385   5.053   5.948   1.165 -1.2010 -2.7406  2.9163
  156OSM    C1117386   4.991   5.969   1.364  0.1738  0.8323  0.1337
  156OSM   H11A17387   5.090   5.928   1.394 -1.7161 -4.9481 -0.2366
  156OSM   H11B17388   4.916   5.887   1.353  1.8795 -0.8205  0.3956
  156OSM      P17389   4.871   6.041   1.582 -0.2933 -0.6284  0.0366
  156OSM    O1317390   4.837   6.167   1.650  0.1324 -0.8429  0.5508
  156OSM    O1417391   4.760   5.953   1.549 -0.0435  0.8303 -0.8175
  156OSM    O1117392   4.974   5.956   1.666 -0.0167  0.2398  0.0491
  156OSM    O1217393   4.946   6.077   1.452 -0.2199  0.2772  0.6954
  156OSM    C1S17394   5.071   6.019   1.746  0.5053 -0.0719 -0.1403
  156OSM    H1S17395   5.056   6.125   1.772  0.3984 -0.2922  0.7305
  156OSM    H1T17396   5.165   6.026   1.687  1.6831  1.0582  1.7880
  156OSM     NF17397   5.149   6.013   1.975 -0.6543 -0.1119 -0.0047
  156OSM    HNF17398   5.241   5.989   2.007 -0.7691 -1.9827 -1.0160
  156OSM    C2S17399   5.091   5.934   1.876  0.0633 -0.3697  0.6250
  156OSM    H2S17400   4.996   5.899   1.921 -0.7511  0.5508 -0.3636
  156OSM    C3S17401   5.162   5.794   1.845  0.1644  0.0743  0.5363
  156OSM    H3S17402   5.259   5.821   1.799  0.6070  0.7734  1.8124
  156OSM     O317403   5.090   5.708   1.755  0.1610 -0.2333 -0.9242
  156OSM    HO317404   5.037   5.773   1.709  0.4009 -0.4236 -1.4769
  156OSM    C4S17405   5.201   5.729   1.977 -0.3011  0.0659 -1.0885
  156OSM    H4S17406   5.302   5.757   2.012 -1.7244  2.1820  1.6991
  156OSM    C5S17407   5.118   5.658   2.057  0.2012 -0.6961 -0.0412
  156OSM    H5S17408   5.018   5.635   2.017 -0.2338  2.5410 -1.0720
  156OSM    C6S17409   5.147   5.604   2.198 -0.8077  0.0362  0.4962
  156OSM    H6S17410   5.218   5.518   2.190 -0.0818  0.5102  1.5986
  156OSM    H6T17411   5.056   5.553   2.235 -3.6707  3.9628 -0.4993
  156OSM    C7S17412   5.202   5.700   2.305 -0.3907 -0.3359 -0.2565
  156OSM    H7S17413   5.119   5.772   2.322 -1.7467 -1.7012 -0.8913
  156OSM    H7T17414   5.293   5.755   2.270  0.4543 -0.9664  0.8971
  156OSM    C8S17415   5.220   5.636   2.444 -0.3696  0.1022  0.4961
  156OSM    H8S17416   5.317   5.581   2.434  0.5396  1.7835 -0.5118
  156OSM    H8T17417   5.144   5.562   2.475 -1.4700  0.7581 -0.5591
  156OSM    C9S17418   5.238   5.735   2.564 -0.4966 -0.9377 -0.2575
  156OSM    H9S17419   5.146   5.795   2.579 -0.0837 -0.3666  0.0276
  156OSM    H9T17420   5.315   5.809   2.533  0.0080 -0.8211  1.2028
  156OSM   C10S17421   5.275   5.671   2.700 -0.2576  0.1448  0.5658
  156OSM   H10S17422   5.367   5.610   2.694  0.7061  1.4859  1.1999
  156OSM   H10T17423   5.188   5.606   2.722 -0.9215  0.6806 -0.3538
  156OSM   C11S17424   5.285   5.773   2.808 -0.0576 -0.1229 -0.1043
  156OSM   H11S17425   5.189   5.823   2.833 -0.1174 -0.0709 -0.4298
  156OSM   H11T17426   5.366   5.848   2.794  1.1044 -0.5837  3.2901
  156OSM   C12S17427   5.297   5.696   2.938  0.4069 -0.0839  0.2229
  156OSM   H12S17428   5.376   5.618   2.937  0.6982  0.1894 -1.5595
  156OSM   H12T17429   5.204   5.639   2.959 -0.0674  0.3200 -0.7171
  156OSM   C13S17430   5.318   5.789   3.058 -0.1081 -0.2735  0.0439
  156OSM   H13S17431   5.257   5.879   3.036 -0.1264 -0.5004 -0.9073
  156OSM   H13T17432   5.424   5.819   3.070 -0.0098  0.1076 -1.5437
  156OSM   C14S17433   5.268   5.726   3.187  0.4471 -0.0206  0.5236
  156OSM   H14S17434   5.310   5.624   3.200 -0.6187 -0.4037  1.0262
  156OSM   H14T17435   5.157   5.718   3.179  0.5639 -0.8798 -0.5853
  156OSM   C15S17436   5.304   5.807   3.312 -0.1324 -1.3849  0.3937
  156OSM   H15S17437   5.230   5.889   3.328 -0.7938 -2.1786  1.5255
  156OSM   H15T17438   5.406   5.851   3.311 -1.3150  1.7309  2.6397
  156OSM   C16S17439   5.285   5.727   3.445  0.4175  0.2428 -0.0407
  156OSM   H16S17440   5.314   5.621   3.426  0.9968  0.6279 -1.3661
  156OSM   H16T17441   5.176   5.723   3.468 -0.0080 -0.3427 -2.0084
  156OSM   C17S17442   5.379   5.786   3.556  0.1592 -0.1515 -0.7136
  156OSM   H17S17443   5.353   5.892   3.571 -0.0303 -0.2277 -0.4964
  156OSM   H17T17444   5.487   5.796   3.533 -0.1382  1.3577 -1.5688
  156OSM   C18S17445   5.372   5.690   3.685 -0.1253 -2.0027 -0.7065
  156OSM   H18S17446   5.412   5.748   3.771 -2.5765 -1.0144 -0.1155
  156OSM   H18T17447   5.431   5.601   3.655 -0.1770 -1.5154 -2.3160
  156OSM   H18U17448   5.264   5.677   3.710 -0.0289 -0.2390  0.9076
  156OSM    C1F17449   5.083   6.113   2.026  0.2196  0.0861 -0.6803
  156OSM     OF17450   4.972   6.145   1.986  0.0557  0.2550 -0.8550
  156OSM    C2F17451   5.152   6.185   2.136  0.0256  0.2959  0.1589
  156OSM    H2F17452   5.104   6.284   2.151 -1.2150  0.1270 -2.2415
  156OSM    H2G17453   5.257   6.201   2.105 -0.4077  1.4457 -0.7549
  156OSM    C3F17454   5.144   6.107   2.268  0.0818 -0.1978 -0.6628
  156OSM    H3F17455   5.200   6.011   2.268 -1.9533 -1.4624 -2.1055
  156OSM    H3G17456   5.038   6.086   2.297  0.4075 -0.1853  0.5886
  156OSM    C4F17457   5.218   6.183   2.381  0.7238 -0.5717 -0.1073
  156OSM    H4F17458   5.186   6.290   2.381  2.2764 -0.0742 -0.6309
  156OSM    H4G17459   5.329   6.189   2.371  0.8529 -1.7716  0.4618
  156OSM    C5F17460   5.168   6.145   2.519 -0.5464  0.1254 -0.1423
  156OSM    H5F17461   5.209   6.043   2.533  0.6673  0.8884  2.3602
  156OSM    H5G17462   5.059   6.136   2.539 -0.5982 -0.1816 -0.5476
  156OSM    C6F17463   5.215   6.230   2.641 -0.1374  0.0082  0.3750
  156OSM    H6F17464   5.167   6.330   2.634 -1.0028 -0.3221  1.3945
  156OSM    H6G17465   5.325   6.243   2.638 -0.2151  0.5585 -1.5248
  156OSM    C7F17466   5.185   6.158   2.770  0.0142  0.2439 -0.3142
  156OSM    H7F17467   5.230   6.056   2.768  1.1907  0.6890  1.5267
  156OSM    H7G17468   5.074   6.154   2.773 -0.1898  3.2725 -0.7081
  156OSM    C8F17469   5.248   6.235   2.882  0.7088 -0.2172 -0.6975
  156OSM    H8F17470   5.206   6.337   2.871 -0.0700 -0.4098  0.3655
  156OSM    H8G17471   5.355   6.245   2.855  0.4313  2.5579 -1.0309
  156OSM    C9F17472   5.214   6.184   3.015  0.3541 -0.6335  0.0565
  156OSM    H9F17473   5.281   6.105   3.052  0.9494 -0.9744 -1.6837
  156OSM   C10F17474   5.126   6.239   3.105 -0.6801 -0.4059  0.3389
  156OSM   H10F17475   5.115   6.187   3.201  2.9517  0.1663  1.2306
  156OSM   C11F17476   5.052   6.365   3.080  0.2406 -0.4565 -0.0003
  156OSM   H11F17477   4.985   6.360   2.992 -1.8162 -0.7448  1.5013
  156OSM   H11G17478   5.120   6.452   3.072 -0.9722  0.8442  2.4158
  156OSM   C12F17479   4.961   6.389   3.194 -0.2261 -0.3806 -0.1090
  156OSM   H12F17480   4.877   6.316   3.199 -1.2169  0.7697  0.5926
  156OSM   H12G17481   4.916   6.488   3.173  0.8839 -0.2759 -2.3468
  156OSM   C13F17482   5.034   6.406   3.327  0.0137 -0.1754  0.1480
  156OSM   H13F17483   5.087   6.503   3.314 -1.3955  0.6362  0.2785
  156OSM   H13G17484   5.108   6.325   3.338  1.0710  1.0441  3.1115
  156OSM   C14F17485   4.956   6.408   3.459  0.4600 -0.1520 -0.2898
  156OSM   H14F17486   4.922   6.305   3.483 -0.2801  0.0615 -0.4154
  156OSM   H14G17487   4.872   6.480   3.457  2.3117  2.1296 -0.4645
  156OSM   C15F17488   5.048   6.453   3.573  0.9840 -0.2883 -0.5460
  156OSM   H15F17489   4.999   6.451   3.673 -0.9444 -1.4789 -1.4606
  156OSM   H15G17490   5.076   6.559   3.554 -0.9190  0.2088 -0.7653
  156OSM   C16F17491   5.184   6.377   3.579 -0.0852 -0.0288 -0.2948
  156OSM   H16F17492   5.240   6.417   3.492  1.1222  0.0247  0.4791
  156OSM   H16G17493   5.175   6.267   3.564  2.1136 -0.3522  0.3814
  156OSM   C17F17494   5.272   6.391   3.705  0.1078 -0.3322 -0.3352
  156OSM   H17F17495   5.277   6.498   3.736 -0.5221 -0.4041  0.0378
  156OSM   H17G17496   5.370   6.346   3.678 -0.0835 -1.3818  0.6366
  156OSM   C18F17497   5.224   6.318   3.834 -0.1034 -0.0698  0.2405
  156OSM   H18F17498   5.246   6.210   3.822  1.5959  0.2848 -0.1337
  156OSM   H18G17499   5.115   6.329   3.850  0.0442 -0.2384  1.4591
  156OSM   H18H17500   5.282   6.349   3.923 -0.0093 -0.6337  0.3794
  157OSM      N17501   4.785   0.932   1.556 -0.4521  1.1198  0.2505
  157OSM    C1517502   4.741   1.070   1.544 -0.5263 -0.8577  0.2756
  157OSM   H15A17503   4.821   1.133   1.580  0.1874 -1.1063 -0.8102
  157OSM   H15B17504   4.644   1.089   1.588 -0.6323 -0.8374  0.0367
  157OSM   H15C17505   4.737   1.097   1.439 -3.4879 -2.6386 -0.2009
  157OSM    C1417506   4.917   0.916   1.484  0.4093 -0.1363 -0.2193
  157OSM   H14A17507   4.916   0.965   1.388  5.2719 -0.7695 -0.8482
  157OSM   H14B17508   4.932   0.812   1.460 -4.6368 -1.0162 -0.7116
  157OSM   H14C17509   5.005   0.965   1.522  0.3269 -0.2553  0.1347
  157OSM    C1317510   4.816   0.900   1.695  0.0301 -0.2215  1.0690
  157OSM   H13A17511   4.880   0.978   1.734  1.0265  0.6401 -2.0331
  157OSM   H13B17512   4.871   0.808   1.694  2.6711  1.1929 -2.0036
  157OSM   H13C17513   4.725   0.897   1.754  0.1086 -2.0885  1.1292
  157OSM    C1217514   4.687   0.836   1.493  0.5539  0.1656 -0.2744
  157OSM   H12A17515   4.712   0.732   1.507  1.4522  0.6310  2.0783
  157OSM   H12B17516   4.683   0.848   1.386  0.0495 -1.5381 -0.4781
  157OSM    C1117517   4.544   0.842   1.549 -0.0710  0.4676  0.0595
  157OSM   H11A17518   4.480   0.782   1.481 -1.0779  1.0675  0.4599
  157OSM   H11B17519   4.492   0.940   1.545 -3.0596 -1.0294 -0.9803
  157OSM      P17520   4.494   0.648   1.715  0.0309  0.2618  0.0618
  157OSM    O1317521   4.349   0.648   1.703  0.3147 -0.0288 -0.0915
  157OSM    O1417522   4.577   0.564   1.620  0.5414  0.5393  0.0720
  157OSM    O1117523   4.537   0.630   1.863 -0.6725 -0.3980 -0.0408
  157OSM    O1217524   4.529   0.800   1.686  0.2726  0.0548 -0.5370
  157OSM    C1S17525   4.467   0.717   1.957 -0.5247 -0.6165  0.0433
  157OSM    H1S17526   4.358   0.706   1.940 -0.2879 -0.4722 -1.8612
  157OSM    H1T17527   4.483   0.825   1.935  3.0306 -1.1618 -0.6272
  157OSM     NF17528   4.391   0.730   2.183  0.0716  0.0328  0.2584
  157OSM    HNF17529   4.409   0.815   2.232 -0.2115 -0.2123  0.7926
  157OSM    C2S17530   4.499   0.679   2.101 -0.8417 -0.4831 -0.9551
  157OSM    H2S17531   4.510   0.569   2.106 -0.4885 -0.6105 -3.3549
  157OSM    C3S17532   4.641   0.738   2.148 -0.0914  0.2215  0.3471
  157OSM    H3S17533   4.650   0.847   2.132  2.5030 -0.0179 -0.2431
  157OSM     O317534   4.752   0.699   2.067  0.3644 -0.3911 -0.0058
  157OSM    HO317535   4.720   0.673   1.980 -1.4582 -2.0929  1.1002
  157OSM    C4S17536   4.668   0.695   2.292 -0.3135 -0.0693 -0.1382
  157OSM    H4S17537   4.670   0.586   2.307 -2.7309 -0.1869 -0.3041
  157OSM    C5S17538   4.686   0.783   2.395  0.8338 -0.4293  0.1082
  157OSM    H5S17539   4.669   0.888   2.366  0.5769 -0.5432 -0.1472
  157OSM    C6S17540   4.724   0.728   2.526 -0.2019  0.3821 -0.8373
  157OSM    H6S17541   4.832   0.703   2.538  0.0447  2.0441  1.0944
  157OSM    H6T17542   4.659   0.639   2.538  0.7359 -0.2509 -0.3444
  157OSM    C7S17543   4.705   0.816   2.652 -0.1294  1.1407 -0.3349
  157OSM    H7S17544   4.731   0.755   2.741 -3.2354 -0.1127 -0.1760
  157OSM    H7T17545   4.596   0.832   2.636 -0.4571 -2.1402 -2.0784
  157OSM    C8S17546   4.787   0.943   2.650 -0.0564 -0.0708 -0.0932
  157OSM    H8S17547   4.758   0.997   2.557 -1.0442  0.8440  0.7141
  157OSM    H8T17548   4.892   0.909   2.638  0.0101 -0.6373  1.7425
  157OSM    C9S17549   4.759   1.035   2.776  0.6063 -0.4795 -0.5416
  157OSM    H9S17550   4.649   1.027   2.788  0.1502  2.1053 -2.1523
  157OSM    H9T17551   4.793   1.140   2.759 -1.6047  0.3846 -0.0356
  157OSM   C10S17552   4.831   0.973   2.894 -0.1151 -0.4065  0.2789
  157OSM   H10S17553   4.942   0.975   2.882  0.1254  1.8284  2.0053
  157OSM   H10T17554   4.798   0.867   2.895 -1.7836  0.0791 -0.3780
  157OSM   C11S17555   4.802   1.023   3.043 -0.5260 -0.6288  0.3753
  157OSM   H11S17556   4.699   1.001   3.077 -0.0252 -0.3747  2.2067
  157OSM   H11T17557   4.794   1.134   3.051 -1.5502 -0.8137  3.0827
  157OSM   C12S17558   4.900   0.982   3.152 -0.3100 -0.1110  0.3506
  157OSM   H12S17559   4.855   1.000   3.252  1.1341 -2.4171  1.4857
  157OSM   H12T17560   4.994   1.041   3.156  0.0407 -0.7226  2.6612
  157OSM   C13S17561   4.942   0.835   3.139  0.5934 -0.5327 -0.2335
  157OSM   H13S17562   5.003   0.829   3.047  0.1394  0.6983 -0.6338
  157OSM   H13T17563   4.853   0.769   3.129  0.7037 -1.0376  1.7114
  157OSM   C14S17564   5.020   0.787   3.264 -0.2277 -0.5871 -0.2036
  157OSM   H14S17565   4.961   0.816   3.354  0.8807 -0.3335  0.4522
  157OSM   H14T17566   5.115   0.844   3.266  0.1662 -1.1818 -1.1767
  157OSM   C15S17567   5.046   0.638   3.262  0.0820  0.3448 -0.2746
  157OSM   H15S17568   5.107   0.615   3.171  0.0637  0.1141 -0.2282
  157OSM   H15T17569   4.950   0.583   3.250  0.8308 -0.9107 -0.8018
  157OSM   C16S17570   5.131   0.579   3.378  1.0250  0.2071 -0.2546
  157OSM   H16S17571   5.235   0.616   3.374  1.1846 -0.3167 -1.3762
  157OSM   H16T17572   5.136   0.470   3.358 -2.1116  0.2143 -1.8896
  157OSM   C17S17573   5.061   0.594   3.511  0.0823 -0.1366  0.7687
  157OSM   H17S17574   5.079   0.698   3.547  1.6929  1.0822 -3.1111
  157OSM   H17T17575   5.122   0.537   3.585  1.2863  1.7244  1.2769
  157OSM   C18S17576   4.910   0.570   3.512 -0.0806  0.1464 -0.4832
  157OSM   H18S17577   4.886   0.553   3.619 -0.0848 -2.1472 -0.7957
  157OSM   H18T17578   4.892   0.480   3.449  1.1703  0.9656 -2.0647
  157OSM   H18U17579   4.857   0.652   3.459 -1.7628 -0.3015  0.4102
  157OSM    C1F17580   4.276   0.659   2.192 -0.2778 -0.2018  0.1351
  157OSM     OF17581   4.265   0.551   2.131 -0.1943  0.6173 -0.0388
  157OSM    C2F17582   4.174   0.726   2.282  0.4411  0.0551  0.1754
  157OSM    H2F17583   4.071   0.725   2.241  0.5060  0.0091  0.0120
  157OSM    H2G17584   4.200   0.833   2.298 -0.6871  0.3205  0.3368
  157OSM    C3F17585   4.169   0.665   2.425 -0.2997  0.0637  0.0489
  157OSM    H3F17586   4.205   0.560   2.430  1.2733  0.6440  1.8933
  157OSM    H3G17587   4.068   0.684   2.467  0.0345  0.9153  0.4805
  157OSM    C4F17588   4.273   0.734   2.520  0.1999  0.2870 -0.3358
  157OSM    H4F17589   4.257   0.844   2.526  0.5155  0.3618 -0.8417
  157OSM    H4G17590   4.367   0.732   2.461 -0.4188 -0.7436 -1.3348
  157OSM    C5F17591   4.275   0.682   2.669  0.2223 -0.3954  0.1675
  157OSM    H5F17592   4.333   0.588   2.677 -1.0342 -1.1830  0.1195
  157OSM    H5G17593   4.168   0.671   2.696 -0.0387  3.4014  1.3449
  157OSM    C6F17594   4.359   0.778   2.761 -0.5339 -1.1732 -1.0797
  157OSM    H6F17595   4.374   0.879   2.717  0.2561 -1.5522 -1.7188
  157OSM    H6G17596   4.463   0.739   2.761  0.5269  1.2469  2.0148
  157OSM    C7F17597   4.319   0.797   2.908  0.4324  0.0158 -0.2078
  157OSM    H7F17598   4.302   0.693   2.942  0.5033  0.2755  0.6367
  157OSM    H7G17599   4.218   0.841   2.892  0.5964 -0.5104 -3.1564
  157OSM    C8F17600   4.409   0.878   3.003 -0.4539  0.5570  0.0391
  157OSM    H8F17601   4.478   0.945   2.948 -0.6550 -0.1110 -1.0548
  157OSM    H8G17602   4.477   0.801   3.047  0.8879  1.6079 -0.1623
  157OSM    C9F17603   4.341   0.951   3.117  0.1347 -0.4494 -0.1233
  157OSM    H9F17604   4.300   1.049   3.086  2.9805  1.0492  0.5258
  157OSM   C10F17605   4.304   0.905   3.233  0.8269  0.3717  0.0036
  157OSM   H10F17606   4.264   0.977   3.305  1.1776  2.0437 -1.4177
  157OSM   C11F17607   4.327   0.761   3.289  0.0208 -0.7095 -0.0680
  157OSM   H11F17608   4.342   0.703   3.195 -1.2568  0.6756 -1.1832
  157OSM   H11G17609   4.226   0.725   3.317 -0.3733  1.0062  0.8472
  157OSM   C12F17610   4.446   0.742   3.383 -0.3470 -0.9262 -0.1142
  157OSM   H12F17611   4.539   0.740   3.323 -0.8083 -0.1347 -0.8864
  157OSM   H12G17612   4.427   0.643   3.430 -2.9221 -0.2994  0.3586
  157OSM   C13F17613   4.467   0.841   3.497 -0.1034  0.6962 -0.0968
  157OSM   H13F17614   4.493   0.945   3.469  0.6509  1.1485  2.0381
  157OSM   H13G17615   4.553   0.803   3.558  0.7133 -2.0959 -2.7628
  157OSM   C14F17616   4.349   0.850   3.603 -0.6576  0.5814 -0.0711
  157OSM   H14F17617   4.318   0.745   3.617 -1.1330  0.6208 -0.7542
  157OSM   H14G17618   4.263   0.901   3.554 -1.5013  1.8704  2.5755
  157OSM   C15F17619   4.378   0.915   3.739 -0.0415 -0.1842  0.5533
  157OSM   H15F17620   4.421   1.012   3.709 -2.0606  0.7773  0.6108
  157OSM   H15G17621   4.449   0.853   3.799  2.6018 -0.0890 -2.2309
  157OSM   C16F17622   4.248   0.931   3.813 -0.3965  0.1134 -0.4987
  157OSM   H16F17623   4.202   0.830   3.814  1.3419 -0.7255  0.3279
  157OSM   H16G17624   4.193   1.017   3.768  0.6531  1.5067  0.7605
  157OSM   C17F17625   4.259   0.960   3.969  0.1583 -0.0781 -0.1403
  157OSM   H17F17626   4.170   1.020   3.999 -1.3062 -1.9510 -0.5128
  157OSM   H17G17627   4.353   1.010   4.000  0.2427  0.3945 -1.1315
  157OSM   C18F17628   4.255   0.832   4.064  0.7668  0.1511 -0.3844
  157OSM   H18F17629   4.167   0.767   4.044 -0.0939  1.8634 -2.6537
  157OSM   H18G17630   4.260   0.864   4.170 -0.5635  0.2413 -0.3320
  157OSM   H18H17631   4.349   0.777   4.045  0.8177 -0.5380  1.6206
  158OSM      N17632   1.291   6.999   1.856  1.1191  0.0476 -0.5773
  158OSM    C1517633   1.373   7.106   1.922 -0.2265  0.7429 -0.4865
  158OSM   H15A17634   1.471   7.072   1.951  0.0502  2.5701  0.9689
  158OSM   H15B17635   1.329   7.151   2.010  0.6810  2.6469 -0.9488
  158OSM   H15C17636   1.400   7.190   1.859  0.6976  0.2216 -0.8079
  158OSM    C1417637   1.150   7.050   1.841  0.8373  1.4041 -0.8802
  158OSM   H14A17638   1.095   6.991   1.769 -0.2960  1.2760  0.0725
  158OSM   H14B17639   1.156   7.147   1.794 -0.7688  0.5141 -3.0870
  158OSM   H14C17640   1.094   7.042   1.932 -0.6602  0.4779 -1.8463
  158OSM    C1317641   1.341   6.988   1.717  0.1144  0.0234  0.2722
  158OSM   H13A17642   1.262   6.946   1.657  0.3736 -2.8003  1.7251
  158OSM   H13B17643   1.418   6.912   1.709 -1.4458 -1.6508  0.5108
  158OSM   H13C17644   1.372   7.080   1.670  0.7335 -1.4523 -2.4874
  158OSM    C1217645   1.294   6.859   1.927 -0.0619 -0.9189  0.1678
  158OSM   H12A17646   1.215   6.795   1.892 -1.7276  1.3175 -0.3882
  158OSM   H12B17647   1.254   6.872   2.026  0.2211 -1.2085  0.3207
  158OSM    C1117648   1.435   6.789   1.929 -0.3622 -0.3095 -0.5782
  158OSM   H11A17649   1.454   6.755   1.825 -0.1440  0.2267 -0.7205
  158OSM   H11B17650   1.420   6.704   1.998 -1.5424  0.9476  0.7975
  158OSM      P17651   1.678   6.882   1.911  0.4785  0.1231 -0.3316
  158OSM    O1317652   1.675   6.862   1.763 -0.1709 -0.5248 -0.0735
  158OSM    O1417653   1.744   7.009   1.961  0.0494 -0.5201  0.2502
  158OSM    O1117654   1.741   6.759   1.978  0.4712 -0.6044  0.5400
  158OSM    O1217655   1.538   6.871   1.981  0.0033 -0.7955 -0.1050
  158OSM    C1S17656   1.739   6.746   2.122 -0.1383  0.0461  0.4672
  158OSM    H1S17657   1.660   6.805   2.173  2.1770  1.8292  2.1874
  158OSM    H1T17658   1.837   6.778   2.163 -0.3254  3.4154 -1.4017
  158OSM     NF17659   1.732   6.589   2.307 -0.5250  0.3929 -0.4192
  158OSM    HNF17660   1.809   6.537   2.342 -0.0026  0.0823 -1.9686
  158OSM    C2S17661   1.727   6.595   2.165  1.0612 -0.1578 -0.0203
  158OSM    H2S17662   1.626   6.560   2.134  1.5268 -2.2829  0.7133
  158OSM    C3S17663   1.831   6.513   2.079 -0.0804  0.3151  0.3523
  158OSM    H3S17664   1.924   6.573   2.081 -0.9522  1.7051  0.1068
  158OSM     O317665   1.786   6.494   1.949  0.5417  0.5894  0.1342
  158OSM    HO317666   1.729   6.571   1.939  0.8045  0.6582 -1.0259
  158OSM    C4S17667   1.864   6.384   2.147  0.1741  0.9067  0.5344
  158OSM    H4S17668   1.906   6.394   2.248  2.4438  4.5167 -0.5521
  158OSM    C5S17669   1.839   6.257   2.104 -0.1882  0.2009 -0.4445
  158OSM    H5S17670   1.800   6.238   2.003 -0.5282 -0.0119 -0.2745
  158OSM    C6S17671   1.859   6.120   2.173  0.0416 -0.2590  0.6522
  158OSM    H6S17672   1.938   6.058   2.127  0.8111  1.3157 -0.2027
  158OSM    H6T17673   1.767   6.068   2.139 -0.2711  0.2166  0.7658
  158OSM    C7S17674   1.879   6.131   2.330  0.6230  0.6852 -0.6101
  158OSM    H7S17675   1.794   6.182   2.381 -1.0383 -1.2582 -1.3177
  158OSM    H7T17676   1.976   6.184   2.346  2.3014 -2.0843 -0.8950
  158OSM    C8S17677   1.883   5.987   2.388 -0.0671 -0.9673 -0.2762
  158OSM    H8S17678   1.938   5.927   2.312  2.9473  0.8424  0.2913
  158OSM    H8T17679   1.782   5.943   2.401 -0.7721  0.9129  1.1003
  158OSM    C9S17680   1.947   5.990   2.528 -0.4009  0.1181 -0.2819
  158OSM    H9S17681   2.055   6.010   2.512 -0.3873  0.2408 -0.0428
  158OSM    H9T17682   1.936   5.886   2.566 -0.8792 -0.0564 -0.8778
  158OSM   C10S17683   1.871   6.064   2.640 -0.3126 -0.4253 -0.9215
  158OSM   H10S17684   1.903   6.011   2.733 -0.7560 -1.5601 -1.3924
  158OSM   H10T17685   1.761   6.058   2.626 -0.1540 -0.8788 -2.0827
  158OSM   C11S17686   1.904   6.213   2.668 -0.6737 -0.6233  0.1254
  158OSM   H11S17687   1.839   6.260   2.591 -0.2397  0.4275  0.3849
  158OSM   H11T17688   2.009   6.244   2.645 -1.0222  1.3094  0.9256
  158OSM   C12S17689   1.857   6.276   2.798  0.6377  0.2034  0.4990
  158OSM   H12S17690   1.761   6.237   2.839  0.5637  2.2154  2.4722
  158OSM   H12T17691   1.838   6.381   2.768  0.2209 -0.3999 -1.4598
  158OSM   C13S17692   1.941   6.262   2.925 -0.8707 -0.9179 -0.1900
  158OSM   H13S17693   2.033   6.316   2.894 -0.8973 -0.6476  0.1984
  158OSM   H13T17694   1.950   6.161   2.970 -1.5094 -0.4563  1.0059
  158OSM   C14S17695   1.871   6.334   3.039 -0.0841  0.6228 -0.0954
  158OSM   H14S17696   1.768   6.294   3.053 -0.5215  1.1225 -1.6719
  158OSM   H14T17697   1.874   6.435   2.993  1.4373  1.2371  1.2294
  158OSM   C15S17698   1.949   6.320   3.165 -0.1074  0.0500 -0.2384
  158OSM   H15S17699   2.049   6.367   3.149  0.1170 -0.1924  0.3943
  158OSM   H15T17700   1.968   6.216   3.197  0.3811  0.6489  1.5737
  158OSM   C16S17701   1.886   6.401   3.286  0.0824 -0.3526 -0.1804
  158OSM   H16S17702   1.794   6.353   3.325  0.3314  0.8854  2.0752
  158OSM   H16T17703   1.858   6.498   3.239  0.3746 -0.1789 -0.0009
  158OSM   C17S17704   1.977   6.433   3.400 -0.4831  0.0543 -1.1086
  158OSM   H17S17705   1.914   6.474   3.482  0.3995 -1.9097  0.6419
  158OSM   H17T17706   2.058   6.503   3.372  0.1998 -0.2436  0.0847
  158OSM   C18S17707   2.053   6.304   3.454 -0.1586 -0.3832 -0.3147
  158OSM   H18S17708   2.147   6.293   3.395 -0.5197  0.4330 -1.0643
  158OSM   H18T17709   2.000   6.206   3.448  1.0807 -1.0197 -1.3141
  158OSM   H18U17710   2.087   6.333   3.556  3.3017 -1.0444 -1.1453
  158OSM    C1F17711   1.642   6.641   2.392 -0.4234  0.6414  0.6485
  158OSM     OF17712   1.528   6.671   2.344 -0.2638 -1.0601 -0.8301
  158OSM    C2F17713   1.682   6.653   2.534 -0.0636 -0.3859 -0.4557
  158OSM    H2F17714   1.747   6.742   2.547 -1.2183  0.2048  1.7289
  158OSM    H2G17715   1.736   6.563   2.571 -0.1940  1.1384  3.9793
  158OSM    C3F17716   1.565   6.686   2.629 -0.0888  0.2828 -0.1803
  158OSM    H3F17717   1.492   6.602   2.628  0.5874 -0.5074  3.1438
  158OSM    H3G17718   1.511   6.778   2.597 -0.7345 -0.0629 -0.1015
  158OSM    C4F17719   1.607   6.720   2.772 -0.2802  0.1695 -1.1555
  158OSM    H4F17720   1.587   6.826   2.798 -0.1793 -0.1065  0.1121
  158OSM    H4G17721   1.715   6.703   2.791 -0.4205  1.9659  1.7401
  158OSM    C5F17722   1.546   6.626   2.880  1.0012  0.0297 -0.0596
  158OSM    H5F17723   1.599   6.531   2.859 -2.7174 -2.9243  2.4461
  158OSM    H5G17724   1.435   6.617   2.874  1.0045  0.6646 -1.3484
  158OSM    C6F17725   1.583   6.679   3.019 -0.2530  0.1298  0.2004
  158OSM    H6F17726   1.522   6.771   3.031 -1.1554 -0.4951  0.4798
  158OSM    H6G17727   1.693   6.697   3.025 -0.1571 -0.5905  0.6630
  158OSM    C7F17728   1.544   6.581   3.129  0.3513  0.2756 -0.4959
  158OSM    H7F17729   1.612   6.494   3.114  0.4076  0.1906  0.2233
  158OSM    H7G17730   1.437   6.556   3.116  0.0423  1.8540 -1.2409
  158OSM    C8F17731   1.562   6.634   3.272 -0.2267 -0.1238 -0.0136
  158OSM    H8F17732   1.508   6.731   3.278 -0.2390 -0.0861 -0.6892
  158OSM    H8G17733   1.668   6.659   3.292  0.0275 -0.9009 -0.3546
  158OSM    C9F17734   1.497   6.554   3.383  0.2397 -0.0488 -0.9568
  158OSM    H9F17735   1.469   6.450   3.358  3.3006 -1.8260  2.1362
  158OSM   C10F17736   1.463   6.598   3.503  0.3119 -0.1416 -0.2524
  158OSM   H10F17737   1.406   6.532   3.571  0.5827 -2.1236 -1.8519
  158OSM   C11F17738   1.475   6.740   3.551  0.0094  0.8726 -0.0697
  158OSM   H11F17739   1.376   6.788   3.540 -1.6315 -2.0614  0.7323
  158OSM   H11G17740   1.555   6.801   3.504  0.3551  0.5616  0.1094
  158OSM   C12F17741   1.511   6.739   3.703 -0.0436  0.4478  0.3289
  158OSM   H12F17742   1.428   6.694   3.762  0.0582 -0.5863 -0.2843
  158OSM   H12G17743   1.521   6.841   3.744  1.2151 -0.3043  2.0188
  158OSM   C13F17744   1.653   6.669   3.737  0.5520  0.0227 -0.8287
  158OSM   H13F17745   1.619   6.563   3.732 -1.1910  0.4891  0.3574
  158OSM   H13G17746   1.665   6.685   3.846 -1.8451 -2.1259 -0.1427
  158OSM   C14F17747   1.763   6.714   3.646 -0.0228 -0.6443  0.4882
  158OSM   H14F17748   1.754   6.825   3.647 -2.8361 -0.7519 -1.2850
  158OSM   H14G17749   1.757   6.679   3.541 -0.0052 -1.0325  0.6146
  158OSM   C15F17750   1.905   6.686   3.699  0.4509 -0.2124 -0.1295
  158OSM   H15F17751   1.911   6.576   3.715  0.9407  0.2310  3.6276
  158OSM   H15G17752   1.914   6.727   3.802  3.3192 -2.6065  0.7002
  158OSM   C16F17753   2.024   6.736   3.615 -0.0841 -0.5473 -0.0985
  158OSM   H16F17754   2.024   6.846   3.604  2.9493 -0.5099 -0.5143
  158OSM   H16G17755   2.028   6.680   3.519  2.1364 -0.6772  0.0221
  158OSM   C17F17756   2.150   6.714   3.690 -0.3933 -0.6554 -0.1019
  158OSM   H17F17757   2.162   6.606   3.711 -2.3711 -1.4079 -2.3400
  158OSM   H17G17758   2.155   6.768   3.787  0.3112 -1.9778  0.6292
  158OSM   C18F17759   2.266   6.763   3.610 -0.0592 -0.7773  0.7596
  158OSM   H18F17760   2.266   6.720   3.508 -0.5145 -2.4370  1.4299
  158OSM   H18G17761   2.363   6.740   3.659  0.6174 -1.9458 -1.0026
  158OSM   H18H17762   2.259   6.874   3.601  1.1028 -0.8274 -1.7148
  159OSM      N17763   3.152   0.173   1.781  0.3919  0.2726  0.0720
  159OSM    C1517764   3.159   0.077   1.656 -0.2946  0.2502 -1.0625
  159OSM   H15A17765   3.115  -0.015   1.690  2.3099  0.5596  4.0790
  159OSM   H15B17766   3.259   0.051   1.624 -0.3109 -0.1733 -0.7890
  159OSM   H15C17767   3.108   0.127   1.575 -1.8045 -1.4513 -1.2206
  159OSM    C1417768   3.210   0.304   1.738  0.2856 -0.1084  0.4125
  159OSM   H14A17769   3.203   0.376   1.819 -0.1262 -0.9285  1.1338
  159OSM   H14B17770   3.162   0.353   1.655  1.0462 -1.3536 -0.8109
  159OSM   H14C17771   3.312   0.291   1.707  0.9798  3.4544  0.8110
  159OSM    C1317772   3.010   0.191   1.817  0.4429  0.2349  0.1198
  159OSM   H13A17773   2.977   0.106   1.875 -0.7640  0.0680 -0.7676
  159OSM   H13B17774   2.946   0.196   1.731  1.2772 -1.6906 -0.6706
  159OSM   H13C17775   2.999   0.272   1.887  1.8633  0.2914  0.3141
  159OSM    C1217776   3.238   0.119   1.900 -0.8049 -0.8798 -0.2871
  159OSM   H12A17777   3.204   0.019   1.923 -1.5939  0.0052  3.0339
  159OSM   H12B17778   3.194   0.170   1.985 -0.8840 -1.2599 -0.0995
  159OSM    C1117779   3.392   0.128   1.894  0.1035 -0.1167 -0.0037
  159OSM   H11A17780   3.430   0.113   1.997 -1.6584  0.9823  0.8550
  159OSM   H11B17781   3.422   0.231   1.866  0.1558  0.7935  3.0644
  159OSM      P17782   3.445  -0.122   1.824 -0.3493  0.1100 -0.0721
  159OSM    O1317783   3.309  -0.178   1.848 -0.8272 -0.1461 -0.0386
  159OSM    O1417784   3.526  -0.180   1.713  0.8149 -0.2264 -0.2179
  159OSM    O1117785   3.518  -0.138   1.959 -0.2586  0.1304  0.0369
  159OSM    O1217786   3.445   0.035   1.797 -0.3887 -0.0135 -0.2303
  159OSM    C1S17787   3.647  -0.088   1.975 -0.2973  0.3265  0.3486
  159OSM    H1S17788   3.655   0.021   1.956  2.3098  0.4645  1.6842
  159OSM    H1T17789   3.728  -0.135   1.916 -0.0438 -1.8014  2.2636
  159OSM     NF17790   3.827  -0.019   2.148  0.4484  0.3716  0.4123
  159OSM    HNF17791   3.916  -0.058   2.125  0.6346  1.6500 -1.2175
  159OSM    C2S17792   3.708  -0.105   2.122  0.3661  0.4209 -0.1691
  159OSM    H2S17793   3.624  -0.069   2.185 -0.8580 -0.4372 -1.2661
  159OSM    C3S17794   3.726  -0.258   2.155 -0.4310  0.4152 -0.2625
  159OSM    H3S17795   3.805  -0.302   2.090  0.7922  2.1549 -0.0104
  159OSM     O317796   3.620  -0.350   2.121 -0.1861  0.3851  0.4219
  159OSM    HO317797   3.559  -0.309   2.060 -0.2545 -0.6708 -0.2283
  159OSM    C4S17798   3.770  -0.277   2.301  0.6817 -0.1947 -0.7487
  159OSM    H4S17799   3.874  -0.255   2.329  0.2583  0.2695  0.5226
  159OSM    C5S17800   3.685  -0.304   2.405  0.4998 -0.4128 -0.1381
  159OSM    H5S17801   3.581  -0.332   2.381  0.3190  0.0145  0.1311
  159OSM    C6S17802   3.725  -0.331   2.548  0.5134 -0.7349  0.2398
  159OSM    H6S17803   3.833  -0.350   2.566  1.2305  3.4552  1.6662
  159OSM    H6T17804   3.657  -0.408   2.589 -1.7202  0.7726 -0.4123
  159OSM    C7S17805   3.677  -0.219   2.639 -0.6774 -0.1610  0.1811
  159OSM    H7S17806   3.577  -0.179   2.612  0.7447  3.1623 -0.7460
  159OSM    H7T17807   3.740  -0.131   2.615  2.0678 -1.3812  2.3060
  159OSM    C8S17808   3.702  -0.248   2.783 -0.0146 -0.7001  0.1504
  159OSM    H8S17809   3.812  -0.250   2.800  0.1958 -1.8724 -1.1848
  159OSM    H8T17810   3.665  -0.348   2.814 -0.7672 -1.4114 -2.7768
  159OSM    C9S17811   3.649  -0.137   2.861 -0.2128  0.3703  0.2373
  159OSM    H9S17812   3.539  -0.131   2.850 -0.2156 -0.7978 -0.5242
  159OSM    H9T17813   3.686  -0.042   2.815 -0.6589  0.7126  0.5709
  159OSM   C10S17814   3.684  -0.134   3.009  0.2911 -0.0995  0.2581
  159OSM   H10S17815   3.793  -0.115   3.027  0.7012 -0.9607 -1.1607
  159OSM   H10T17816   3.669  -0.233   3.056 -0.5147 -1.3696 -2.4596
  159OSM   C11S17817   3.592  -0.042   3.098  0.0460 -0.5190  0.2375
  159OSM   H11S17818   3.482  -0.053   3.087 -0.1240 -0.6491  1.8654
  159OSM   H11T17819   3.620   0.057   3.057 -0.2420 -1.9162 -3.7529
  159OSM   C12S17820   3.628  -0.038   3.246 -0.1440  0.3351 -0.1503
  159OSM   H12S17821   3.722   0.019   3.267 -0.7345  1.5540 -0.6873
  159OSM   H12T17822   3.628  -0.139   3.292  0.6110  0.0738 -0.7075
  159OSM   C13S17823   3.530   0.048   3.333 -0.1966 -0.3066 -0.2606
  159OSM   H13S17824   3.426   0.009   3.325 -1.3190  2.1436  1.1573
  159OSM   H13T17825   3.535   0.154   3.299  0.0726  0.2926  1.5234
  159OSM   C14S17826   3.570   0.055   3.484  0.3437  0.3471 -0.3024
  159OSM   H14S17827   3.562  -0.046   3.531 -2.8909  0.3346 -0.5958
  159OSM   H14T17828   3.495   0.123   3.531  0.6865 -0.6322  1.7789
  159OSM   C15S17829   3.713   0.112   3.519  0.9563 -0.7529  0.5166
  159OSM   H15S17830   3.724   0.212   3.472 -1.4863 -0.8278 -0.3173
  159OSM   H15T17831   3.782   0.036   3.476 -1.1166 -1.6276 -1.4340
  159OSM   C16S17832   3.731   0.138   3.667  0.3423  0.2326 -0.4367
  159OSM   H16S17833   3.685   0.054   3.724  0.8925 -0.7048 -1.3258
  159OSM   H16T17834   3.676   0.229   3.696  2.3842  1.5289 -0.4222
  159OSM   C17S17835   3.877   0.149   3.712  0.3960  0.2107  0.2925
  159OSM   H17S17836   3.938   0.213   3.644 -0.0661  2.1588  1.6168
  159OSM   H17T17837   3.925   0.049   3.704  0.0066 -0.0782  1.4531
  159OSM   C18S17838   3.916   0.193   3.853  0.5904  0.2648 -0.0884
  159OSM   H18S17839   4.026   0.207   3.864  0.3081  0.6547  2.8495
  159OSM   H18T17840   3.885   0.120   3.931  0.1694  1.0236  0.4624
  159OSM   H18U17841   3.875   0.289   3.889  0.6932  0.2492  0.0721
  159OSM    C1F17842   3.823   0.115   2.157  0.1092 -0.1628  0.1948
  159OSM     OF17843   3.715   0.178   2.161  1.0420 -0.1219 -0.3692
  159OSM    C2F17844   3.957   0.189   2.156 -0.4651  0.4937  0.1389
  159OSM    H2F17845   3.956   0.254   2.066  2.2012  1.7168  0.8816
  159OSM    H2G17846   4.040   0.123   2.123 -0.3041  0.5516  0.4291
  159OSM    C3F17847   3.983   0.283   2.273 -0.1314 -0.2204 -0.5902
  159OSM    H3F17848   3.900   0.353   2.294  1.1360  1.0058  0.4789
  159OSM    H3G17849   4.071   0.342   2.241  2.4508 -3.3064  0.2287
  159OSM    C4F17850   4.030   0.206   2.403 -0.0358  0.2950 -0.1999
  159OSM    H4F17851   4.133   0.166   2.390  0.6666  2.1132 -0.5321
  159OSM    H4G17852   3.958   0.122   2.414 -1.0347  1.3094  1.2027
  159OSM    C5F17853   4.045   0.291   2.531  0.1802  0.5018  0.1813
  159OSM    H5F17854   3.949   0.341   2.557  0.3279  1.0411 -0.2814
  159OSM    H5G17855   4.115   0.374   2.510  1.0230 -0.5037 -1.1801
  159OSM    C6F17856   4.099   0.206   2.651 -0.1509 -0.2847 -0.2841
  159OSM    H6F17857   4.132   0.270   2.736 -0.2211  0.6752 -0.9651
  159OSM    H6G17858   4.192   0.154   2.617  1.4909  2.0541  0.3777
  159OSM    C7F17859   3.985   0.119   2.706 -0.0801  0.3577  0.4005
  159OSM    H7F17860   3.967   0.040   2.630  1.6607  0.3927 -0.1141
  159OSM    H7G17861   3.896   0.180   2.730 -1.4946 -0.3575 -2.4940
  159OSM    C8F17862   4.024   0.044   2.844  0.4602  0.2891  1.1943
  159OSM    H8F17863   3.952  -0.040   2.851  0.1480  0.5831  1.5366
  159OSM    H8G17864   4.019   0.115   2.929  0.4598 -0.0545  1.4871
  159OSM    C9F17865   4.160  -0.024   2.852 -0.4644 -0.3718  0.3993
  159OSM    H9F17866   4.237   0.032   2.796 -1.1968 -0.0963 -0.3657
  159OSM   C10F17867   4.197  -0.140   2.911 -0.1352  0.3149  1.2661
  159OSM   H10F17868   4.300  -0.179   2.910 -0.1971  0.1579  0.6142
  159OSM   C11F17869   4.101  -0.219   2.995  0.7363 -0.3164 -0.2090
  159OSM   H11F17870   4.069  -0.313   2.945 -2.9132  0.2934  0.7131
  159OSM   H11G17871   4.009  -0.167   3.028  0.7446 -1.0498  1.0461
  159OSM   C12F17872   4.176  -0.260   3.124 -0.1742 -0.3784  0.5971
  159OSM   H12F17873   4.260  -0.327   3.097 -0.2877 -0.1577 -0.3139
  159OSM   H12G17874   4.101  -0.316   3.184  0.0859  1.7423  3.0979
  159OSM   C13F17875   4.224  -0.148   3.212 -0.4264  0.4352  0.3179
  159OSM   H13F17876   4.140  -0.076   3.199 -0.5688  0.0373 -1.1639
  159OSM   H13G17877   4.309  -0.099   3.160 -0.8836 -0.2532 -1.1143
  159OSM   C14F17878   4.237  -0.183   3.362 -0.9702 -0.6791  0.5184
  159OSM   H14F17879   4.321  -0.256   3.366 -1.5907 -1.4022  0.5231
  159OSM   H14G17880   4.154  -0.237   3.411  0.0460  0.5861  3.8766
  159OSM   C15F17881   4.276  -0.070   3.450 -0.7524 -1.0794  0.3152
  159OSM   H15F17882   4.198   0.007   3.433 -0.6345 -0.9801  0.2278
  159OSM   H15G17883   4.368  -0.023   3.410 -1.8381 -0.1733 -1.2585
  159OSM   C16F17884   4.270  -0.103   3.602  0.2783 -0.8407  0.4334
  159OSM   H16F17885   4.346  -0.183   3.618 -0.0311 -1.3161 -0.4338
  159OSM   H16G17886   4.168  -0.142   3.621 -1.4513  2.0058 -2.0420
  159OSM   C17F17887   4.313   0.023   3.687  0.1488  0.0019  0.3960
  159OSM   H17F17888   4.247   0.108   3.658  1.7107  1.0704 -0.1154
  159OSM   H17G17889   4.420   0.049   3.674 -0.0363 -0.2526 -2.2343
  159OSM   C18F17890   4.286   0.002   3.839 -0.0340  0.1489  0.5107
  159OSM   H18F17891   4.298   0.098   3.895 -1.6560  0.6458  0.0723
  159OSM   H18G17892   4.358  -0.070   3.884  1.1127 -0.5088 -2.2117
  159OSM   H18H17893   4.184  -0.039   3.851  0.0439 -0.3227 -0.3684
  160OSM      N17894   0.963   0.774   1.493  0.0259 -0.0203 -0.8582
  160OSM    C1517895   1.020   0.779   1.354 -0.2308 -0.3055  0.0321
  160OSM   H15A17896   0.952   0.834   1.291  0.0227  2.7410  2.1956
  160OSM   H15B17897   1.032   0.677   1.319 -0.5404 -1.0333  1.9551
  160OSM   H15C17898   1.112   0.836   1.346  0.1167 -0.7724  0.6782
  160OSM    C1417899   0.901   0.916   1.511  0.4590 -0.0152 -0.3186
  160OSM   H14A17900   0.973   0.991   1.482  0.1331 -0.0265 -1.1706
  160OSM   H14B17901   0.892   0.930   1.618  1.0909 -0.9718 -0.1167
  160OSM   H14C17902   0.810   0.936   1.457  0.0916  1.2750  0.7289
  160OSM    C1317903   0.843   0.677   1.490 -0.4057 -0.4766  0.2706
  160OSM   H13A17904   0.871   0.575   1.469  0.6751 -0.6421  2.3120
  160OSM   H13B17905   0.780   0.720   1.413  1.2058 -0.4877 -1.1250
  160OSM   H13C17906   0.797   0.680   1.587  1.3111 -0.9530  1.1439
  160OSM    C1217907   1.072   0.752   1.593 -0.2903  0.0398  0.0880
  160OSM   H12A17908   1.145   0.831   1.592  0.2940 -0.4529  1.4047
  160OSM   H12B17909   1.131   0.670   1.554  1.3076  0.2485  1.9162
  160OSM    C1117910   1.024   0.731   1.737  0.5038  1.0967  0.8867
  160OSM   H11A17911   1.108   0.688   1.795  0.8685 -1.5478 -1.3933
  160OSM   H11B17912   0.946   0.652   1.743  2.1619 -0.6068  0.9403
  160OSM      P17913   1.074   0.957   1.859 -0.4503  0.2847 -0.1326
  160OSM    O1317914   1.168   1.013   1.760  0.1070  0.6335  0.3940
  160OSM    O1417915   0.980   1.050   1.932 -0.0170  0.3736  0.1881
  160OSM    O1117916   1.149   0.859   1.962 -0.1427 -0.3276  0.8952
  160OSM    O1217917   0.978   0.853   1.790 -0.0899 -0.4626  1.0228
  160OSM    C1S17918   1.197   0.907   2.085  0.2215 -0.3825  0.5206
  160OSM    H1S17919   1.112   0.922   2.154 -0.5412 -0.6283 -0.3387
  160OSM    H1T17920   1.240   1.009   2.076 -0.6114  0.5169  4.8179
  160OSM     NF17921   1.331   0.863   2.285 -0.0843  0.0243 -0.8020
  160OSM    HNF17922   1.395   0.939   2.294  0.6741 -0.7350  0.3361
  160OSM    C2S17923   1.302   0.819   2.153  0.5082  0.2361 -0.5720
  160OSM    H2S17924   1.257   0.718   2.153  0.1723  0.3825 -1.1355
  160OSM    C3S17925   1.431   0.808   2.065 -0.0034  1.0359  1.0796
  160OSM    H3S17926   1.481   0.908   2.068  1.0346  0.6467 -1.1518
  160OSM     O317927   1.400   0.789   1.924  0.2377 -0.0543 -0.3781
  160OSM    HO317928   1.306   0.809   1.921  0.0816 -0.5958  0.4986
  160OSM    C4S17929   1.538   0.719   2.118  0.2084  0.2002 -0.2677
  160OSM    H4S17930   1.630   0.769   2.152  0.2614  0.5718 -0.9474
  160OSM    C5S17931   1.524   0.587   2.113 -0.1945  0.0827 -0.1201
  160OSM    H5S17932   1.436   0.540   2.065  0.3511 -0.1884 -0.8796
  160OSM    C6S17933   1.628   0.488   2.158  0.2626 -0.4515  0.2782
  160OSM    H6S17934   1.640   0.420   2.072 -0.0743  0.6104 -0.6262
  160OSM    H6T17935   1.583   0.420   2.235 -0.8068  0.4024  0.4417
  160OSM    C7S17936   1.756   0.551   2.212  0.0367 -0.3490  0.3246
  160OSM    H7S17937   1.730   0.606   2.305  1.1792  1.7977 -0.5671
  160OSM    H7T17938   1.792   0.621   2.134  0.5015 -2.6982 -1.7167
  160OSM    C8S17939   1.868   0.452   2.234 -0.4896 -0.3305 -0.2102
  160OSM    H8S17940   1.967   0.503   2.241  0.1052 -1.6581  4.4236
  160OSM    H8T17941   1.887   0.384   2.148  2.7477  0.2337 -0.0613
  160OSM    C9S17942   1.868   0.386   2.370  0.0689 -0.6512  0.0524
  160OSM    H9S17943   1.954   0.316   2.375  0.6882  0.0659 -0.3646
  160OSM    H9T17944   1.780   0.320   2.381 -0.8321  0.4951 -0.1289
  160OSM   C10S17945   1.876   0.480   2.490 -0.4385  0.0088  0.3518
  160OSM   H10S17946   1.897   0.415   2.577 -1.1565 -2.0546 -0.9325
  160OSM   H10T17947   1.774   0.512   2.520 -0.0867 -0.1828  1.8137
  160OSM   C11S17948   1.974   0.589   2.482 -0.0914 -0.1507  0.1751
  160OSM   H11S17949   1.939   0.666   2.410  0.7557  0.6760  0.6206
  160OSM   H11T17950   2.064   0.530   2.453 -0.6719 -0.9767  0.0131
  160OSM   C12S17951   1.997   0.657   2.620  0.3836  0.8749 -0.0674
  160OSM   H12S17952   2.092   0.715   2.615  1.3800 -0.6268  0.5394
  160OSM   H12T17953   2.021   0.569   2.683  0.4521  1.2800  0.4834
  160OSM   C13S17954   1.884   0.743   2.681  0.0227 -0.4447 -0.3934
  160OSM   H13S17955   1.793   0.680   2.686 -0.5822  0.4002 -0.5104
  160OSM   H13T17956   1.859   0.823   2.608 -1.0369 -2.2583 -2.1368
  160OSM   C14S17957   1.917   0.801   2.818 -0.1755 -0.2414 -0.4639
  160OSM   H14S17958   2.000   0.872   2.802 -0.7552  0.1332 -1.9537
  160OSM   H14T17959   1.958   0.721   2.883  1.4676  0.4793 -0.5678
  160OSM   C15S17960   1.793   0.875   2.892 -0.7838 -0.4387  0.2178
  160OSM   H15S17961   1.744   0.799   2.957 -2.9402  0.0493 -0.7268
  160OSM   H15T17962   1.723   0.899   2.809  0.2097 -0.5631 -0.6709
  160OSM   C16S17963   1.831   0.989   2.983  0.1183  0.1682 -0.0652
  160OSM   H16S17964   1.738   1.022   3.034 -0.9889 -1.6925 -0.7586
  160OSM   H16T17965   1.875   1.067   2.917  1.7524 -1.7645 -1.3905
  160OSM   C17S17966   1.923   0.956   3.098  0.0344  0.4075 -0.7780
  160OSM   H17S17967   2.029   0.960   3.065  0.4093 -0.9892  0.1567
  160OSM   H17T17968   1.899   0.853   3.134  2.1459 -0.0258 -0.4933
  160OSM   C18S17969   1.898   1.046   3.222  0.2329  0.1657 -0.3870
  160OSM   H18S17970   1.916   1.151   3.191 -0.0561  0.6121  0.9133
  160OSM   H18T17971   1.962   1.016   3.307 -0.0690 -0.7531 -0.4729
  160OSM   H18U17972   1.789   1.031   3.240  0.5160  0.5700  1.9956
  160OSM    C1F17973   1.253   0.822   2.386 -0.3435 -0.5138 -0.8642
  160OSM     OF17974   1.170   0.735   2.382  0.2716 -0.2896  0.4004
  160OSM    C2F17975   1.275   0.903   2.507 -0.2407  0.0236  0.0378
  160OSM    H2F17976   1.234   1.004   2.487 -3.2310 -1.2788 -0.9505
  160OSM    H2G17977   1.382   0.914   2.535 -0.8650  3.9561  1.4879
  160OSM    C3F17978   1.199   0.841   2.629 -0.6835  0.7327  0.3695
  160OSM    H3F17979   1.223   0.735   2.651 -0.1734  0.8557  0.4201
  160OSM    H3G17980   1.090   0.854   2.609 -0.7203 -0.2775 -0.1034
  160OSM    C4F17981   1.215   0.920   2.755 -0.1564 -0.3109 -0.2001
  160OSM    H4F17982   1.138   0.882   2.826 -0.0241 -1.7178 -0.7817
  160OSM    H4G17983   1.186   1.023   2.727 -3.4432 -1.3392 -1.0188
  160OSM    C5F17984   1.346   0.906   2.830  0.6516  0.0301  0.0667
  160OSM    H5F17985   1.419   0.961   2.769  1.3491  0.0587  0.9062
  160OSM    H5G17986   1.381   0.801   2.841 -2.3456 -0.9936  0.9765
  160OSM    C6F17987   1.327   0.960   2.965 -0.5983  1.2081  0.1645
  160OSM    H6F17988   1.257   0.898   3.024 -1.0321  0.4638 -1.0827
  160OSM    H6G17989   1.279   1.061   2.963 -0.9247  1.1054  1.6251
  160OSM    C7F17990   1.458   0.966   3.055  0.7500 -0.0881  0.8195
  160OSM    H7F17991   1.527   1.042   3.011  0.7646 -1.2056 -1.1892
  160OSM    H7G17992   1.504   0.865   3.059 -3.3662 -2.1505  0.6083
  160OSM    C8F17993   1.419   1.007   3.200  0.0477  0.5130 -0.6292
  160OSM    H8F17994   1.345   1.090   3.192 -1.6057 -0.6961  1.0401
  160OSM    H8G17995   1.509   1.050   3.248 -0.0477  0.4676 -0.4094
  160OSM    C9F17996   1.363   0.899   3.284 -0.1288 -0.4650  0.1407
  160OSM    H9F17997   1.310   0.820   3.228 -1.8244 -1.5724  3.1041
  160OSM   C10F17998   1.371   0.889   3.412  0.0874  0.2032  0.0807
  160OSM   H10F17999   1.314   0.806   3.457 -1.5336 -0.2316 -2.5617
  160OSM   C11F18000   1.449   0.978   3.506 -0.3317 -0.4090 -0.2674
  160OSM   H11F18001   1.374   1.051   3.545  1.6408  2.1745 -1.0638
  160OSM   H11G18002   1.527   1.033   3.449 -0.1955 -1.2006 -0.8456
  160OSM   C12F18003   1.521   0.898   3.627  0.8039  0.2541  0.5198
  160OSM   H12F18004   1.551   0.979   3.696 -0.8570  1.1697  0.2122
  160OSM   H12G18005   1.598   0.832   3.582  0.2770  0.0792 -0.1388
  160OSM   C13F18006   1.423   0.811   3.708  0.0442  0.3614 -0.2491
  160OSM   H13F18007   1.370   0.744   3.637  1.1533  0.9353 -1.6695
  160OSM   H13G18008   1.346   0.866   3.768 -1.3972 -1.9791  0.1922
  160OSM   C14F18009   1.491   0.718   3.805  0.1071 -0.1071  0.0415
  160OSM   H14F18010   1.512   0.787   3.889 -0.0754  2.0478 -1.5930
  160OSM   H14G18011   1.589   0.697   3.758  0.5197  2.6740 -0.5232
  160OSM   C15F18012   1.417   0.592   3.851 -0.0533  0.1906  0.4509
  160OSM   H15F18013   1.426   0.506   3.781 -0.8955  0.0362  0.5223
  160OSM   H15G18014   1.311   0.624   3.854  0.5632  2.3548  1.4115
  160OSM   C16F18015   1.464   0.546   3.994 -0.1753  0.1563 -0.1551
  160OSM   H16F18016   1.417   0.451   4.030  0.6021 -0.3458 -0.4561
  160OSM   H16G18017   1.429   0.627   4.062  1.3496 -1.7793  3.1916
  160OSM   C17F18018   1.617   0.530   4.027 -0.3423  0.8643 -0.1863
  160OSM   H17F18019   1.668   0.539   3.928 -2.0217  0.0673 -1.1765
  160OSM   H17G18020   1.643   0.428   4.061 -0.0386  1.8253  2.6770
  160OSM   C18F18021   1.664   0.639   4.129 -0.2889  0.0518  0.4036
  160OSM   H18F18022   1.609   0.628   4.225 -0.2619  2.0795  0.6850
  160OSM   H18G18023   1.654   0.742   4.090 -1.8490 -0.7052 -1.3277
  160OSM   H18H18024   1.762   0.618   4.178 -0.1395 -0.2274 -0.0047
  161OSM      N18025   5.374   5.675   1.361 -0.3101 -0.0924  0.2019
  161OSM    C1518026   5.269   5.718   1.452 -0.0594 -0.0430  0.5566
  161OSM   H15A18027   5.167   5.713   1.417  1.0960  0.4628 -3.2642
  161OSM   H15B18028   5.284   5.819   1.489 -2.1279  1.0276 -1.3381
  161OSM   H15C18029   5.265   5.656   1.541  1.4300 -0.4859  0.3477
  161OSM    C1418030   5.373   5.530   1.319  0.4990 -0.0616 -0.2131
  161OSM   H14A18031   5.446   5.516   1.241 -0.2985 -3.2073 -0.5348
  161OSM   H14B18032   5.274   5.503   1.283  0.8229  0.5965 -1.6464
  161OSM   H14C18033   5.402   5.462   1.397 -0.9635 -0.2887  0.1669
  161OSM    C1318034   5.349   5.757   1.236 -0.0744 -0.1825 -0.5978
  161OSM   H13A18035   5.427   5.741   1.164  0.4401  0.7158 -0.2495
  161OSM   H13B18036   5.353   5.861   1.266  0.5243  0.0369 -1.4132
  161OSM   H13C18037   5.259   5.730   1.182 -0.5296  0.4162 -0.1572
  161OSM    C1218038   5.506   5.718   1.411 -0.4296  0.0772 -0.1041
  161OSM   H12A18039   5.509   5.826   1.401  2.2204  0.1351  0.6850
  161OSM   H12B18040   5.577   5.671   1.344 -0.4397 -0.5405  0.3108
  161OSM    C1118041   5.549   5.674   1.550 -0.0379 -0.6640 -0.0881
  161OSM   H11A18042   5.660   5.676   1.556 -0.1127 -0.1973  1.3619
  161OSM   H11B18043   5.524   5.568   1.570 -1.0516 -0.6051 -0.9916
  161OSM      P18044   5.534   5.908   1.673 -0.3935  0.2406  0.1290
  161OSM    O1318045   5.664   5.925   1.604  0.2157 -0.7037  0.1985
  161OSM    O1418046   5.413   5.976   1.612 -0.3073  0.0775 -0.1882
  161OSM    O1118047   5.543   5.915   1.833  0.0484 -0.2767  0.7770
  161OSM    O1218048   5.490   5.755   1.654 -0.1510 -0.7925 -0.0625
  161OSM    C1S18049   5.645   5.846   1.900  0.5869 -0.0969 -0.1263
  161OSM    H1S18050   5.745   5.852   1.851  0.6791  1.0362  0.1628
  161OSM    H1T18051   5.612   5.741   1.913  3.6565 -1.1298  0.0171
  161OSM     NF18052   5.778   5.839   2.115  0.1426 -0.1362 -0.2010
  161OSM    HNF18053   5.746   5.770   2.180  0.1975 -0.7108 -0.7742
  161OSM    C2S18054   5.669   5.902   2.046  0.0667  0.7112  0.2716
  161OSM    H2S18055   5.701   6.007   2.031 -0.0492  0.6734 -0.2380
  161OSM    C3S18056   5.534   5.913   2.123  0.2015  0.7030  0.3028
  161OSM    H3S18057   5.508   5.808   2.147  1.2799  0.2962 -0.2429
  161OSM     O318058   5.429   5.981   2.055 -0.4172 -0.3535 -0.0650
  161OSM    HO318059   5.453   5.977   1.962  3.0339 -0.8571  0.7045
  161OSM    C4S18060   5.555   5.974   2.258 -0.0431  0.0407 -0.1079
  161OSM    H4S18061   5.593   6.078   2.254  0.5217 -0.1279  0.6486
  161OSM    C5S18062   5.519   5.927   2.379  0.2161 -0.0629 -0.3395
  161OSM    H5S18063   5.462   5.833   2.389  1.3989 -0.6974  0.6186
  161OSM    C6S18064   5.535   6.004   2.501  0.5448  0.0477  0.2083
  161OSM    H6S18065   5.434   6.035   2.535 -0.3094  0.4124 -2.4241
  161OSM    H6T18066   5.594   6.097   2.488  0.2052 -0.0462 -2.7031
  161OSM    C7S18067   5.607   5.924   2.605  0.8217 -0.0879  0.5931
  161OSM    H7S18068   5.718   5.917   2.594  1.2929  1.6584  3.2494
  161OSM    H7T18069   5.559   5.824   2.609 -0.7671  0.5573 -0.9891
  161OSM    C8S18070   5.590   6.002   2.739  0.2470 -0.3677  0.0784
  161OSM    H8S18071   5.480   6.011   2.751 -0.0752 -1.5186 -1.6352
  161OSM    H8T18072   5.637   6.103   2.740  0.5809 -0.5170 -0.3857
  161OSM    C9S18073   5.649   5.936   2.864 -0.3343 -0.1481 -0.4001
  161OSM    H9S18074   5.759   5.941   2.852 -0.2797 -0.1904  0.1004
  161OSM    H9T18075   5.623   5.828   2.869  1.7837 -0.7343 -1.1837
  161OSM   C10S18076   5.620   6.019   2.986  0.0901 -0.0814  0.1822
  161OSM   H10S18077   5.515   6.054   2.992 -0.1433 -0.3675 -1.7403
  161OSM   H10T18078   5.684   6.109   2.973 -0.9306  0.6297 -0.0836
  161OSM   C11S18079   5.662   5.954   3.115  0.4074  0.3242  0.2061
  161OSM   H11S18080   5.772   5.942   3.109  0.1997 -1.2638 -0.8136
  161OSM   H11T18081   5.622   5.851   3.121 -1.1534  0.8301 -0.9402
  161OSM   C12S18082   5.633   6.043   3.237  0.3220  0.0857 -0.0741
  161OSM   H12S18083   5.523   6.044   3.252 -0.0817 -1.3829 -2.3669
  161OSM   H12T18084   5.669   6.144   3.212  0.0052  0.3798  0.6302
  161OSM   C13S18085   5.708   5.984   3.361 -0.4508  0.7885 -0.0567
  161OSM   H13S18086   5.816   5.963   3.345 -0.6815 -0.8263  0.3466
  161OSM   H13T18087   5.660   5.884   3.363 -0.7097  0.7593 -2.9102
  161OSM   C14S18088   5.690   6.081   3.480 -0.5144  0.1379 -0.1145
  161OSM   H14S18089   5.583   6.095   3.504 -0.3694  0.9505  0.0764
  161OSM   H14T18090   5.714   6.181   3.439 -0.4663 -0.2163 -0.9852
  161OSM   C15S18091   5.749   6.040   3.616 -0.2275 -0.3578  0.5635
  161OSM   H15S18092   5.860   6.027   3.616 -0.0608  0.8643 -0.3009
  161OSM   H15T18093   5.693   5.951   3.650  1.0492 -0.7010  1.9161
  161OSM   C16S18094   5.713   6.149   3.723  0.5144  0.0229  0.2052
  161OSM   H16S18095   5.607   6.132   3.752  0.2236  0.2338 -0.6914
  161OSM   H16T18096   5.722   6.249   3.676  1.5931 -0.6682 -1.1380
  161OSM   C17S18097   5.803   6.134   3.848 -0.3485 -0.1785 -0.3171
  161OSM   H17S18098   5.907   6.124   3.809 -0.7208  0.0100 -1.3767
  161OSM   H17T18099   5.772   6.044   3.904  0.1703  0.6971  1.4398
  161OSM   C18S18100   5.787   6.259   3.935 -0.5036 -0.7031  0.6118
  161OSM   H18S18101   5.844   6.244   4.029 -1.8642 -1.3327  1.3716
  161OSM   H18T18102   5.681   6.278   3.963 -0.0411  0.8368  1.4913
  161OSM   H18U18103   5.836   6.343   3.881  0.4117 -0.9589  1.0302
  161OSM    C1F18104   5.902   5.839   2.063  0.5307  0.1821 -0.2161
  161OSM     OF18105   5.935   5.936   1.997  0.0250  0.0998  0.0908
  161OSM    C2F18106   5.981   5.712   2.082  0.0005  0.0537  0.0443
  161OSM    H2F18107   5.996   5.677   1.978 -1.9002 -1.4047  0.2039
  161OSM    H2G18108   5.926   5.633   2.138  0.3862 -1.0469 -1.0923
  161OSM    C3F18109   6.113   5.746   2.148 -0.3027  0.1074 -0.1006
  161OSM    H3F18110   6.190   5.794   2.083  1.1698 -1.8064  0.1216
  161OSM    H3G18111   6.152   5.643   2.161  0.0113  0.0412 -1.3596
  161OSM    C4F18112   6.100   5.809   2.290 -0.0768 -0.6305 -0.1612
  161OSM    H4F18113   6.011   5.763   2.338 -0.4271  2.4965  2.5596
  161OSM    H4G18114   6.078   5.917   2.273  1.8824 -0.2374 -0.4463
  161OSM    C5F18115   6.223   5.782   2.371  0.1491  0.0944 -0.0583
  161OSM    H5F18116   6.309   5.845   2.339  0.7238  0.5672  2.2638
  161OSM    H5G18117   6.247   5.675   2.352 -1.2719 -0.5453  1.5608
  161OSM    C6F18118   6.201   5.786   2.523 -0.2019  0.1556 -0.5536
  161OSM    H6F18119   6.111   5.728   2.553 -0.5562  1.0349  0.1563
  161OSM    H6G18120   6.162   5.884   2.560 -0.8015 -0.7182  1.2628
  161OSM    C7F18121   6.324   5.762   2.612 -0.7305  0.1497  0.5772
  161OSM    H7F18122   6.395   5.844   2.591 -1.5925  0.5137 -1.1716
  161OSM    H7G18123   6.380   5.673   2.578  0.7888  0.6279  1.7527
  161OSM    C8F18124   6.303   5.730   2.762  0.5143  0.5300 -0.3584
  161OSM    H8F18125   6.395   5.682   2.802 -2.6697 -3.9869  2.4925
  161OSM    H8G18126   6.227   5.649   2.761  1.7881 -0.7360  1.0183
  161OSM    C9F18127   6.268   5.856   2.830 -0.3865 -0.7702 -0.1844
  161OSM    H9F18128   6.218   5.940   2.780  0.9726 -0.2608 -0.7249
  161OSM   C10F18129   6.284   5.864   2.967 -0.4649  0.8811 -0.0053
  161OSM   H10F18130   6.276   5.962   3.015  0.4767  1.2079 -0.4950
  161OSM   C11F18131   6.325   5.751   3.055  0.4595 -0.3578  0.1127
  161OSM   H11F18132   6.413   5.693   3.021  0.2100 -1.5636  1.4429
  161OSM   H11G18133   6.246   5.674   3.072  1.0518 -0.6824  1.4873
  161OSM   C12F18134   6.350   5.799   3.200  1.0543  0.8926  0.2980
  161OSM   H12F18135   6.260   5.854   3.233  1.4993  2.1407 -0.4961
  161OSM   H12G18136   6.425   5.879   3.216  0.7005  1.0612  1.1684
  161OSM   C13F18137   6.372   5.687   3.302 -0.4331 -0.8771  0.3534
  161OSM   H13F18138   6.477   5.650   3.292  0.8993  2.5839  0.2542
  161OSM   H13G18139   6.307   5.603   3.270 -0.7561 -0.3143 -0.4893
  161OSM   C14F18140   6.337   5.712   3.448  0.3603  0.6986 -0.2671
  161OSM   H14F18141   6.399   5.792   3.494  2.4987 -1.2986  0.5487
  161OSM   H14G18142   6.376   5.618   3.492  3.5343  1.0985 -1.8977
  161OSM   C15F18143   6.182   5.727   3.474  0.2764  0.2664 -0.3053
  161OSM   H15F18144   6.129   5.643   3.424 -0.8305  1.8721 -1.9683
  161OSM   H15G18145   6.135   5.821   3.438 -4.7315 -0.7094  2.6657
  161OSM   C16F18146   6.139   5.729   3.629  0.1686  0.5146  0.4389
  161OSM   H16F18147   6.197   5.804   3.688  2.1300 -1.1226  0.7092
  161OSM   H16G18148   6.176   5.633   3.670  3.0374 -0.0078 -2.9209
  161OSM   C17F18149   5.989   5.736   3.652  0.3393  0.0340  0.1442
  161OSM   H17F18150   5.947   5.636   3.627  0.3390 -0.4317  1.8783
  161OSM   H17G18151   5.947   5.813   3.584  0.4324 -0.8559 -0.9577
  161OSM   C18F18152   5.960   5.750   3.805 -0.3554 -0.0369  0.1725
  161OSM   H18F18153   6.018   5.672   3.860  0.9103  0.0794 -0.9389
  161OSM   H18G18154   5.854   5.726   3.828 -0.3112  0.0308  0.4539
  161OSM   H18H18155   5.992   5.846   3.850 -0.7340  0.3688 -0.4221
  162OSM      N18156   0.052   5.985   1.265 -0.2264 -0.5046 -0.9546
  162OSM    C1518157   0.186   5.942   1.210  0.0683 -0.1997 -0.8100
  162OSM   H15A18158   0.244   6.015   1.156  0.6704 -0.0727 -0.0048
  162OSM   H15B18159   0.176   5.857   1.144  0.6230 -1.7493  1.0185
  162OSM   H15C18160   0.246   5.914   1.295 -0.2725  2.0424  0.2467
  162OSM    C1418161  -0.018   6.053   1.153 -0.1628  0.2446 -0.0475
  162OSM   H14A18162   0.041   6.135   1.116  3.3853 -1.8083  0.6141
  162OSM   H14B18163  -0.106   6.108   1.182  0.7260  0.9291  1.4835
  162OSM   H14C18164  -0.047   5.983   1.076 -0.1055 -2.9029  2.5651
  162OSM    C1318165  -0.019   5.863   1.319  0.4632 -0.0032 -0.4739
  162OSM   H13A18166   0.039   5.826   1.401 -1.1552  0.8056  1.1100
  162OSM   H13B18167  -0.030   5.788   1.242 -1.3082  0.5307 -0.8038
  162OSM   H13C18168  -0.116   5.884   1.362 -0.8421 -1.3919 -2.5425
  162OSM    C1218169   0.074   6.080   1.380 -0.6615  0.0631  0.0479
  162OSM   H12A18170  -0.016   6.133   1.407  0.3179  1.2534  1.1853
  162OSM   H12B18171   0.149   6.154   1.354  2.1135 -2.4483  0.3267
  162OSM    C1118172   0.127   6.027   1.508 -0.8429  0.3001 -0.5996
  162OSM   H11A18173   0.049   5.961   1.552 -0.0386 -1.4195 -1.6381
  162OSM   H11B18174   0.148   6.117   1.570  0.7958  1.2914 -2.4782
  162OSM      P18175   0.361   5.933   1.597 -0.1447 -0.0492  0.8124
  162OSM    O1318176   0.477   5.874   1.522  0.1967  0.1963 -0.0380
  162OSM    O1418177   0.383   6.061   1.662 -0.2714 -0.0133  0.7864
  162OSM    O1118178   0.325   5.831   1.716  0.6968  0.3287 -0.2738
  162OSM    O1218179   0.240   5.938   1.502  0.4666  0.5912  0.3131
  162OSM    C1S18180   0.430   5.814   1.812 -0.4106 -0.5060  0.3574
  162OSM    H1S18181   0.487   5.908   1.830  1.4920 -1.9531  2.2925
  162OSM    H1T18182   0.496   5.729   1.785 -0.8156 -0.9912  0.8940
  162OSM     NF18183   0.486   5.772   2.052  0.0176 -0.2225 -0.0915
  162OSM    HNF18184   0.547   5.693   2.056 -1.3572 -1.2894  0.3539
  162OSM    C2S18185   0.375   5.768   1.953 -0.1528  0.0831 -0.4412
  162OSM    H2S18186   0.295   5.836   1.990  0.1192 -0.4996  1.3087
  162OSM    C3S18187   0.313   5.621   1.954  0.8494 -0.3077 -0.2851
  162OSM    H3S18188   0.379   5.542   1.913 -2.5629 -3.4113 -0.3918
  162OSM     O318189   0.198   5.606   1.868  0.2043 -0.0748  0.5113
  162OSM    HO318190   0.228   5.667   1.799 -0.9421 -2.4006 -2.2539
  162OSM    C4S18191   0.282   5.581   2.100 -0.1235 -0.2835  0.0641
  162OSM    H4S18192   0.352   5.516   2.154  0.2547  0.7075  0.7936
  162OSM    C5S18193   0.173   5.607   2.175  0.2948 -0.6356  0.3493
  162OSM    H5S18194   0.094   5.672   2.133  1.9280  0.2891 -1.4881
  162OSM    C6S18195   0.152   5.560   2.314  0.1167  0.1798  0.3302
  162OSM    H6S18196   0.123   5.646   2.378 -2.0865  0.5348 -1.0630
  162OSM    H6T18197   0.249   5.521   2.354  0.2673 -0.2594 -0.4458
  162OSM    C7S18198   0.041   5.455   2.346 -0.7391  0.8622  0.6562
  162OSM    H7S18199   0.059   5.367   2.282 -2.0427  0.6919  0.5162
  162OSM    H7T18200  -0.060   5.494   2.324 -0.7870  0.2950 -0.1486
  162OSM    C8S18201   0.039   5.387   2.487 -0.2486 -0.4152  0.0201
  162OSM    H8S18202   0.044   5.474   2.556 -2.4237  0.7956 -1.2264
  162OSM    H8T18203   0.136   5.334   2.497 -0.9662 -1.4262  2.4473
  162OSM    C9S18204  -0.082   5.304   2.531  0.4889 -0.8354 -0.4828
  162OSM    H9S18205  -0.053   5.198   2.517 -1.0658 -1.2564 -0.6250
  162OSM    H9T18206  -0.171   5.326   2.469  1.3791 -1.5782 -2.1023
  162OSM   C10S18207  -0.115   5.321   2.679  0.3850  0.0250 -0.1406
  162OSM   H10S18208  -0.220   5.291   2.701  0.1728  1.8319  1.6170
  162OSM   H10T18209  -0.109   5.425   2.717 -0.4075 -0.3144  1.0114
  162OSM   C11S18210  -0.015   5.249   2.772 -0.0588  0.2361  0.0707
  162OSM   H11S18211   0.084   5.289   2.743  0.0259  0.1626  0.2584
  162OSM   H11T18212  -0.001   5.142   2.746 -0.9761  0.4220 -1.3184
  162OSM   C12S18213  -0.039   5.262   2.923  0.0129  0.5395  0.1365
  162OSM   H12S18214  -0.141   5.224   2.945  0.0642  0.6638  0.5986
  162OSM   H12T18215  -0.041   5.370   2.947  1.5897  1.2985 -2.6362
  162OSM   C13S18216   0.072   5.186   2.989  1.1003 -0.1325 -0.3624
  162OSM   H13S18217   0.102   5.089   2.943 -2.2643 -0.2073 -2.7759
  162OSM   H13T18218   0.011   5.148   3.074 -0.5096  2.7359 -0.1095
  162OSM   C14S18219   0.189   5.268   3.042  0.3766 -0.2644  0.2401
  162OSM   H14S18220   0.153   5.347   3.111  0.0439  1.4987 -1.8575
  162OSM   H14T18221   0.239   5.331   2.965 -1.4949  0.4079 -0.4793
  162OSM   C15S18222   0.289   5.179   3.119 -0.0952  0.8593  0.5808
  162OSM   H15S18223   0.348   5.118   3.046  1.2536  3.4599 -0.6646
  162OSM   H15T18224   0.227   5.107   3.176 -0.1917 -0.3015 -0.9228
  162OSM   C16S18225   0.388   5.257   3.214  0.5130 -0.0398 -0.3371
  162OSM   H16S18226   0.453   5.183   3.265 -1.0252 -1.0084  0.2814
  162OSM   H16T18227   0.328   5.309   3.292  0.8751  0.0237 -0.1005
  162OSM   C17S18228   0.470   5.359   3.135 -0.2034 -0.8726  0.7228
  162OSM   H17S18229   0.397   5.425   3.084 -0.2090  0.9115  2.8712
  162OSM   H17T18230   0.526   5.308   3.053  0.6720 -0.1439  0.8455
  162OSM   C18S18231   0.565   5.459   3.213  0.6999  0.6469  0.4494
  162OSM   H18S18232   0.499   5.538   3.256 -2.0800 -0.5189 -1.3591
  162OSM   H18T18233   0.637   5.512   3.147 -0.4084  1.1822 -0.3770
  162OSM   H18U18234   0.602   5.402   3.301  0.7642  0.6211  0.4053
  162OSM    C1F18235   0.528   5.887   2.111  0.0355  0.6931 -0.1183
  162OSM     OF18236   0.462   5.991   2.092 -0.3965  0.3092  0.7762
  162OSM    C2F18237   0.661   5.887   2.180 -0.2376  0.3295 -0.5017
  162OSM    H2F18238   0.734   5.962   2.144 -0.7032  1.8092  1.4726
  162OSM    H2G18239   0.706   5.785   2.171  1.7778  0.8966  2.0580
  162OSM    C3F18240   0.638   5.932   2.327 -0.7028 -0.1328 -0.4654
  162OSM    H3F18241   0.594   6.033   2.317  2.7484  1.6216  0.3890
  162OSM    H3G18242   0.732   5.963   2.378  0.9735 -4.0670 -0.7674
  162OSM    C4F18243   0.562   5.817   2.399  0.0294  0.4485 -0.0750
  162OSM    H4F18244   0.583   5.713   2.364  0.9562 -0.0947  1.9875
  162OSM    H4G18245   0.453   5.834   2.385 -0.2622 -0.5706  0.8494
  162OSM    C5F18246   0.584   5.809   2.547  0.2030 -0.0791  0.2158
  162OSM    H5F18247   0.552   5.905   2.594  0.5526 -0.5256  1.4046
  162OSM    H5G18248   0.690   5.789   2.576  0.4046 -0.5610 -0.8197
  162OSM    C6F18249   0.496   5.705   2.609  0.4916  0.0017 -0.3325
  162OSM    H6F18250   0.509   5.604   2.563 -1.3052 -0.2787 -0.2880
  162OSM    H6G18251   0.394   5.731   2.573  0.4000  0.1428  0.0269
  162OSM    C7F18252   0.487   5.709   2.761  0.3999 -0.8587  0.3314
  162OSM    H7F18253   0.469   5.815   2.788  0.2318 -0.5742 -0.8353
  162OSM    H7G18254   0.593   5.696   2.791  1.5478  0.8630 -2.5285
  162OSM    C8F18255   0.401   5.606   2.833 -0.2301 -0.3055  0.6303
  162OSM    H8F18256   0.418   5.606   2.942  0.8605  0.5679  0.4768
  162OSM    H8G18257   0.431   5.505   2.799 -1.7460  0.1508 -2.4003
  162OSM    C9F18258   0.250   5.608   2.800 -0.2658 -0.7492 -0.4913
  162OSM    H9F18259   0.221   5.533   2.724 -0.5335 -0.9098 -0.2321
  162OSM   C10F18260   0.147   5.676   2.846 -0.3393 -0.0369 -0.2763
  162OSM   H10F18261   0.053   5.662   2.792  0.0423  2.5917 -1.7845
  162OSM   C11F18262   0.149   5.770   2.967  0.3706 -0.1431  0.3204
  162OSM   H11F18263   0.108   5.868   2.933 -1.1006 -0.9833 -0.4064
  162OSM   H11G18264   0.251   5.801   2.998  1.0589  0.3065 -2.1391
  162OSM   C12F18265   0.070   5.733   3.095 -0.0924  0.0212 -0.0494
  162OSM   H12F18266   0.112   5.645   3.147  0.6901  1.1092  1.2308
  162OSM   H12G18267  -0.035   5.716   3.062  0.5006  1.3301 -2.8962
  162OSM   C13F18268   0.071   5.849   3.194  0.2391 -0.0232  0.0329
  162OSM   H13F18269   0.062   5.947   3.143 -1.6073  0.9407  2.0684
  162OSM   H13G18270   0.175   5.845   3.234  0.4711  1.3728 -0.3679
  162OSM   C14F18271  -0.034   5.840   3.303 -0.2459  0.3609  0.0177
  162OSM   H14F18272  -0.037   5.736   3.343 -1.9057  0.1507 -0.5990
  162OSM   H14G18273  -0.134   5.861   3.260 -0.3623 -1.6323 -0.8139
  162OSM   C15F18274  -0.003   5.937   3.426  0.2606  0.0856 -0.2345
  162OSM   H15F18275   0.068   5.889   3.497  1.3288  1.4410 -0.3281
  162OSM   H15G18276  -0.095   5.948   3.488  0.9388 -0.1521  0.8463
  162OSM   C16F18277   0.050   6.080   3.387 -0.2264  0.4064  0.2739
  162OSM   H16F18278  -0.012   6.117   3.302 -2.3127  1.0132  1.9726
  162OSM   H16G18279   0.154   6.069   3.351 -0.6800 -0.4561 -0.8366
  162OSM   C17F18280   0.055   6.185   3.500  0.4283  0.0172 -0.1616
  162OSM   H17F18281  -0.029   6.167   3.569 -0.2651  0.6446 -0.8175
  162OSM   H17G18282   0.043   6.287   3.457  2.0925 -0.4535 -1.9270
  162OSM   C18F18283   0.187   6.185   3.578  0.3211 -0.7817 -0.3394
  162OSM   H18F18284   0.266   6.250   3.536 -0.0256 -0.5532 -0.6431
  162OSM   H18G18285   0.216   6.078   3.593 -0.3797 -1.0712 -1.0020
  162OSM   H18H18286   0.174   6.222   3.682 -2.4241 -2.2194 -0.0787
  163OSM      N18287   6.125   6.874   1.689 -0.1288 -0.6916  0.3660
  163OSM    C1518288   6.150   7.014   1.735  0.3901  0.3683  0.4561
  163OSM   H15A18289   6.067   7.046   1.796  0.8133 -0.9227  1.7790
  163OSM   H15B18290   6.131   7.082   1.654 -0.3511  0.0654  0.3609
  163OSM   H15C18291   6.251   7.026   1.770  0.6632  0.5719 -0.3887
  163OSM    C1418292   5.984   6.864   1.638  0.6224 -0.3053  0.3530
  163OSM   H14A18293   5.954   6.763   1.616 -1.8366  0.3070  0.6700
  163OSM   H14B18294   5.963   6.927   1.554  3.0641  1.1680  0.7386
  163OSM   H14C18295   5.918   6.882   1.722 -0.5047  1.4381 -0.8471
  163OSM    C1318296   6.218   6.846   1.569 -0.0465 -0.7726 -0.0692
  163OSM   H13A18297   6.317   6.874   1.604 -0.0711  0.2650 -0.7772
  163OSM   H13B18298   6.190   6.900   1.480  0.1144 -1.3972 -0.5002
  163OSM   H13C18299   6.227   6.740   1.555  0.4403 -0.8162  0.5049
  163OSM    C1218300   6.153   6.775   1.800 -0.2986 -0.3023 -0.5135
  163OSM   H12A18301   6.098   6.798   1.890  0.8713 -2.0269  0.7110
  163OSM   H12B18302   6.259   6.775   1.818 -0.2508  1.4144 -0.6245
  163OSM    C1118303   6.119   6.630   1.771 -0.1662  0.1837  0.3343
  163OSM   H11A18304   6.020   6.613   1.724  0.3651 -1.3173 -0.3157
  163OSM   H11B18305   6.108   6.571   1.864 -0.9754 -0.5600 -0.2049
  163OSM      P18306   6.197   6.435   1.617 -0.3596 -0.1619  0.2772
  163OSM    O1318307   6.182   6.470   1.473  0.8228  0.3975 -0.2426
  163OSM    O1418308   6.303   6.339   1.654  0.1023 -0.3746  0.2460
  163OSM    O1118309   6.064   6.377   1.659 -0.1264 -0.3750  0.1788
  163OSM    O1218310   6.219   6.570   1.694 -0.2306 -0.1155  0.2305
  163OSM    C1S18311   6.064   6.288   1.778  0.3759  0.1353  0.2269
  163OSM    H1S18312   6.132   6.327   1.856  3.7672 -2.2504 -1.3121
  163OSM    H1T18313   6.091   6.184   1.750 -0.9026 -0.5848  1.4874
  163OSM     NF18314   5.926   6.220   1.963  0.1051 -0.0780  0.1858
  163OSM    HNF18315   5.905   6.123   1.958 -0.4804 -0.0366  1.3869
  163OSM    C2S18316   5.923   6.284   1.842 -0.0965  0.2472  0.4489
  163OSM    H2S18317   5.877   6.383   1.864 -0.9628  0.0339 -0.3594
  163OSM    C3S18318   5.817   6.235   1.741  0.7809  1.1336 -0.3646
  163OSM    H3S18319   5.829   6.129   1.713  0.3263  0.1608  2.7786
  163OSM     O318320   5.827   6.284   1.611 -0.0906 -0.3091  0.4141
  163OSM    HO318321   5.902   6.344   1.621  0.0054 -0.3811  0.1474
  163OSM    C4S18322   5.681   6.248   1.812  0.6179  0.0539  0.0467
  163OSM    H4S18323   5.648   6.151   1.852  1.2382 -0.3961 -0.5309
  163OSM    C5S18324   5.600   6.359   1.813 -0.5292  0.2625 -0.2416
  163OSM    H5S18325   5.627   6.449   1.757  0.7826 -0.6636 -1.1507
  163OSM    C6S18326   5.466   6.350   1.869 -0.5646 -0.4641 -0.3360
  163OSM    H6S18327   5.450   6.246   1.904  0.3452 -0.4395  0.1877
  163OSM    H6T18328   5.379   6.362   1.801 -1.2212 -0.9008  0.4080
  163OSM    C7S18329   5.458   6.438   1.991 -0.0887  0.0918  1.5947
  163OSM    H7S18330   5.349   6.429   2.014 -0.7376 -0.0552 -1.1885
  163OSM    H7T18331   5.480   6.544   1.965  1.2310 -0.7015 -0.8208
  163OSM    C8S18332   5.539   6.384   2.115 -0.9155 -0.4044  0.0349
  163OSM    H8S18333   5.648   6.387   2.095 -0.8465  0.3325  0.4958
  163OSM    H8T18334   5.524   6.277   2.138 -1.3007 -0.3348  0.1065
  163OSM    C9S18335   5.520   6.478   2.237 -0.6354  0.0002  0.0439
  163OSM    H9S18336   5.410   6.490   2.249 -0.7144  1.1710 -1.4812
  163OSM    H9T18337   5.563   6.580   2.232  0.2171 -0.1594  2.6515
  163OSM   C10S18338   5.580   6.418   2.370  0.1806 -0.3188  0.3355
  163OSM   H10S18339   5.690   6.434   2.372  0.3118 -1.2355  2.6201
  163OSM   H10T18340   5.579   6.308   2.356 -0.0363 -0.3973  0.9648
  163OSM   C11S18341   5.514   6.458   2.496  0.4067  0.2425  0.5387
  163OSM   H11S18342   5.412   6.414   2.498 -0.7610  2.8516  1.1730
  163OSM   H11T18343   5.499   6.567   2.502  0.0103  0.4727 -2.7413
  163OSM   C12S18344   5.594   6.405   2.617 -0.1241  0.4021 -0.5715
  163OSM   H12S18345   5.692   6.458   2.621  0.6757 -0.9799 -1.0772
  163OSM   H12T18346   5.612   6.296   2.607  2.6654  0.6681  0.5576
  163OSM   C13S18347   5.511   6.438   2.740 -0.2736  0.0681 -0.0855
  163OSM   H13S18348   5.516   6.344   2.798  1.9585  0.2412  0.0785
  163OSM   H13T18349   5.407   6.469   2.715 -0.4050 -0.0446  0.3232
  163OSM   C14S18350   5.563   6.563   2.813 -0.7725 -0.2405 -1.0984
  163OSM   H14S18351   5.559   6.654   2.749  1.7327  0.0678 -0.9039
  163OSM   H14T18352   5.668   6.534   2.832 -0.9891  0.0080  0.6238
  163OSM   C15S18353   5.501   6.593   2.948  0.8517 -0.5856 -0.2976
  163OSM   H15S18354   5.394   6.615   2.932  1.0839 -0.0147 -1.1303
  163OSM   H15T18355   5.544   6.684   2.995  1.4005 -1.9022  1.9597
  163OSM   C16S18356   5.511   6.482   3.050  0.1599 -0.7126 -0.8386
  163OSM   H16S18357   5.618   6.462   3.073  0.0403 -0.3487  0.0937
  163OSM   H16T18358   5.451   6.399   3.008 -1.3937  0.3444 -0.7790
  163OSM   C17S18359   5.447   6.531   3.191  0.0899  0.5924  0.7170
  163OSM   H17S18360   5.342   6.558   3.168  0.1960 -1.1024 -2.3574
  163OSM   H17T18361   5.504   6.624   3.212 -0.1940  0.8034  0.5526
  163OSM   C18S18362   5.458   6.415   3.294 -0.9146 -0.2536  0.2877
  163OSM   H18S18363   5.418   6.319   3.253 -1.1006  0.9426 -2.5409
  163OSM   H18T18364   5.413   6.446   3.391 -1.2718 -0.3265  0.1464
  163OSM   H18U18365   5.563   6.383   3.310 -1.3629 -1.6931  0.5249
  163OSM    C1F18366   5.972   6.271   2.079  0.1378  1.1817  0.0406
  163OSM     OF18367   5.990   6.388   2.082  0.3356 -0.1278 -0.2993
  163OSM    C2F18368   6.004   6.180   2.196 -0.2771  0.9748 -0.1424
  163OSM    H2F18369   6.102   6.129   2.190 -0.0177  1.6247 -1.6960
  163OSM    H2G18370   5.927   6.100   2.202  1.1974 -0.5555 -0.9925
  163OSM    C3F18371   5.990   6.252   2.332 -0.2989  0.0890 -0.7148
  163OSM    H3F18372   5.888   6.294   2.346 -0.5075  0.4080 -2.8665
  163OSM    H3G18373   6.060   6.339   2.328  0.9632 -0.9260 -1.7021
  163OSM    C4F18374   6.024   6.171   2.452  0.7795 -0.6159  0.2278
  163OSM    H4F18375   6.123   6.121   2.449  0.1792 -1.8543  0.2894
  163OSM    H4G18376   5.955   6.084   2.460  2.0778 -1.5463  1.9262
  163OSM    C5F18377   6.019   6.256   2.584 -0.2288 -0.1558  0.3253
  163OSM    H5F18378   5.924   6.313   2.577 -0.7153 -0.9061  0.6787
  163OSM    H5G18379   6.098   6.333   2.573  0.5368 -1.1864 -1.9631
  163OSM    C6F18380   6.028   6.173   2.710  0.4581  0.0272  0.3958
  163OSM    H6F18381   6.135   6.147   2.719  0.3761 -0.9819 -1.1499
  163OSM    H6G18382   5.968   6.080   2.703  0.5749 -0.0564  0.5049
  163OSM    C7F18383   5.978   6.260   2.829  0.0341 -0.2065  0.0335
  163OSM    H7F18384   5.876   6.291   2.797 -0.8844 -1.9507  1.1216
  163OSM    H7G18385   6.046   6.348   2.829 -0.1473 -0.0383 -1.3598
  163OSM    C8F18386   5.970   6.191   2.967 -0.1685  0.3108 -0.0382
  163OSM    H8F18387   6.063   6.133   2.985 -0.7776 -0.0992  1.9971
  163OSM    H8G18388   5.892   6.112   2.958  0.9767 -1.0092  1.0541
  163OSM    C9F18389   5.932   6.294   3.069 -0.3393 -0.1825 -0.0014
  163OSM    H9F18390   5.864   6.371   3.032  0.8501  0.1137 -1.6822
  163OSM   C10F18391   5.956   6.283   3.200 -0.3804  0.0067 -0.0268
  163OSM   H10F18392   5.936   6.361   3.274 -0.0585  0.1639 -0.1012
  163OSM   C11F18393   6.043   6.170   3.253  0.1415 -0.1284  0.4481
  163OSM   H11F18394   6.062   6.087   3.181  1.6916  1.0110 -0.5191
  163OSM   H11G18395   5.996   6.113   3.336 -1.7241 -1.1044 -1.1936
  163OSM   C12F18396   6.173   6.227   3.310  0.2321 -0.3904 -0.0584
  163OSM   H12F18397   6.158   6.319   3.370 -3.6556 -0.5029 -0.5810
  163OSM   H12G18398   6.234   6.270   3.228 -0.6703 -0.0075 -0.5374
  163OSM   C13F18399   6.257   6.134   3.400 -0.0068 -0.3458  0.0950
  163OSM   H13F18400   6.348   6.195   3.411 -1.5521  2.4025 -1.3456
  163OSM   H13G18401   6.269   6.031   3.358 -0.2450  0.3571 -1.8058
  163OSM   C14F18402   6.199   6.120   3.538  0.1631  0.6130  0.0403
  163OSM   H14F18403   6.120   6.042   3.538  0.0775  0.6956 -0.6915
  163OSM   H14G18404   6.152   6.214   3.574  0.6622  0.6590  0.5996
  163OSM   C15F18405   6.304   6.077   3.643  0.5767  0.6386  0.2451
  163OSM   H15F18406   6.394   6.141   3.630  1.1190  0.1275  1.3969
  163OSM   H15G18407   6.331   5.972   3.619 -1.1046  0.7816 -2.9338
  163OSM   C16F18408   6.248   6.094   3.784 -0.5325 -0.1695 -0.1308
  163OSM   H16F18409   6.166   6.019   3.791 -0.6628  0.0460  0.7407
  163OSM   H16G18410   6.200   6.194   3.786 -0.6795 -0.2404  1.4613
  163OSM   C17F18411   6.354   6.077   3.898  0.7921 -0.0746  1.1252
  163OSM   H17F18412   6.389   6.179   3.923 -1.7228  0.7689  1.4997
  163OSM   H17G18413   6.442   6.024   3.855  0.9491 -0.2118  1.6112
  163OSM   C18F18414   6.300   6.012   4.024 -0.3401 -0.5626 -0.3090
  163OSM   H18F18415   6.267   5.907   4.007 -3.6276  0.7330 -3.3496
  163OSM   H18G18416   6.215   6.070   4.066  2.0988  1.2556  2.4722
  163OSM   H18H18417   6.390   6.018   4.088  1.2330  0.7243 -2.4892
  164OSM      N18418   0.422   0.337   2.063 -0.0543 -0.3911 -0.2475
  164OSM    C1518419   0.318   0.246   2.010  0.3312 -0.7704 -0.1077
  164OSM   H15A18420   0.330   0.143   2.043 -0.1891 -1.6063 -2.3569
  164OSM   H15B18421   0.321   0.249   1.902 -1.6921 -0.2119 -0.1919
  164OSM   H15C18422   0.219   0.280   2.035  1.0223  2.3440 -1.2114
  164OSM    C1418423   0.404   0.473   1.997 -0.3242 -0.7639 -0.0846
  164OSM   H14A18424   0.302   0.506   1.989  0.0237  0.1193 -1.0001
  164OSM   H14B18425   0.445   0.472   1.898  0.6246  2.3352  0.1728
  164OSM   H14C18426   0.461   0.551   2.046  0.3993 -1.4304  0.1609
  164OSM    C1318427   0.410   0.372   2.213 -0.0605 -0.5527  0.6087
  164OSM   H13A18428   0.412   0.279   2.267  1.9655 -1.7223 -1.3097
  164OSM   H13B18429   0.328   0.431   2.251 -0.6098  0.1524 -1.5116
  164OSM   H13C18430   0.498   0.422   2.250  0.5201 -2.1194  1.4120
  164OSM    C1218431   0.565   0.296   2.046 -0.1510 -0.0680 -0.2958
  164OSM   H12A18432   0.587   0.209   2.108  2.2961  1.8674  1.7673
  164OSM   H12B18433   0.633   0.367   2.090  2.6664 -2.3022 -0.8082
  164OSM    C1118434   0.601   0.265   1.907  0.3951  0.1605 -0.0467
  164OSM   H11A18435   0.526   0.204   1.854  1.2065 -1.4291  0.5742
  164OSM   H11B18436   0.698   0.210   1.909  1.1716  1.4944  0.6016
  164OSM      P18437   0.724   0.450   1.756 -0.0865  0.2189 -0.0525
  164OSM    O1318438   0.749   0.366   1.642  0.9979 -0.3229  0.3359
  164OSM    O1418439   0.671   0.589   1.729  0.1677  0.3011 -0.1980
  164OSM    O1118440   0.837   0.450   1.860  0.4252 -0.0658 -0.0528
  164OSM    O1218441   0.600   0.383   1.833 -0.3144 -0.3022  0.0669
  164OSM    C1S18442   0.823   0.520   1.981  0.7307  0.1947 -0.3057
  164OSM    H1S18443   0.721   0.506   2.022  0.7440  2.0999  0.4736
  164OSM    H1T18444   0.843   0.628   1.961  2.5940 -0.2472 -1.0107
  164OSM     NF18445   0.911   0.520   2.230 -0.0255  0.4752  0.6930
  164OSM    HNF18446   0.988   0.570   2.268  0.1867 -0.2184  1.2064
  164OSM    C2S18447   0.926   0.465   2.096 -0.1625 -0.7582  0.1514
  164OSM    H2S18448   0.915   0.355   2.089  0.8446 -1.0397  2.1489
  164OSM    C3S18449   1.079   0.479   2.052  0.0629 -0.4723 -1.0183
  164OSM    H3S18450   1.097   0.588   2.055  0.1130 -0.4991 -0.0280
  164OSM     O318451   1.094   0.450   1.914 -0.5079 -0.5331 -0.0582
  164OSM    HO318452   1.009   0.445   1.871  0.0934 -1.6283 -1.1901
  164OSM    C4S18453   1.175   0.399   2.145  0.6114 -0.1168 -0.3677
  164OSM    H4S18454   1.212   0.455   2.232  0.0861 -2.0222  1.1310
  164OSM    C5S18455   1.219   0.273   2.133 -0.2613  0.3995  0.0401
  164OSM    H5S18456   1.178   0.203   2.059  1.5617 -2.1507  1.3047
  164OSM    C6S18457   1.316   0.220   2.232 -0.1408 -0.1990  0.2942
  164OSM    H6S18458   1.410   0.206   2.176  0.5030  0.7648  1.1027
  164OSM    H6T18459   1.292   0.119   2.272  1.6657 -0.2612  1.3134
  164OSM    C7S18460   1.363   0.294   2.358 -0.3062 -0.6776  0.4888
  164OSM    H7S18461   1.398   0.397   2.332 -0.9235 -0.0136  2.2124
  164OSM    H7T18462   1.452   0.242   2.399 -0.0881 -3.3302 -2.8203
  164OSM    C8S18463   1.256   0.303   2.475 -0.2162 -0.5750  0.4613
  164OSM    H8S18464   1.208   0.204   2.486  0.6824 -0.9161  1.5263
  164OSM    H8T18465   1.177   0.375   2.444  1.5852  1.0072 -0.7210
  164OSM    C9S18466   1.318   0.365   2.595  0.2121 -0.1161 -0.1754
  164OSM    H9S18467   1.373   0.460   2.581  0.6675 -0.2827  0.4726
  164OSM    H9T18468   1.382   0.284   2.637  1.4882  0.7167 -0.4806
  164OSM   C10S18469   1.201   0.381   2.698  0.5626 -0.4855 -0.8551
  164OSM   H10S18470   1.121   0.304   2.691 -1.2648  1.0997  1.2928
  164OSM   H10T18471   1.186   0.491   2.694  1.9359 -0.0926  2.1284
  164OSM   C11S18472   1.256   0.369   2.836 -0.4153  0.4460  0.9139
  164OSM   H11S18473   1.324   0.284   2.855 -0.0162  0.1525 -1.5662
  164OSM   H11T18474   1.170   0.353   2.906 -0.4609 -3.5789  0.1383
  164OSM   C12S18475   1.341   0.493   2.875  0.3016  0.2316 -0.0042
  164OSM   H12S18476   1.297   0.592   2.850 -0.9320 -0.4161 -0.5180
  164OSM   H12T18477   1.435   0.503   2.817  0.2558 -2.3904 -0.6275
  164OSM   C13S18478   1.394   0.499   3.027 -0.4451  0.0959  0.5663
  164OSM   H13S18479   1.471   0.576   3.047 -0.7462  0.8467 -1.0203
  164OSM   H13T18480   1.446   0.404   3.050  1.5219  0.8151 -0.6524
  164OSM   C14S18481   1.274   0.502   3.119 -0.5381  0.3465  0.0069
  164OSM   H14S18482   1.207   0.414   3.106  0.0662 -0.1572  0.3084
  164OSM   H14T18483   1.222   0.599   3.102  0.3402  0.8405  0.0698
  164OSM   C15S18484   1.320   0.481   3.268  0.0200  0.3201  0.8384
  164OSM   H15S18485   1.346   0.584   3.299 -3.4045  1.6234 -0.1173
  164OSM   H15T18486   1.411   0.420   3.284 -0.6169 -0.7403  0.5763
  164OSM   C16S18487   1.201   0.440   3.360 -0.1496  0.3037  0.6834
  164OSM   H16S18488   1.177   0.337   3.328 -2.4463  1.5620 -2.0416
  164OSM   H16T18489   1.119   0.514   3.349  0.2136  0.3898 -1.8646
  164OSM   C17S18490   1.240   0.437   3.506 -0.3114 -0.7824  0.0790
  164OSM   H17S18491   1.271   0.543   3.514  2.6080 -1.2405 -2.9833
  164OSM   H17T18492   1.327   0.372   3.527 -0.6694 -0.5177  2.6762
  164OSM   C18S18493   1.135   0.400   3.606  0.5181 -1.0968 -0.1934
  164OSM   H18S18494   1.176   0.347   3.694  1.8918  0.3065  0.0666
  164OSM   H18T18495   1.080   0.320   3.553 -0.5332 -0.6923  0.2677
  164OSM   H18U18496   1.068   0.485   3.631  0.2755 -1.1166 -0.7700
  164OSM    C1F18497   0.795   0.493   2.292 -0.2369 -0.0311 -0.2833
  164OSM     OF18498   0.722   0.406   2.253  0.4921  0.1655  0.5742
  164OSM    C2F18499   0.760   0.573   2.422  0.2031  0.9660 -0.1367
  164OSM    H2F18500   0.654   0.545   2.439 -0.8614  2.7656 -3.0537
  164OSM    H2G18501   0.768   0.682   2.406 -0.5081  0.8639 -1.2433
  164OSM    C3F18502   0.847   0.532   2.549 -0.1130  0.0162 -0.4512
  164OSM    H3F18503   0.947   0.578   2.539  0.5784 -1.1216  0.8915
  164OSM    H3G18504   0.854   0.427   2.586 -1.8386 -0.5175 -1.5110
  164OSM    C4F18505   0.795   0.603   2.676  0.0238  0.3729 -0.1564
  164OSM    H4F18506   0.689   0.584   2.705  0.4685 -1.7191  0.2223
  164OSM    H4G18507   0.799   0.712   2.652 -1.2098  0.3872 -0.3693
  164OSM    C5F18508   0.890   0.573   2.793 -0.3439 -0.1143  0.2123
  164OSM    H5F18509   0.991   0.609   2.767 -1.1020  1.8951 -0.0955
  164OSM    H5G18510   0.900   0.465   2.820  2.4614  0.5886  2.5627
  164OSM    C6F18511   0.855   0.661   2.910  0.0058  0.4061  0.0761
  164OSM    H6F18512   0.745   0.650   2.918  0.1270 -1.3644 -0.3391
  164OSM    H6G18513   0.874   0.770   2.900  0.7695  0.2130 -0.7545
  164OSM    C7F18514   0.929   0.619   3.037 -0.4185 -0.2698  0.7984
  164OSM    H7F18515   0.938   0.701   3.112 -3.5635  1.8893 -0.9492
  164OSM    H7G18516   1.033   0.592   3.010  0.0976  1.6293  0.7131
  164OSM    C8F18517   0.864   0.509   3.114  0.4649  0.0661  0.0166
  164OSM    H8F18518   0.930   0.469   3.194  1.5592 -0.7633 -1.2572
  164OSM    H8G18519   0.860   0.415   3.056  0.4415 -1.8803  2.9351
  164OSM    C9F18520   0.719   0.526   3.149 -0.4070 -0.5379 -0.0234
  164OSM    H9F18521   0.644   0.535   3.068 -1.0013  0.7279  0.6441
  164OSM   C10F18522   0.675   0.561   3.275 -0.2031 -0.1663  0.4522
  164OSM   H10F18523   0.568   0.563   3.297 -0.5551  0.7715 -1.2070
  164OSM   C11F18524   0.770   0.606   3.384  0.9782  0.3957  0.8115
  164OSM   H11F18525   0.728   0.692   3.440  0.9687  0.2116  1.0867
  164OSM   H11G18526   0.870   0.623   3.339  1.2686 -2.8156 -0.0291
  164OSM   C12F18527   0.789   0.493   3.492 -0.1766  0.4719 -0.2882
  164OSM   H12F18528   0.849   0.538   3.574 -0.5686 -0.3371  0.4574
  164OSM   H12G18529   0.850   0.405   3.461 -0.5212 -0.4203  1.4186
  164OSM   C13F18530   0.660   0.444   3.556  0.0121  0.5446 -0.0480
  164OSM   H13F18531   0.614   0.365   3.494 -0.0179  1.1236 -0.7833
  164OSM   H13G18532   0.581   0.522   3.560 -0.8690 -0.1914 -1.9697
  164OSM   C14F18533   0.683   0.385   3.695 -0.6715  0.1259  0.3319
  164OSM   H14F18534   0.716   0.473   3.754  0.4785 -0.4235  0.5260
  164OSM   H14G18535   0.757   0.303   3.688  0.1313  0.8139  0.6208
  164OSM   C15F18536   0.551   0.338   3.752 -0.6124  0.1098 -0.8750
  164OSM   H15F18537   0.509   0.261   3.684 -1.6813  0.0742 -0.1896
  164OSM   H15G18538   0.488   0.430   3.752  0.4839  0.9243  1.1920
  164OSM   C16F18539   0.569   0.285   3.895  0.4880  0.3290  0.2064
  164OSM   H16F18540   0.613   0.367   3.955  1.6218 -0.9693  1.2019
  164OSM   H16G18541   0.651   0.211   3.908  1.9707  1.8918  0.0113
  164OSM   C17F18542   0.441   0.229   3.963  0.0809  0.3642  0.5003
  164OSM   H17F18543   0.370   0.310   3.939  1.3098  1.3245  0.0042
  164OSM   H17G18544   0.466   0.219   4.071  1.2639  3.0060  0.5488
  164OSM   C18F18545   0.392   0.088   3.911 -0.2315  0.2180  0.5612
  164OSM   H18F18546   0.386   0.082   3.800 -0.4247 -0.9082  0.6206
  164OSM   H18G18547   0.289   0.072   3.949 -0.8002 -3.2153 -2.0113
  164OSM   H18H18548   0.459   0.008   3.948 -0.4012 -0.7906 -1.2055
  165SAPS     N18549   4.856   4.639   6.356 -0.2151  0.0360 -0.8842
  165SAPS   HN118550   4.941   4.698   6.369  0.8741 -1.8728  1.5004
  165SAPS   HN218551   4.794   4.652   6.438  2.7442  2.6304  1.1864
  165SAPS   HN318552   4.893   4.542   6.364 -1.8321 -0.4953  0.8372
  165SAPS   C1218553   4.783   4.644   6.229  0.7694 -0.1071  0.3292
  165SAPS  H12A18554   4.737   4.548   6.214  0.8087  0.1192 -1.4481
  165SAPS   C1318555   4.674   4.753   6.215  0.5170 -0.4437  0.5389
  165SAPS  O13A18556   4.644   4.831   6.310 -0.1608  0.2999  0.4462
  165SAPS  O13B18557   4.622   4.768   6.101  0.4002 -0.1573 -0.3067
  165SAPS   C1118558   4.878   4.669   6.106 -0.2084  0.2583  0.4435
  165SAPS  H11A18559   4.923   4.769   6.121 -1.0637  0.9816 -1.4927
  165SAPS  H11B18560   4.819   4.671   6.012 -0.9743  2.0025  0.9273
  165SAPS     P18561   5.122   4.586   6.031 -0.4974  0.3009 -0.2302
  165SAPS   O1318562   5.191   4.695   6.107 -0.0981  0.0961 -0.0910
  165SAPS   O1418563   5.186   4.451   6.030 -0.4206  0.6186  0.0382
  165SAPS   O1218564   4.974   4.561   6.092  0.3818 -0.8682  0.0181
  165SAPS   O1118565   5.101   4.643   5.893 -0.3486 -0.2777  0.3676
  165SAPS    C118566   5.010   4.563   5.813  0.0302 -0.8613  0.6083
  165SAPS    HA18567   5.049   4.467   5.774  0.3005  0.8120 -3.8896
  165SAPS    HB18568   4.910   4.539   5.856  0.1426 -1.3699  0.5852
  165SAPS    C218569   4.977   4.647   5.683 -0.1439 -0.1406  0.4092
  165SAPS    HS18570   4.893   4.594   5.633 -0.3971  0.9185 -0.3382
  165SAPS   O2118571   5.095   4.659   5.603 -0.7572  0.1297 -0.1200
  165SAPS   C2118572   5.081   4.652   5.476 -0.4303 -0.6269 -0.2727
  165SAPS   O2218573   4.979   4.630   5.419 -0.0577 -0.1322 -0.2089
  165SAPS   C2218574   5.225   4.680   5.406  0.0551 -0.2730 -0.0981
  165SAPS   H2R18575   5.271   4.760   5.468  2.5541 -1.3714 -0.4060
  165SAPS   H2S18576   5.276   4.581   5.414  0.8165 -0.0564 -1.7956
  165SAPS    C318577   4.916   4.785   5.733  0.1660 -0.4814 -0.3988
  165SAPS    HX18578   4.996   4.861   5.748  0.3840 -0.8462  0.3628
  165SAPS    HY18579   4.856   4.766   5.825 -1.6446  1.0394 -1.1909
  165SAPS   O3118580   4.829   4.841   5.642  0.1502  0.4783 -0.2094
  165SAPS   C3118581   4.711   4.782   5.633  0.5923 -0.9491  0.0649
  165SAPS   O3218582   4.671   4.690   5.706 -0.4576 -0.2806  0.3219
  165SAPS   C3218583   4.641   4.836   5.513  0.6334 -0.1913 -0.2757
  165SAPS   H2X18584   4.644   4.947   5.508 -0.9756 -0.1239 -0.2544
  165SAPS   H2Y18585   4.536   4.802   5.517  0.7340 -0.3953  2.9888
  165SAPS   C2318586   5.206   4.733   5.257 -0.4105  0.3574 -0.0462
  165SAPS   H3R18587   5.177   4.840   5.262  0.0527  0.4367  1.6051
  165SAPS   H3S18588   5.128   4.672   5.208 -1.1519  0.5995  0.8022
  165SAPS   C2418589   5.346   4.717   5.189 -0.5878 -0.2392  0.0441
  165SAPS   H4R18590   5.338   4.767   5.091 -1.4316 -2.6191 -1.1821
  165SAPS   H4S18591   5.356   4.609   5.166 -1.6853 -0.6107  1.1681
  165SAPS   C2518592   5.466   4.767   5.264 -0.1179  0.0462 -0.2300
  165SAPS   H5R18593   5.464   4.771   5.374  0.3151  1.6023 -0.2549
  165SAPS   C2618594   5.578   4.807   5.201  0.6056  0.3824 -0.8146
  165SAPS   H6R18595   5.662   4.847   5.260  0.5039  3.5024 -2.6110
  165SAPS   C2718596   5.597   4.805   5.051 -0.1928  0.2775  0.4247
  165SAPS   H7R18597   5.511   4.854   5.001  0.6568  1.9886  0.5766
  165SAPS   H7S18598   5.602   4.702   5.008 -0.5827 -0.1523  1.3717
  165SAPS   C2818599   5.708   4.884   4.995 -0.2256  0.2019 -0.3253
  165SAPS   H8R18600   5.762   4.955   5.059 -1.4200 -0.6107  1.6674
  165SAPS   C2918601   5.725   4.894   4.859 -0.5644 -0.4403  0.3843
  165SAPS   H9R18602   5.801   4.970   4.832  1.2639 -1.7993  1.4054
  165SAPS  C21018603   5.630   4.836   4.751 -0.8052 -0.1762 -0.9090
  165SAPS  H10R18604   5.596   4.935   4.714 -1.3091  1.1243  2.6232
  165SAPS  H10S18605   5.549   4.774   4.796  0.2615 -1.6914 -1.0008
  165SAPS  C21118606   5.687   4.751   4.642  0.2897 -0.3060  0.0893
  165SAPS  H11R18607   5.788   4.710   4.662 -0.1105 -1.7890 -0.7615
  165SAPS  C21218608   5.620   4.724   4.528 -0.0196 -0.1566  0.0747
  165SAPS  H12R18609   5.665   4.642   4.470  1.9830 -0.0495  1.3690
  165SAPS  C21318610   5.484   4.772   4.485 -0.6637 -0.1449  1.0718
  165SAPS  H13R18611   5.498   4.874   4.445  0.0606  0.2513  2.2614
  165SAPS  H13S18612   5.410   4.769   4.568 -1.8911 -2.4890 -0.0015
  165SAPS  C21418613   5.425   4.709   4.360 -0.4026 -0.5223  0.1490
  165SAPS  H14R18614   5.418   4.775   4.272  0.4511 -1.3146 -0.5345
  165SAPS  C21518615   5.369   4.589   4.349 -1.0922 -0.3118  0.7626
  165SAPS  H15R18616   5.339   4.548   4.252 -1.3770  1.0408  0.2566
  165SAPS  C21618617   5.351   4.492   4.467 -0.2815  0.5887 -0.5423
  165SAPS  H16R18618   5.312   4.538   4.560  2.0228  1.1605  0.2158
  165SAPS  H16S18619   5.453   4.460   4.497 -1.0260 -0.3252  1.1235
  165SAPS  C21718620   5.269   4.371   4.420 -0.6514  1.2531  0.1178
  165SAPS  H17R18621   5.317   4.305   4.345  2.8168  1.6544  1.7613
  165SAPS  H17S18622   5.166   4.398   4.387 -1.5491 -1.1259  0.6917
  165SAPS  C21818623   5.251   4.283   4.543 -0.7061 -0.1909  0.1124
  165SAPS  H18R18624   5.190   4.333   4.622  0.1189 -1.0446  1.3228
  165SAPS  H18S18625   5.356   4.275   4.577 -0.4727 -0.5532 -0.6839
  165SAPS  C21918626   5.193   4.146   4.523  0.0807  0.5471 -0.0810
  165SAPS  H19R18627   5.093   4.154   4.476  0.4400  2.0921 -0.6294
  165SAPS  H19S18628   5.187   4.092   4.620  1.0714 -1.1628 -0.9104
  165SAPS  C22018629   5.272   4.039   4.440 -0.2666 -0.3799  0.4363
  165SAPS  H20R18630   5.220   3.942   4.452 -1.3052 -0.0298 -1.0201
  165SAPS  H20S18631   5.375   4.032   4.482  0.2329 -1.1258 -0.8566
  165SAPS  H20T18632   5.292   4.070   4.335 -4.2664  0.4761 -0.2438
  165SAPS   C3318633   4.707   4.781   5.381  0.6363 -0.0357  0.5139
  165SAPS   H3X18634   4.681   4.673   5.379 -0.6879  0.2759 -0.4567
  165SAPS   H3Y18635   4.817   4.794   5.387  1.1465 -2.6949 -1.2196
  165SAPS   C3418636   4.656   4.855   5.252  0.4019 -0.3093  0.2334
  165SAPS   H4X18637   4.700   4.957   5.251  1.6558 -0.7931 -2.4576
  165SAPS   H4Y18638   4.546   4.869   5.261  0.5901  1.1918  0.4463
  165SAPS   C3518639   4.702   4.789   5.119 -0.0452  0.2387 -0.7421
  165SAPS   H5X18640   4.634   4.702   5.106 -1.7666  1.6385 -1.4883
  165SAPS   H5Y18641   4.808   4.759   5.134  0.3173  1.5856 -0.4373
  165SAPS   C3618642   4.695   4.878   5.001 -0.2273  0.3598 -0.5742
  165SAPS   H6X18643   4.734   4.980   5.019  0.5863 -0.1238  0.5679
  165SAPS   H6Y18644   4.594   4.891   4.957 -1.0565 -0.8411  0.8447
  165SAPS   C3718645   4.786   4.836   4.887  0.8715 -0.2356 -0.4097
  165SAPS   H7X18646   4.744   4.740   4.848  0.0048  0.8286 -2.2476
  165SAPS   H7Y18647   4.887   4.821   4.931 -0.6386 -0.3029  3.4275
  165SAPS   C3818648   4.790   4.928   4.760  0.9864  0.0316 -0.3138
  165SAPS   H8X18649   4.881   4.904   4.701  0.5694 -0.4286 -0.7808
  165SAPS   H8Y18650   4.807   5.031   4.798  0.2398 -0.4685  1.5170
  165SAPS   C3918651   4.670   4.916   4.673 -0.2365 -0.2672  0.0831
  165SAPS   H9X18652   4.579   4.943   4.731 -2.1721 -1.8164 -2.0623
  165SAPS   H9Y18653   4.666   4.808   4.648  0.0123 -0.4003  0.6174
  165SAPS  C31018654   4.681   5.010   4.542  0.9402  0.4723  0.2498
  165SAPS  H10X18655   4.779   4.996   4.493  0.3422 -1.0357 -0.5677
  165SAPS  H10Y18656   4.669   5.115   4.578  0.7729  0.4673  0.2081
  165SAPS  C31118657   4.586   4.960   4.440 -0.1082 -0.9504 -1.0230
  165SAPS  H11X18658   4.485   4.961   4.486  0.1280 -1.3161 -0.4755
  165SAPS  H11Y18659   4.606   4.851   4.428 -2.5575 -1.4393 -1.1862
  165SAPS  C31218660   4.580   5.042   4.310  0.0759 -0.3699  0.5058
  165SAPS  H12X18661   4.669   5.032   4.244 -0.6248  1.3039 -0.8053
  165SAPS  H12Y18662   4.575   5.151   4.330  0.5568  0.1166 -1.7142
  165SAPS  C31318663   4.468   5.009   4.214  0.4610  0.0071 -0.1569
  165SAPS  H13X18664   4.369   5.033   4.259  2.3241  2.9708  2.8507
  165SAPS  H13Y18665   4.482   4.899   4.210 -0.2736 -0.2194  2.0014
  165SAPS  C31418666   4.471   5.078   4.076 -0.3582 -0.4197 -0.2326
  165SAPS  H14X18667   4.564   5.044   4.026 -0.8004 -1.8602 -0.1418
  165SAPS  H14Y18668   4.485   5.187   4.089 -0.4639 -0.3231 -0.9181
  165SAPS  C31518669   4.344   5.046   3.999  0.1938 -0.1435 -0.0904
  165SAPS  H15X18670   4.263   5.086   4.064  1.7831 -0.4343  2.1575
  165SAPS  H15Y18671   4.338   4.936   3.986  0.9847  0.0078 -2.1199
  165SAPS  C31618672   4.314   5.094   3.861  0.4513  0.4649  1.3355
  165SAPS  H16X18673   4.368   5.028   3.789 -0.5134  1.0006  0.0869
  165SAPS  H16Y18674   4.345   5.200   3.852  1.2663  0.1083 -0.5131
  165SAPS  C31718675   4.168   5.095   3.823 -0.0747 -0.5404  0.1949
  165SAPS  H17X18676   4.127   5.188   3.868 -1.2150  1.7461 -4.8517
  165SAPS  H17Y18677   4.114   5.001   3.847 -1.0935 -0.0984 -0.3121
  165SAPS  C31818678   4.157   5.111   3.669 -0.1450 -0.8020  0.2054
  165SAPS  H18X18679   4.228   5.180   3.618 -0.4465 -0.7434 -0.1379
  165SAPS  H18Y18680   4.053   5.126   3.632 -0.2141  0.2964  0.7899
  165SAPS  H18Z18681   4.187   5.014   3.626  1.3841 -0.5555  0.6507
  166SAPS     N18682   1.851   5.021   5.818  0.1553 -0.1379  0.0619
  166SAPS   HN118683   1.836   5.081   5.734 -0.3689 -0.2925  0.0402
  166SAPS   HN218684   1.904   5.078   5.887  0.2483 -1.0150  0.7230
  166SAPS   HN318685   1.907   4.940   5.785 -1.0742 -0.1247 -2.3340
  166SAPS   C1218686   1.740   4.977   5.887 -0.0777  0.0732  0.0523
  166SAPS  H12A18687   1.669   4.935   5.818 -0.9568  1.6939 -0.0745
  166SAPS   C1318688   1.766   4.875   5.994 -0.0964  0.5053 -0.2944
  166SAPS  O13A18689   1.875   4.858   6.044 -0.0459 -0.3682 -1.1377
  166SAPS  O13B18690   1.661   4.832   6.053 -0.7558  0.6407 -0.8282
  166SAPS   C1118691   1.671   5.094   5.962 -0.0022 -0.3876  0.0782
  166SAPS  H11A18692   1.739   5.139   6.037 -0.2668 -1.3646  0.9349
  166SAPS  H11B18693   1.578   5.068   6.018  0.5640 -1.1574  0.6857
  166SAPS     P18694   1.506   5.208   5.783 -0.1590 -0.3990 -0.0943
  166SAPS   O1318695   1.401   5.117   5.841  0.0699  0.1978  0.8161
  166SAPS   O1418696   1.471   5.355   5.771  1.0126  0.4744 -0.0775
  166SAPS   O1218697   1.635   5.205   5.878 -0.1368  0.8180 -0.0536
  166SAPS   O1118698   1.565   5.157   5.650  0.0680  0.6363  0.0918
  166SAPS    C118699   1.493   5.155   5.530 -0.1488  0.1204  0.3312
  166SAPS    HA18700   1.383   5.147   5.543 -0.2436  3.0849  2.5041
  166SAPS    HB18701   1.510   5.250   5.475  1.2666 -0.6060 -0.5567
  166SAPS    C218702   1.552   5.045   5.434  0.2858 -0.0608 -0.2463
  166SAPS    HS18703   1.547   4.953   5.497 -1.8758 -1.1911 -1.9578
  166SAPS   O2118704   1.684   5.079   5.387  0.1914  0.1801  0.3968
  166SAPS   C2118705   1.778   4.991   5.400 -0.2221  0.1579 -0.1382
  166SAPS   O2218706   1.764   4.885   5.460  0.1023 -0.0934 -0.2655
  166SAPS   C2218707   1.910   5.034   5.327 -0.2972  0.5978  0.0114
  166SAPS   H2R18708   1.939   5.140   5.346  0.6912  0.5589 -1.1513
  166SAPS   H2S18709   1.987   4.970   5.375 -0.7330 -0.1357 -0.2601
  166SAPS    C318710   1.455   5.033   5.316 -0.3920 -0.1318 -0.1993
  166SAPS    HX18711   1.446   5.128   5.260  2.3462 -0.1464 -0.8478
  166SAPS    HY18712   1.357   5.004   5.359 -1.0591  0.1571 -1.4583
  166SAPS   O3118713   1.508   4.940   5.221  0.3141 -0.1047  0.1735
  166SAPS   C3118714   1.445   4.826   5.208  0.3821  0.5066  0.1344
  166SAPS   O3218715   1.350   4.790   5.276 -0.9880 -0.1520 -0.3832
  166SAPS   C3218716   1.513   4.733   5.105 -0.0751 -0.0795  0.1892
  166SAPS   H2X18717   1.477   4.633   5.137 -1.1876  0.0887 -0.5026
  166SAPS   H2Y18718   1.618   4.726   5.141  0.0231 -1.7771 -0.3065
  166SAPS   C2318719   1.917   5.006   5.175  0.0856  0.3601 -0.0030
  166SAPS   H3R18720   1.843   4.925   5.155  0.1439  0.5209 -0.9223
  166SAPS   H3S18721   2.014   4.963   5.141 -1.5254 -2.5829 -1.2415
  166SAPS   C2418722   1.889   5.123   5.082 -0.0770  0.2209 -0.1068
  166SAPS   H4R18723   1.902   5.084   4.979  0.5612  0.7791 -0.2416
  166SAPS   H4S18724   1.975   5.192   5.090  0.6938 -0.4645 -1.8619
  166SAPS   C2518725   1.768   5.211   5.093  0.9808 -0.8352 -0.4203
  166SAPS   H5R18726   1.694   5.190   5.171  1.1562 -1.0247 -0.3074
  166SAPS   C2618727   1.753   5.320   5.017 -0.7385 -0.3504 -0.2903
  166SAPS   H6R18728   1.656   5.371   5.014 -1.2449 -1.0730  1.9663
  166SAPS   C2718729   1.844   5.360   4.906  0.0589 -0.2537  0.0486
  166SAPS   H7R18730   1.857   5.270   4.842 -3.3441 -1.1838  0.4229
  166SAPS   H7S18731   1.936   5.399   4.954  0.4900  1.0079 -1.6824
  166SAPS   C2818732   1.792   5.482   4.824  0.0347  0.8753  0.8236
  166SAPS   H8R18733   1.750   5.554   4.896  1.6417  0.0762  2.6562
  166SAPS   C2918734   1.788   5.494   4.692  0.5955 -0.0290 -0.6142
  166SAPS   H9R18735   1.742   5.584   4.649 -0.4740  0.0061  0.5294
  166SAPS  C21018736   1.816   5.386   4.591  0.3729 -0.4954 -0.1169
  166SAPS  H10R18737   1.808   5.282   4.630  1.1365 -0.5082  0.0389
  166SAPS  H10S18738   1.923   5.395   4.562  0.1373  0.3568 -0.7376
  166SAPS  C21118739   1.734   5.384   4.464  0.1679  0.6260  0.2636
  166SAPS  H11R18740   1.681   5.290   4.445 -1.0690  1.8272 -2.8939
  166SAPS  C21218741   1.728   5.479   4.373 -0.6866 -0.3871  0.5098
  166SAPS  H12R18742   1.657   5.458   4.291 -0.7723  0.5204  0.3404
  166SAPS  C21318743   1.797   5.615   4.376  0.4457  0.5210  0.2213
  166SAPS  H13R18744   1.824   5.645   4.479 -2.3555 -1.1066  1.5481
  166SAPS  H13S18745   1.715   5.681   4.340 -2.2706 -3.6803 -2.2584
  166SAPS  C21418746   1.913   5.638   4.289 -0.3695 -0.1040 -0.5988
  166SAPS  H14R18747   2.008   5.631   4.343 -1.1431 -0.1916  0.7924
  166SAPS  C21518748   1.917   5.672   4.162 -0.2465  0.1072  0.3669
  166SAPS  H15R18749   2.016   5.687   4.117  0.1629  1.1195  1.5379
  166SAPS  C21618750   1.790   5.670   4.087 -0.5104 -0.9940  0.0775
  166SAPS  H16R18751   1.781   5.755   4.016 -3.2316 -1.7501 -0.5863
  166SAPS  H16S18752   1.700   5.679   4.152  0.7424  0.3091  1.7610
  166SAPS  C21718753   1.774   5.552   3.995  0.3283  0.3408  0.5002
  166SAPS  H17R18754   1.765   5.451   4.038  1.2609 -0.0857 -0.2675
  166SAPS  H17S18755   1.863   5.553   3.927  0.2030 -0.6465  0.3139
  166SAPS  C21818756   1.642   5.570   3.906  0.0413  0.0973 -0.5126
  166SAPS  H18R18757   1.554   5.585   3.973 -0.4325  0.4781 -1.2138
  166SAPS  H18S18758   1.622   5.474   3.853 -2.7080  0.0501  0.4374
  166SAPS  C21918759   1.644   5.674   3.796 -0.3073 -0.0854  0.7944
  166SAPS  H19R18760   1.645   5.775   3.842 -1.8850 -0.0254  0.7415
  166SAPS  H19S18761   1.553   5.675   3.733  1.5305  0.4618 -2.0699
  166SAPS  C22018762   1.757   5.662   3.694  0.2353  0.2354 -0.2796
  166SAPS  H20R18763   1.746   5.743   3.618  1.9203  0.4381 -0.3419
  166SAPS  H20S18764   1.757   5.561   3.646  0.5714  0.4548 -0.7542
  166SAPS  H20T18765   1.862   5.668   3.730  1.1416 -0.0143 -2.6491
  166SAPS   C3318766   1.483   4.774   4.961  0.1445 -0.1507 -0.6175
  166SAPS   H3X18767   1.378   4.800   4.940 -0.2223 -0.9114  0.2005
  166SAPS   H3Y18768   1.497   4.680   4.903 -3.2875 -0.8669 -0.4640
  166SAPS   C3418769   1.564   4.886   4.900 -0.1216 -0.0574 -0.3774
  166SAPS   H4X18770   1.669   4.866   4.930 -0.4614  1.1450  1.7916
  166SAPS   H4Y18771   1.533   4.979   4.952 -0.2835 -0.3836  0.1232
  166SAPS   C3518772   1.563   4.891   4.743 -0.6330  0.2897  0.1163
  166SAPS   H5X18773   1.461   4.927   4.721 -0.1450  0.7765 -1.4677
  166SAPS   H5Y18774   1.572   4.789   4.698  1.4530 -0.0472  1.1599
  166SAPS   C3618775   1.669   4.987   4.687  0.1050 -0.2302 -0.1275
  166SAPS   H6X18776   1.766   4.948   4.724 -0.5548 -0.9228  0.9530
  166SAPS   H6Y18777   1.653   5.085   4.738  2.3411  0.9863 -1.5832
  166SAPS   C3718778   1.668   4.994   4.535 -0.1002  0.4486  0.2364
  166SAPS   H7X18779   1.599   5.072   4.496 -0.9591 -1.6242 -2.7452
  166SAPS   H7Y18780   1.641   4.890   4.508 -3.0913  0.8771  1.1600
  166SAPS   C3818781   1.806   5.013   4.474  0.9326 -0.7249 -0.4299
  166SAPS   H8X18782   1.865   4.922   4.499 -0.0209 -1.2616 -0.0708
  166SAPS   H8Y18783   1.847   5.101   4.528  1.9942 -1.2817 -0.3124
  166SAPS   C3918784   1.820   5.038   4.324 -0.9008  0.1480 -0.2235
  166SAPS   H9X18785   1.741   5.110   4.293 -1.7205  0.3862  2.1793
  166SAPS   H9Y18786   1.790   4.944   4.273 -1.8862 -0.1872  0.9212
  166SAPS  C31018787   1.961   5.092   4.288  0.8886  0.4708 -0.4209
  166SAPS  H10X18788   2.036   5.042   4.354  0.9406  0.1365 -0.7309
  166SAPS  H10Y18789   1.967   5.201   4.309 -0.6845  0.6344 -0.7274
  166SAPS  C31118790   1.974   5.082   4.137  0.0875 -0.3039  0.0872
  166SAPS  H11X18791   1.895   5.148   4.095 -0.5539 -0.0744  1.5757
  166SAPS  H11Y18792   1.965   4.976   4.107  0.6941 -0.6725  1.1252
  166SAPS  C31218793   2.117   5.134   4.102 -0.4707  0.0828  0.0753
  166SAPS  H12X18794   2.154   5.214   4.170  3.8401 -0.1820 -1.6059
  166SAPS  H12Y18795   2.112   5.175   3.999  0.6713  2.8603  1.0416
  166SAPS  C31318796   2.224   5.029   4.086 -0.3072  0.1169 -0.0535
  166SAPS  H13X18797   2.187   4.944   4.025 -0.9740 -0.0231  0.5418
  166SAPS  H13Y18798   2.259   4.998   4.187  1.0704  1.6637  0.0013
  166SAPS  C31418799   2.352   5.082   4.010 -0.0674  0.1746 -0.1114
  166SAPS  H14X18800   2.391   5.172   4.063 -0.7454 -0.6225  1.8360
  166SAPS  H14Y18801   2.331   5.117   3.907 -2.1882 -0.3625  0.0952
  166SAPS  C31518802   2.460   4.981   3.989  0.1358  0.1574 -0.8420
  166SAPS  H15X18803   2.417   4.884   3.956 -0.3992  0.0000  0.2584
  166SAPS  H15Y18804   2.515   4.957   4.083  0.9109 -3.0834 -1.9736
  166SAPS  C31618805   2.563   5.029   3.883 -0.3833 -0.3368  0.3294
  166SAPS  H16X18806   2.646   4.955   3.894  1.6625  1.6724 -0.6253
  166SAPS  H16Y18807   2.607   5.128   3.908  1.0156 -0.8497 -0.0067
  166SAPS  C31718808   2.514   5.024   3.738 -0.8568 -0.5926  0.7629
  166SAPS  H17X18809   2.457   5.112   3.701  0.7396 -0.9158 -2.9710
  166SAPS  H17Y18810   2.449   4.934   3.735  0.7651 -1.7891 -0.6543
  166SAPS  C31818811   2.632   5.009   3.638 -0.1583  0.8875  0.5386
  166SAPS  H18X18812   2.593   4.990   3.536 -2.9512  0.2471  1.6315
  166SAPS  H18Y18813   2.696   4.922   3.667  0.0608  0.8719  0.0236
  166SAPS  H18Z18814   2.694   5.100   3.651  1.6182 -0.1760 -0.0257
  167SAPS     N18815   3.619   5.989   5.991  0.2006  0.0755  0.4721
  167SAPS   HN118816   3.704   5.929   5.987 -0.2175 -0.4697 -0.5690
  167SAPS   HN218817   3.546   5.916   6.000  1.4542 -1.2009  0.6682
  167SAPS   HN318818   3.616   6.045   5.903  0.3592 -2.3185 -1.1275
  167SAPS   C1218819   3.627   6.074   6.115  0.1936  0.1774 -0.0727
  167SAPS  H12A18820   3.568   6.162   6.091 -0.1247  0.5582  1.9170
  167SAPS   C1318821   3.576   6.004   6.247 -0.0111  0.1942  0.0517
  167SAPS  O13A18822   3.594   5.877   6.255 -0.1825 -0.0263 -0.2114
  167SAPS  O13B18823   3.545   6.076   6.347 -0.3657 -0.1788 -0.0502
  167SAPS   C1118824   3.769   6.126   6.142  0.3648  0.3607  0.2264
  167SAPS  H11A18825   3.834   6.036   6.144 -2.1322 -1.5585  1.6033
  167SAPS  H11B18826   3.778   6.173   6.243  0.4910  0.5085  0.1455
  167SAPS     P18827   3.937   6.223   5.964  0.1594  0.1607 -0.0170
  167SAPS   O1318828   4.040   6.160   6.055  0.0144  0.3343  0.2653
  167SAPS   O1418829   3.924   6.163   5.834  0.0475 -0.0001 -0.6655
  167SAPS   O1218830   3.792   6.227   6.046 -0.3548  0.0984  0.4249
  167SAPS   O1118831   3.981   6.372   5.936 -0.4087  0.0092 -0.3217
  167SAPS    C118832   3.904   6.472   5.862 -0.4326  0.5898  0.3800
  167SAPS    HA18833   3.810   6.433   5.817 -0.8292  2.2085 -0.2635
  167SAPS    HB18834   3.876   6.556   5.929  1.0727  0.0916  1.6900
  167SAPS    C218835   3.990   6.518   5.739  0.5393  0.1514 -0.0015
  167SAPS    HS18836   4.073   6.579   5.782 -0.1227  1.1298 -0.0754
  167SAPS   O2118837   3.911   6.591   5.641  0.6006  1.1241 -0.4979
  167SAPS   C2118838   3.884   6.715   5.677  0.0682 -0.1080  0.2995
  167SAPS   O2218839   3.922   6.769   5.777 -0.0127 -0.3103  0.2503
  167SAPS   C2218840   3.797   6.789   5.575  0.1868 -0.0158 -0.2176
  167SAPS   H2R18841   3.693   6.804   5.612  0.1686  0.7329 -0.5412
  167SAPS   H2S18842   3.846   6.889   5.570  0.9984 -0.4099 -0.3300
  167SAPS    C318843   4.046   6.391   5.664  0.5828 -0.9480  0.7966
  167SAPS    HX18844   3.959   6.323   5.653  0.7956 -1.0136 -0.8194
  167SAPS    HY18845   4.114   6.338   5.734  0.9579  0.9205  1.9191
  167SAPS   O3118846   4.104   6.436   5.537  0.2896  0.2809 -0.1781
  167SAPS   C3118847   4.137   6.331   5.462 -0.3484  0.0628 -0.2149
  167SAPS   O3218848   4.114   6.211   5.490 -0.8721  0.1699 -0.0280
  167SAPS   C3218849   4.209   6.365   5.339 -0.7349  0.1550  0.4307
  167SAPS   H2X18850   4.310   6.399   5.369 -0.2429 -0.7010 -0.2292
  167SAPS   H2Y18851   4.154   6.448   5.289  0.4702  1.1534  0.7195
  167SAPS   C2318852   3.801   6.720   5.438  0.2321  0.5034  0.0900
  167SAPS   H3R18853   3.749   6.622   5.440  0.2533  0.4941  0.1812
  167SAPS   H3S18854   3.904   6.710   5.398  0.1199  2.1363 -0.6652
  167SAPS   C2418855   3.725   6.799   5.326  0.2222  0.5445  0.2440
  167SAPS   H4R18856   3.716   6.728   5.241 -2.3693  1.2875 -0.1921
  167SAPS   H4S18857   3.800   6.875   5.297 -0.2895  0.1331 -2.3766
  167SAPS   C2518858   3.599   6.847   5.387  0.3804 -0.5430  0.2252
  167SAPS   H5R18859   3.542   6.762   5.428 -1.1534 -0.4659 -1.6026
  167SAPS   C2618860   3.566   6.976   5.408 -0.5714 -0.3529  1.0129
  167SAPS   H6R18861   3.467   6.998   5.450 -1.2644 -2.1029  0.3729
  167SAPS   C2718862   3.644   7.101   5.374 -0.1121 -1.0762  0.4486
  167SAPS   H7R18863   3.736   7.073   5.319 -0.3299  0.3270 -0.6856
  167SAPS   H7S18864   3.678   7.154   5.465 -0.6586 -1.4011  0.8499
  167SAPS   C2818865   3.547   7.191   5.296 -0.1796  0.0417 -0.5576
  167SAPS   H8R18866   3.468   7.234   5.359  1.4853  1.9301  0.3643
  167SAPS   C2918867   3.548   7.199   5.160 -0.3090 -0.0254 -0.5867
  167SAPS   H9R18868   3.474   7.265   5.113 -3.3583 -2.4221  0.5510
  167SAPS  C21018869   3.642   7.139   5.058  0.2564  0.1829  0.1418
  167SAPS  H10R18870   3.744   7.127   5.099  0.5267  0.5738 -0.4140
  167SAPS  H10S18871   3.661   7.210   4.975  0.9687 -1.3617 -1.0687
  167SAPS  C21118872   3.602   7.012   4.987  0.0203 -0.2326  0.2568
  167SAPS  H11R18873   3.586   6.931   5.060  2.9916 -1.6775 -0.5218
  167SAPS  C21218874   3.618   6.977   4.857 -0.2541 -0.6628 -0.1812
  167SAPS  H12R18875   3.598   6.870   4.840 -0.6831 -0.7996  1.0708
  167SAPS  C21318876   3.683   7.071   4.751  0.4446 -0.3559  0.9726
  167SAPS  H13R18877   3.790   7.041   4.744  0.3836 -0.1104 -2.3493
  167SAPS  H13S18878   3.683   7.178   4.782  1.1258 -0.8269  2.7743
  167SAPS  C21418879   3.613   7.061   4.620 -0.1525  0.7225 -0.7317
  167SAPS  H14R18880   3.533   7.131   4.594 -1.5021 -0.9765 -1.4108
  167SAPS  C21518881   3.633   6.963   4.528  0.4432  0.2702 -0.0506
  167SAPS  H15R18882   3.574   6.959   4.435 -0.3571 -0.3527  0.4613
  167SAPS  C21618883   3.734   6.855   4.535  0.1107 -0.0863 -0.0982
  167SAPS  H16R18884   3.691   6.765   4.486 -0.5138 -1.4434  2.7620
  167SAPS  H16S18885   3.745   6.831   4.642 -0.4387  0.0016 -0.0156
  167SAPS  C21718886   3.864   6.900   4.465 -0.3355  0.6231  0.2451
  167SAPS  H17R18887   3.937   6.817   4.475 -0.5986  0.2329 -0.8901
  167SAPS  H17S18888   3.918   6.987   4.508  1.6401 -0.4490  0.0259
  167SAPS  C21818889   3.852   6.942   4.318 -0.1457 -0.2412 -0.0205
  167SAPS  H18R18890   3.802   7.042   4.313  1.4045  0.5331 -0.4865
  167SAPS  H18S18891   3.782   6.876   4.262 -1.4086  1.4016 -0.4895
  167SAPS  C21918892   3.995   6.934   4.252 -0.2946 -0.0088  0.3198
  167SAPS  H19R18893   4.039   6.836   4.281 -1.4831 -0.6249  0.1055
  167SAPS  H19S18894   4.046   7.011   4.313 -0.2489  0.0426  0.2182
  167SAPS  C22018895   3.999   6.985   4.106  0.6389 -0.1959 -0.1221
  167SAPS  H20R18896   3.896   7.021   4.085 -0.8107 -2.9725  1.6187
  167SAPS  H20S18897   4.025   6.912   4.027  0.6254 -1.9342  1.4049
  167SAPS  H20T18898   4.076   7.065   4.110  0.7346 -0.3308  2.5337
  167SAPS   C3318899   4.221   6.245   5.240  0.0914 -0.2145  1.0128
  167SAPS   H3X18900   4.118   6.214   5.212  0.2199  0.0128  0.2468
  167SAPS   H3Y18901   4.255   6.155   5.295 -1.1877 -0.7611  0.9411
  167SAPS   C3418902   4.295   6.280   5.113 -0.2134 -0.7895 -0.0442
  167SAPS   H4X18903   4.399   6.291   5.150  0.1249 -1.7419 -0.6960
  167SAPS   H4Y18904   4.268   6.383   5.081  0.5754 -0.6468 -0.2708
  167SAPS   C3518905   4.282   6.185   5.000  0.3084  0.3309 -0.7436
  167SAPS   H5X18906   4.174   6.184   4.973  0.3417  0.9806 -0.9054
  167SAPS   H5Y18907   4.315   6.085   5.038  1.5996  0.7503 -0.7110
  167SAPS   C3618908   4.368   6.220   4.873  0.0775  0.4574  0.5637
  167SAPS   H6X18909   4.473   6.241   4.902  0.3541 -1.2297  0.9310
  167SAPS   H6Y18910   4.334   6.316   4.828  0.0541 -1.1830 -3.3798
  167SAPS   C3718911   4.360   6.104   4.768 -0.1305 -0.5477  0.4627
  167SAPS   H7X18912   4.250   6.104   4.752 -0.2206  4.9390 -1.0119
  167SAPS   H7Y18913   4.405   6.011   4.808  3.6594  0.8772 -0.0942
  167SAPS   C3818914   4.428   6.139   4.640  0.0789 -0.2698  1.0370
  167SAPS   H8X18915   4.408   6.056   4.569  0.2371 -0.7801  1.5827
  167SAPS   H8Y18916   4.539   6.138   4.647  0.3526 -2.2436 -1.7877
  167SAPS   C3918917   4.389   6.271   4.570 -0.0559 -0.1053  0.2879
  167SAPS   H9X18918   4.417   6.361   4.628 -0.6533  1.3870 -1.6462
  167SAPS   H9Y18919   4.279   6.280   4.563 -0.1374  1.2531  2.4488
  167SAPS  C31018920   4.450   6.294   4.428 -0.1705 -0.1247  0.1180
  167SAPS  H10X18921   4.403   6.376   4.370 -1.4240 -0.2140  0.9642
  167SAPS  H10Y18922   4.439   6.203   4.365  0.2562  0.4939 -0.8711
  167SAPS  C31118923   4.604   6.322   4.434 -0.5211  0.5389 -0.5886
  167SAPS  H11X18924   4.648   6.239   4.493  0.6722  1.6262  0.0975
  167SAPS  H11Y18925   4.613   6.419   4.488 -0.3239  1.0406 -1.5034
  167SAPS  C31218926   4.678   6.333   4.300 -0.2301  0.3376  0.1289
  167SAPS  H12X18927   4.781   6.363   4.328  0.2785 -0.4792 -0.7705
  167SAPS  H12Y18928   4.641   6.423   4.247  1.7627 -0.0490 -2.1040
  167SAPS  C31318929   4.671   6.213   4.207  0.1436 -0.0494 -0.1234
  167SAPS  H13X18930   4.569   6.174   4.191 -0.2722 -0.0163  2.1779
  167SAPS  H13Y18931   4.718   6.130   4.264  1.2375  2.3981  2.7759
  167SAPS  C31418932   4.750   6.244   4.078  0.1914  0.4120  0.1441
  167SAPS  H14X18933   4.784   6.145   4.042  0.4388 -0.5824  2.8505
  167SAPS  H14Y18934   4.838   6.311   4.090  1.1381 -0.0025 -3.3809
  167SAPS  C31518935   4.665   6.297   3.964  0.7817  0.0424 -0.3151
  167SAPS  H15X18936   4.643   6.405   3.983  0.5396 -0.1422  0.4573
  167SAPS  H15Y18937   4.565   6.251   3.949  1.2135 -0.7135 -0.9178
  167SAPS  C31618938   4.756   6.285   3.837 -0.6407 -0.3852 -0.2921
  167SAPS  H16X18939   4.765   6.177   3.812  1.5872 -0.2243 -0.3602
  167SAPS  H16Y18940   4.855   6.321   3.874 -0.9592  0.6651 -0.4410
  167SAPS  C31718941   4.703   6.370   3.719 -0.0128  0.2483  0.0965
  167SAPS  H17X18942   4.783   6.377   3.643  1.2258 -0.8612  1.2510
  167SAPS  H17Y18943   4.688   6.469   3.766  1.7116  0.2073  0.8122
  167SAPS  C31818944   4.570   6.310   3.660 -0.7183 -0.2107 -0.1918
  167SAPS  H18X18945   4.588   6.209   3.618 -0.9170  0.4679 -2.0265
  167SAPS  H18Y18946   4.555   6.380   3.575 -0.2617  1.7626  1.2727
  167SAPS  H18Z18947   4.479   6.334   3.720 -0.5310  0.8581 -0.3034
  168SAPS     N18948   2.426   6.700   5.952  0.2981  0.2565 -0.8785
  168SAPS   HN118949   2.457   6.642   5.871  1.2222  1.5991 -1.5180
  168SAPS   HN218950   2.330   6.733   5.931 -0.5656 -0.8129  1.0542
  168SAPS   HN318951   2.501   6.771   5.940  1.0452 -0.2315  0.5723
  168SAPS   C1218952   2.440   6.631   6.082  0.3568 -0.0168  0.7605
  168SAPS  H12A18953   2.515   6.554   6.074 -0.2937 -0.5395 -0.7993
  168SAPS   C1318954   2.468   6.736   6.197  0.2308  0.4012 -0.4740
  168SAPS  O13A18955   2.478   6.853   6.159 -0.4398 -0.1666  0.1903
  168SAPS  O13B18956   2.499   6.706   6.313 -0.5124  0.4799 -0.6860
  168SAPS   C1118957   2.312   6.547   6.114  0.3050  0.0681 -0.0223
  168SAPS  H11A18958   2.224   6.614   6.113  0.9796  0.9837  0.3747
  168SAPS  H11B18959   2.317   6.515   6.220 -0.0955 -0.3245 -0.1186
  168SAPS     P18960   2.333   6.295   6.068 -0.7003  0.0320  0.3229
  168SAPS   O1318961   2.445   6.298   6.160 -0.1553 -0.3427  0.3060
  168SAPS   O1418962   2.215   6.212   6.099  0.0097  0.6101  0.1309
  168SAPS   O1218963   2.295   6.438   6.025  0.5282  0.2448  0.3006
  168SAPS   O1118964   2.391   6.243   5.927 -0.1048  0.1761  0.5954
  168SAPS    C118965   2.301   6.225   5.818 -0.0126 -0.5965  1.6056
  168SAPS    HA18966   2.302   6.120   5.781 -1.9743  0.0070 -0.3705
  168SAPS    HB18967   2.193   6.236   5.843 -0.0762  0.0810  1.0453
  168SAPS    C218968   2.339   6.312   5.698  0.6614  0.4818 -0.3221
  168SAPS    HS18969   2.293   6.271   5.606  0.6952 -1.1154  0.3378
  168SAPS   O2118970   2.481   6.325   5.684 -0.0620  0.0422 -0.0950
  168SAPS   C2118971   2.552   6.231   5.626 -0.4925 -0.4181  0.1032
  168SAPS   O2218972   2.509   6.120   5.594  0.1468 -0.1688 -0.7804
  168SAPS   C2218973   2.703   6.280   5.604  0.3148  0.5493  0.3635
  168SAPS   H2R18974   2.704   6.389   5.626 -0.1613  0.1517  2.5716
  168SAPS   H2S18975   2.766   6.232   5.682  2.7390 -0.2305 -1.9279
  168SAPS    C318976   2.276   6.456   5.718  0.2957 -0.7761  0.3722
  168SAPS    HX18977   2.321   6.504   5.807  0.5252 -0.8756  0.3098
  168SAPS    HY18978   2.167   6.442   5.734  0.6247 -2.2546  1.5209
  168SAPS   O3118979   2.291   6.534   5.599  0.7895  0.3522  0.8337
  168SAPS   C3118980   2.400   6.609   5.592 -0.3311  0.3436 -0.0450
  168SAPS   O3218981   2.480   6.623   5.682 -0.3033  0.0704 -1.5395
  168SAPS   C3218982   2.410   6.669   5.461  0.2250  0.1761 -0.0812
  168SAPS   H2X18983   2.310   6.677   5.413 -0.7448 -2.3031  1.2907
  168SAPS   H2Y18984   2.476   6.620   5.386  0.6350  1.7521 -0.7954
  168SAPS   C2318985   2.778   6.250   5.467  0.4931  0.3575  0.3448
  168SAPS   H3R18986   2.776   6.139   5.457 -3.0620  0.1449  1.8718
  168SAPS   H3S18987   2.884   6.284   5.465  0.4397  0.5342 -1.3346
  168SAPS   C2418988   2.705   6.302   5.333 -0.1807  0.7417 -0.1485
  168SAPS   H4R18989   2.691   6.412   5.336 -1.8431  0.5941 -1.0370
  168SAPS   H4S18990   2.598   6.271   5.337  0.2232 -0.8562 -0.9354
  168SAPS   C2518991   2.777   6.251   5.210 -0.3925 -0.6156 -0.6362
  168SAPS   H5R18992   2.806   6.145   5.212  1.4999 -0.1887 -2.1116
  168SAPS   C2618993   2.826   6.327   5.115  0.0022  0.4538 -0.4856
  168SAPS   H6R18994   2.877   6.263   5.041  2.4417 -0.9871  2.2256
  168SAPS   C2718995   2.828   6.480   5.108  0.3967  0.2127  0.7292
  168SAPS   H7R18996   2.920   6.523   5.063  0.9423 -2.3788 -0.8517
  168SAPS   H7S18997   2.830   6.521   5.211 -0.0900 -0.9752  1.2288
  168SAPS   C2818998   2.708   6.541   5.036 -0.0469 -0.3859 -0.3029
  168SAPS   H8R18999   2.633   6.466   5.004  0.2953 -1.2953  0.9317
  168SAPS   C2919000   2.708   6.667   4.995  0.4155 -0.4364  0.4780
  168SAPS   H9R19001   2.612   6.698   4.949  0.2796 -0.6327  0.6302
  168SAPS  C21019002   2.806   6.782   5.013  0.6811  0.3063 -0.4711
  168SAPS  H10R19003   2.878   6.781   4.929  2.1518 -0.8268  0.7490
  168SAPS  H10S19004   2.864   6.767   5.107 -0.0141 -1.8632 -0.3478
  168SAPS  C21119005   2.748   6.919   5.021 -0.3257 -0.2619 -0.3704
  168SAPS  H11R19006   2.701   6.946   5.117 -0.1103 -1.0250 -0.0405
  168SAPS  C21219007   2.746   7.013   4.926  0.5353  0.0798 -0.5472
  168SAPS  H12R19008   2.686   7.100   4.955  0.0302 -0.3711 -0.2176
  168SAPS  C21319009   2.793   6.991   4.784 -0.2822  0.3616 -0.7629
  168SAPS  H13R19010   2.831   6.887   4.767  0.2967  0.8737 -3.0667
  168SAPS  H13S19011   2.887   7.048   4.766  0.6020 -1.0591 -0.8292
  168SAPS  C21419012   2.684   7.024   4.686  0.2992 -0.2846  0.5075
  168SAPS  H14R19013   2.581   7.012   4.724  0.8568 -1.2995  1.7946
  168SAPS  C21519014   2.698   7.081   4.565  0.0961  0.0124 -0.2561
  168SAPS  H15R19015   2.606   7.099   4.507 -0.2740  0.0273  0.3257
  168SAPS  C21619016   2.834   7.102   4.498  0.6852  0.3894  0.6457
  168SAPS  H16R19017   2.920   7.080   4.565  2.3774 -0.2468 -1.6226
  168SAPS  H16S19018   2.833   7.205   4.458  0.0915  0.1044 -0.0973
  168SAPS  C21719019   2.850   6.997   4.382  0.3852  0.4805 -0.3708
  168SAPS  H17R19020   2.771   7.025   4.310  0.2139 -0.3298 -0.4964
  168SAPS  H17S19021   2.845   6.898   4.431  1.2962  0.2226 -0.7880
  168SAPS  C21819022   2.985   7.008   4.315 -0.5394  0.2041  0.0141
  168SAPS  H18R19023   3.065   7.035   4.388  0.8703  0.8288 -1.6880
  168SAPS  H18S19024   2.981   7.099   4.252 -1.3560 -0.3273 -0.7075
  168SAPS  C21919025   3.013   6.893   4.215  0.9655  0.1623 -0.0844
  168SAPS  H19R19026   2.936   6.886   4.136  1.7061  0.2371 -0.8262
  168SAPS  H19S19027   3.028   6.799   4.272 -0.5552  0.6931  1.2662
  168SAPS  C22019028   3.146   6.918   4.145 -0.4549  0.3140  0.2343
  168SAPS  H20R19029   3.173   6.825   4.090 -1.0701 -0.0106  0.4588
  168SAPS  H20S19030   3.229   6.957   4.207  0.9406 -1.1889 -0.6161
  168SAPS  H20T19031   3.121   6.985   4.060 -0.4130 -0.6456 -0.5629
  168SAPS   C3319032   2.483   6.808   5.484  0.5986 -0.2849  0.1257
  168SAPS   H3X19033   2.585   6.785   5.520  0.4922 -0.9750  0.0156
  168SAPS   H3Y19034   2.429   6.880   5.549  1.1291 -0.0899  0.3506
  168SAPS   C3419035   2.518   6.887   5.356  0.0416 -0.0113 -0.2456
  168SAPS   H4X19036   2.577   6.823   5.287 -0.6331  0.5847 -1.4041
  168SAPS   H4Y19037   2.572   6.980   5.383  1.6877 -0.8529 -0.5113
  168SAPS   C3519038   2.395   6.925   5.283  0.0806  0.4222  0.1355
  168SAPS   H5X19039   2.336   6.972   5.365  1.1305  0.1589  1.0615
  168SAPS   H5Y19040   2.335   6.843   5.238 -1.1078  0.5794  1.3464
  168SAPS   C3619041   2.415   7.022   5.169  0.7462  0.1944  1.1018
  168SAPS   H6X19042   2.473   6.968   5.091 -0.4212 -0.3357  0.5561
  168SAPS   H6Y19043   2.475   7.108   5.204 -0.1766  2.1078 -1.6485
  168SAPS   C3719044   2.281   7.075   5.098 -0.3763  0.0942 -0.6762
  168SAPS   H7X19045   2.220   7.127   5.175 -2.3186  0.5365 -2.4005
  168SAPS   H7Y19046   2.215   6.994   5.061  1.7194 -1.1155 -1.9454
  168SAPS   C3819047   2.292   7.174   4.988 -0.2096 -0.2082 -0.0802
  168SAPS   H8X19048   2.366   7.246   5.028 -2.6175  0.6980  3.0377
  168SAPS   H8Y19049   2.195   7.225   4.969 -0.8935 -2.0521 -2.0285
  168SAPS   C3919050   2.349   7.105   4.863  0.4950 -0.0441 -0.3147
  168SAPS   H9X19051   2.286   7.021   4.827  0.9643 -0.2185 -0.7454
  168SAPS   H9Y19052   2.453   7.070   4.885 -0.1121 -0.4859  2.0784
  168SAPS  C31019053   2.376   7.208   4.757 -0.0019  0.0456  0.3619
  168SAPS  H10X19054   2.483   7.239   4.767  0.1107  0.0672 -0.8002
  168SAPS  H10Y19055   2.312   7.292   4.792 -0.7852 -0.9769  1.4656
  168SAPS  C31119056   2.343   7.156   4.614 -0.0453 -0.2230  0.1735
  168SAPS  H11X19057   2.233   7.157   4.597  0.1288  1.6677 -1.1649
  168SAPS  H11Y19058   2.384   7.058   4.584 -0.3808  0.2362 -1.9581
  168SAPS  C31219059   2.376   7.273   4.515  0.4832 -0.7025 -0.4635
  168SAPS  H12X19060   2.476   7.315   4.540 -0.5411  1.2638  0.5768
  168SAPS  H12Y19061   2.305   7.355   4.540  0.5115 -1.4166  2.3382
  168SAPS  C31319062   2.371   7.231   4.368  0.1771 -0.0030  0.6567
  168SAPS  H13X19063   2.274   7.180   4.348 -0.2931  0.8773  0.6320
  168SAPS  H13Y19064   2.447   7.150   4.361  1.4262  1.2534 -1.0848
  168SAPS  C31419065   2.384   7.351   4.268 -0.6095  0.1517 -0.7053
  168SAPS  H14X19066   2.484   7.397   4.277 -0.1265 -0.8686 -0.7391
  168SAPS  H14Y19067   2.300   7.423   4.278 -1.4458 -1.0756  2.1459
  168SAPS  C31519068   2.377   7.303   4.119 -0.0788  0.3109 -0.1864
  168SAPS  H15X19069   2.284   7.249   4.092 -1.5934  0.9179  3.2867
  168SAPS  H15Y19070   2.458   7.227   4.107  0.0877  0.5496 -0.6012
  168SAPS  C31619071   2.397   7.420   4.022 -0.7838 -0.5999 -0.1279
  168SAPS  H16X19072   2.492   7.465   4.058 -1.4100  0.2873  0.4161
  168SAPS  H16Y19073   2.328   7.506   4.032  1.8569  1.7612 -0.7374
  168SAPS  C31719074   2.420   7.384   3.873 -0.2859 -0.2279 -0.0617
  168SAPS  H17X19075   2.470   7.472   3.828 -2.6556  1.7384  0.9218
  168SAPS  H17Y19076   2.321   7.363   3.825 -0.8155 -0.3823  1.0564
  168SAPS  C31819077   2.501   7.260   3.836  0.7781 -0.4621 -0.1828
  168SAPS  H18X19078   2.546   7.258   3.735  0.9065 -0.5287 -0.1252
  168SAPS  H18Y19079   2.443   7.167   3.852  1.8000 -1.0135  0.4128
  168SAPS  H18Z19080   2.581   7.254   3.914  1.1598  1.5899 -0.3507
  169SAPS     N19081   6.086   1.722   5.985 -0.1414 -0.2658 -0.2793
  169SAPS   HN119082   6.060   1.681   6.077 -0.0187 -1.4304 -0.7447
  169SAPS   HN219083   5.996   1.728   5.933  0.3038 -0.9006 -1.1434
  169SAPS   HN319084   6.140   1.650   5.933  0.5741 -0.5987  0.8913
  169SAPS   C1219085   6.157   1.853   6.002  0.0858  0.5095 -0.1996
  169SAPS  H12A19086   6.113   1.922   5.931 -1.4181  0.3307  0.5422
  169SAPS   C1319087   6.150   1.937   6.130  0.0995 -0.7477  0.0177
  169SAPS  O13A19088   6.076   1.890   6.221  0.2727 -0.3966 -0.2822
  169SAPS  O13B19089   6.187   2.060   6.127 -0.0738  0.2111 -0.0708
  169SAPS   C1119090   6.316   1.840   5.968  0.4046  0.2400  0.5119
  169SAPS  H11A19091   6.371   1.785   6.048  2.8024  0.8795 -0.6109
  169SAPS  H11B19092   6.369   1.937   5.959  1.9453 -0.6698 -0.8514
  169SAPS     P19093   6.365   1.624   5.818  0.2724 -0.3133 -0.0876
  169SAPS   O1319094   6.492   1.588   5.880  0.0408 -0.5584 -0.2111
  169SAPS   O1419095   6.247   1.547   5.868  0.3612 -0.4528  0.0827
  169SAPS   O1219096   6.333   1.778   5.843  0.1313  0.1823 -0.3696
  169SAPS   O1119097   6.373   1.621   5.659 -0.5105  0.1165 -0.1889
  169SAPS    C119098   6.423   1.726   5.577  0.5938 -0.0749  0.4897
  169SAPS    HA19099   6.489   1.796   5.633  1.5947  0.3512 -1.1728
  169SAPS    HB19100   6.481   1.696   5.487 -0.1500 -0.4052  0.1106
  169SAPS    C219101   6.307   1.816   5.516  0.1666 -0.1565  0.2553
  169SAPS    HS19102   6.252   1.846   5.608  0.4973  0.0371  0.3908
  169SAPS   O2119103   6.222   1.734   5.432  0.2129 -0.7032  0.7320
  169SAPS   C2119104   6.101   1.784   5.416  0.2597  0.6393 -0.2328
  169SAPS   O2219105   6.051   1.878   5.478 -1.0260 -0.3268 -0.0262
  169SAPS   C2219106   6.024   1.702   5.317  0.1358  0.8370  0.1608
  169SAPS   H2R19107   6.086   1.665   5.233 -1.9056  0.4823 -1.2861
  169SAPS   H2S19108   5.996   1.612   5.376  0.3058  1.1925  0.7922
  169SAPS    C319109   6.376   1.935   5.436  0.3094 -0.0773 -0.3872
  169SAPS    HX19110   6.455   1.900   5.366  2.4002  0.1894  1.7273
  169SAPS    HY19111   6.431   1.993   5.514 -0.6466 -0.6460  0.7416
  169SAPS   O3119112   6.284   2.018   5.369 -0.2563  0.7863 -0.0374
  169SAPS   C3119113   6.221   2.103   5.433 -0.5414  0.0303  0.2634
  169SAPS   O3219114   6.229   2.126   5.555  0.1773  0.3755 -0.0322
  169SAPS   C3219115   6.132   2.200   5.341 -0.1474  0.0783 -0.2422
  169SAPS   H2X19116   6.131   2.295   5.397  0.0724 -0.2268  0.2919
  169SAPS   H2Y19117   6.037   2.142   5.337  0.2746 -0.5755 -1.9645
  169SAPS   C2319118   5.899   1.774   5.261  0.4055 -0.3309 -0.4483
  169SAPS   H3R19119   5.865   1.844   5.340  1.1731 -1.3588  0.8494
  169SAPS   H3S19120   5.815   1.710   5.228  1.2972 -0.1129 -3.4396
  169SAPS   C2419121   5.955   1.861   5.146 -0.1840  0.0512  0.3764
  169SAPS   H4R19122   6.037   1.926   5.184  0.2481  0.7835 -1.6594
  169SAPS   H4S19123   5.877   1.920   5.094  1.0926  1.1982 -0.3088
  169SAPS   C2519124   6.006   1.778   5.027 -0.3154  0.6640 -0.0711
  169SAPS   H5R19125   5.925   1.725   4.974  0.0275  3.6456 -4.0356
  169SAPS   C2619126   6.130   1.767   4.976  0.1998  0.2018  0.0990
  169SAPS   H6R19127   6.149   1.696   4.894  2.1122  2.1924 -1.2910
  169SAPS   C2719128   6.252   1.833   5.035 -0.4225  0.0835 -0.3663
  169SAPS   H7R19129   6.241   1.835   5.146  0.0991  0.6084 -0.3245
  169SAPS   H7S19130   6.247   1.939   5.003 -1.9010  0.2521  0.3251
  169SAPS   C2819131   6.385   1.764   5.017 -0.1583 -0.7103  0.6674
  169SAPS   H8R19132   6.412   1.705   5.106  0.3475 -2.8074 -0.8101
  169SAPS   C2919133   6.467   1.777   4.914 -0.3960 -0.2352 -0.0746
  169SAPS   H9R19134   6.566   1.728   4.916  0.1612  0.8854  0.5872
  169SAPS  C21019135   6.449   1.860   4.789 -0.0745  0.7576 -0.4216
  169SAPS  H10R19136   6.406   1.959   4.817  0.8551  1.4984 -1.5528
  169SAPS  H10S19137   6.371   1.814   4.724  0.0383  0.6937 -0.5102
  169SAPS  C21119138   6.577   1.879   4.713 -0.2207  0.6542  0.8790
  169SAPS  H11R19139   6.616   1.981   4.725 -1.9431  1.4541 -0.0913
  169SAPS  C21219140   6.621   1.792   4.618 -0.4821  0.4150 -0.0782
  169SAPS  H12R19141   6.725   1.799   4.583  0.4415  0.4311  2.4616
  169SAPS  C21319142   6.563   1.657   4.576  0.3399 -0.8726  0.1867
  169SAPS  H13R19143   6.585   1.634   4.469  2.8591 -0.1086  0.4718
  169SAPS  H13S19144   6.453   1.641   4.580  0.0458 -0.0389 -2.4121
  169SAPS  C21419145   6.619   1.548   4.655 -0.3950 -0.5689  0.2225
  169SAPS  H14R19146   6.607   1.565   4.763  0.6672 -1.2260  0.4585
  169SAPS  C21519147   6.668   1.429   4.613 -0.2366  0.8533  0.6985
  169SAPS  H15R19148   6.704   1.361   4.692  2.5337  1.5084  0.1072
  169SAPS  C21619149   6.690   1.381   4.468 -0.2679  0.3430 -0.7110
  169SAPS  H16R19150   6.629   1.439   4.395  2.0458  1.1615 -2.0929
  169SAPS  H16S19151   6.661   1.276   4.446 -0.9368  1.1445 -4.1670
  169SAPS  C21719152   6.837   1.390   4.421 -0.1291  0.2178  0.6234
  169SAPS  H17R19153   6.846   1.359   4.314  0.0284  0.8764  0.4395
  169SAPS  H17S19154   6.913   1.335   4.480  0.5797  2.0929  1.5182
  169SAPS  C21819155   6.877   1.534   4.428 -0.3204 -0.1112  0.2705
  169SAPS  H18R19156   6.882   1.585   4.527  1.7548  3.6741 -1.5565
  169SAPS  H18S19157   6.801   1.593   4.373  1.0305  2.0774  0.6225
  169SAPS  C21919158   7.002   1.557   4.332 -0.3552 -0.2971 -0.5121
  169SAPS  H19R19159   6.988   1.512   4.231 -1.5927  2.4948 -1.6853
  169SAPS  H19S19160   7.086   1.504   4.382 -2.0461 -1.6188  1.0749
  169SAPS  C22019161   7.036   1.710   4.317  0.3916  0.1911  0.0524
  169SAPS  H20R19162   6.946   1.767   4.283  1.7356  2.9165  0.7418
  169SAPS  H20S19163   7.107   1.736   4.236 -1.0696  0.3236 -1.2441
  169SAPS  H20T19164   7.067   1.750   4.416  0.8213 -0.1227  0.0488
  169SAPS   C3319165   6.186   2.227   5.203 -0.2929 -0.2568 -0.1998
  169SAPS   H3X19166   6.115   2.291   5.146 -3.8971 -1.9487  2.0100
  169SAPS   H3Y19167   6.200   2.130   5.151 -0.2133  0.2648 -1.1845
  169SAPS   C3419168   6.318   2.309   5.213  0.4667  0.4466 -0.1724
  169SAPS   H4X19169   6.383   2.259   5.287  1.1241 -0.9619 -1.6253
  169SAPS   H4Y19170   6.289   2.404   5.263 -0.7888  0.8493 -1.5683
  169SAPS   C3519171   6.394   2.322   5.082 -0.0787  0.5019 -0.5816
  169SAPS   H5X19172   6.335   2.388   5.015 -0.6487 -0.4977 -1.0679
  169SAPS   H5Y19173   6.393   2.224   5.031  0.5805  0.6494 -0.8922
  169SAPS   C3619174   6.534   2.390   5.095  0.1803  0.5248 -0.2378
  169SAPS   H6X19175   6.597   2.312   5.143 -3.3948 -2.2342  0.4297
  169SAPS   H6Y19176   6.526   2.481   5.159  0.1482 -0.1622  0.7528
  169SAPS   C3719177   6.586   2.437   4.954  0.7201  0.0797  0.3202
  169SAPS   H7X19178   6.507   2.502   4.912  1.9054  0.5423 -1.3238
  169SAPS   H7Y19179   6.606   2.346   4.893  2.2334 -0.4001  1.4710
  169SAPS   C3819180   6.724   2.506   4.971 -0.3936  0.3771 -0.5573
  169SAPS   H8X19181   6.786   2.413   4.969 -0.2270  0.4780 -0.1447
  169SAPS   H8Y19182   6.729   2.551   5.072 -2.4564  0.2560 -0.3663
  169SAPS   C3919183   6.751   2.619   4.874 -0.5417 -0.5314 -0.3132
  169SAPS   H9X19184   6.845   2.664   4.913 -0.7218 -0.4521  0.0300
  169SAPS   H9Y19185   6.672   2.696   4.888  0.1254  0.1203 -0.0547
  169SAPS  C31019186   6.762   2.568   4.731 -0.8946  1.0897 -0.5969
  169SAPS  H10X19187   6.752   2.655   4.663 -0.3005  1.9065  0.3422
  169SAPS  H10Y19188   6.676   2.501   4.707 -0.5723  1.3096 -2.4990
  169SAPS  C31119189   6.885   2.478   4.702 -0.8583  0.0133 -0.0602
  169SAPS  H11X19190   6.920   2.433   4.798  1.8051  2.3947  0.1953
  169SAPS  H11Y19191   6.968   2.543   4.668 -0.0546  0.5004  2.6014
  169SAPS  C31219192   6.853   2.364   4.598  0.1387  0.7607 -0.3476
  169SAPS  H12X19193   6.809   2.403   4.504 -0.0698 -2.2639 -1.6280
  169SAPS  H12Y19194   6.776   2.291   4.630  1.1255 -0.2055 -0.1141
  169SAPS  C31319195   6.978   2.289   4.552 -0.0531 -0.6380 -0.2214
  169SAPS  H13X19196   7.025   2.232   4.635 -0.3235 -2.5687 -1.3220
  169SAPS  H13Y19197   7.049   2.361   4.507 -0.2167  0.1320  0.7362
  169SAPS  C31419198   6.948   2.178   4.441 -0.0469 -0.2101  0.8986
  169SAPS  H14X19199   6.894   2.235   4.362 -0.3454  1.4431  2.2363
  169SAPS  H14Y19200   6.869   2.107   4.473  0.5269 -1.3751 -0.1695
  169SAPS  C31519201   7.072   2.100   4.373 -0.1142 -0.5739  0.2816
  169SAPS  H15X19202   7.068   1.994   4.406 -0.2273 -0.3755  0.9133
  169SAPS  H15Y19203   7.164   2.146   4.415 -1.0058  0.6415  0.9786
  169SAPS  C31619204   7.083   2.113   4.219  0.1758 -0.2101 -0.2336
  169SAPS  H16X19205   7.103   2.217   4.186  1.5020  0.0062  1.1404
  169SAPS  H16Y19206   6.986   2.079   4.177  0.1925 -1.9458  1.0295
  169SAPS  C31719207   7.199   2.037   4.165  0.0596  0.7993 -0.2515
  169SAPS  H17X19208   7.169   1.930   4.165  1.5136  0.3621  0.6355
  169SAPS  H17Y19209   7.283   2.044   4.238 -2.4711  0.8481  2.8644
  169SAPS  C31819210   7.239   2.085   4.026 -0.9111 -0.0611  0.2036
  169SAPS  H18X19211   7.267   2.193   4.029 -4.6097  1.0615 -0.1674
  169SAPS  H18Y19212   7.153   2.078   3.956  0.3604 -0.7248 -1.3540
  169SAPS  H18Z19213   7.326   2.028   3.987 -1.7585  0.2976 -2.3808
  170SAPS     N19214   6.380   6.146   6.306 -0.0240 -0.3588 -0.7220
  170SAPS   HN119215   6.381   6.169   6.407  0.5176 -2.8860 -0.0994
  170SAPS   HN219216   6.370   6.044   6.294 -1.5220 -0.2151 -0.8512
  170SAPS   HN319217   6.452   6.193   6.247 -1.4618 -0.5364 -2.7216
  170SAPS   C1219218   6.250   6.207   6.272 -0.8105  0.2324  0.2220
  170SAPS  H12A19219   6.173   6.174   6.340  1.2316 -1.4831  1.7900
  170SAPS   C1319220   6.252   6.360   6.286  0.5516  0.3659 -0.0887
  170SAPS  O13A19221   6.359   6.421   6.306 -0.2558  0.1985 -0.1589
  170SAPS  O13B19222   6.146   6.423   6.290  0.3277 -0.0245 -0.6109
  170SAPS   C1119223   6.219   6.177   6.121  0.1268 -0.0264 -0.8685
  170SAPS  H11A19224   6.304   6.211   6.059 -0.4868 -0.4491 -1.9665
  170SAPS  H11B19225   6.129   6.232   6.084  0.7673  1.4943 -0.2438
  170SAPS     P19226   6.133   5.979   5.970  0.1521 -0.2375  0.5852
  170SAPS   O1319227   6.168   5.831   5.962  1.0514 -0.0718 -0.0345
  170SAPS   O1419228   5.989   6.006   5.970  0.5152 -0.0145  0.4679
  170SAPS   O1219229   6.187   6.039   6.108  0.5064  0.2921  0.3835
  170SAPS   O1119230   6.209   6.071   5.859  0.7992  0.2599 -0.1122
  170SAPS    C119231   6.336   6.039   5.803  0.4523  0.3850 -0.0918
  170SAPS    HA19232   6.385   5.968   5.873  0.5996  1.6608  1.1620
  170SAPS    HB19233   6.315   6.000   5.701 -1.4660  1.9430 -0.3395
  170SAPS    C219234   6.444   6.152   5.807  0.3275 -0.0498 -0.1264
  170SAPS    HS19235   6.450   6.189   5.911  0.3275  0.8971 -0.4500
  170SAPS   O2119236   6.404   6.256   5.712  0.0958  0.0822  0.2861
  170SAPS   C2119237   6.461   6.370   5.735  0.1377 -0.6928  0.0520
  170SAPS   O2219238   6.549   6.392   5.816 -0.0106 -0.5059 -0.1171
  170SAPS   C2219239   6.416   6.474   5.629  0.6893 -0.4624  0.2247
  170SAPS   H2R19240   6.346   6.418   5.562  0.2205 -0.0248  0.3409
  170SAPS   H2S19241   6.343   6.549   5.664  0.3915  0.2567 -1.8011
  170SAPS    C319242   6.576   6.086   5.754  0.1334  0.8621  0.6712
  170SAPS    HX19243   6.589   6.002   5.825  0.9249  0.7141  0.3592
  170SAPS    HY19244   6.659   6.158   5.766 -0.1597  1.7801 -2.0714
  170SAPS   O3119245   6.558   6.033   5.622 -0.1414 -0.0533  0.2424
  170SAPS   C3119246   6.671   5.972   5.576 -0.9172  0.5339 -0.2642
  170SAPS   O3219247   6.780   5.980   5.632 -0.0620  0.3353 -0.9823
  170SAPS   C3219248   6.646   5.911   5.441 -0.3925 -0.0605  0.1199
  170SAPS   H2X19249   6.535   5.910   5.427 -0.4980  0.7662  0.8074
  170SAPS   H2Y19250   6.664   5.802   5.439  1.6097  0.2344 -1.7446
  170SAPS   C2319251   6.527   6.520   5.534  0.0823  0.4558  0.0211
  170SAPS   H3R19252   6.602   6.588   5.581  0.9748  0.9181 -1.9596
  170SAPS   H3S19253   6.470   6.587   5.465  0.6344 -1.0513 -1.9860
  170SAPS   C2419254   6.609   6.413   5.469 -0.4283  0.2486 -0.0502
  170SAPS   H4R19255   6.676   6.369   5.546 -0.1449  1.4719  0.4185
  170SAPS   H4S19256   6.686   6.456   5.402  0.3394  0.6641  1.0619
  170SAPS   C2519257   6.530   6.314   5.395 -0.3590 -0.1449  0.3884
  170SAPS   H5R19258   6.496   6.235   5.463 -1.5819  1.9108  2.3254
  170SAPS   C2619259   6.491   6.320   5.268 -0.6112 -0.1223  0.2656
  170SAPS   H6R19260   6.440   6.232   5.225 -1.1305  0.6846 -0.7940
  170SAPS   C2719261   6.522   6.427   5.163  0.2085  0.9342 -0.5338
  170SAPS   H7R19262   6.529   6.385   5.061 -0.1795  0.3487 -0.3226
  170SAPS   H7S19263   6.621   6.472   5.183  0.2503  1.6859 -2.2158
  170SAPS   C2819264   6.416   6.533   5.151  0.0160  0.4218  0.3091
  170SAPS   H8R19265   6.398   6.591   5.242  0.8850 -0.1494  0.8589
  170SAPS   C2919266   6.342   6.565   5.038 -0.1186 -0.5838 -0.0867
  170SAPS   H9R19267   6.258   6.630   5.064  0.7388  0.8798 -0.8046
  170SAPS  C21019268   6.347   6.488   4.904  0.2286  0.1082  0.5278
  170SAPS  H10R19269   6.250   6.498   4.851  1.3426  1.3134 -1.4130
  170SAPS  H10S19270   6.362   6.378   4.907 -0.1237  0.0775  1.8872
  170SAPS  C21119271   6.452   6.544   4.815 -0.0720  0.1060  0.2367
  170SAPS  H11R19272   6.554   6.525   4.853 -0.6589 -1.8075  1.0191
  170SAPS  C21219273   6.439   6.603   4.695  0.3705  0.1752 -0.2768
  170SAPS  H12R19274   6.532   6.625   4.642  0.4513  1.2619  0.2907
  170SAPS  C21319275   6.309   6.649   4.637  0.0778 -0.6833  0.5525
  170SAPS  H13R19276   6.287   6.748   4.681 -0.1481 -0.4526 -0.0836
  170SAPS  H13S19277   6.226   6.582   4.669 -0.4002 -0.7259 -0.7391
  170SAPS  C21419278   6.303   6.651   4.489  0.1545 -0.5015  0.0013
  170SAPS  H14R19279   6.247   6.569   4.441 -2.0071 -0.3874  2.1232
  170SAPS  C21519280   6.369   6.732   4.408 -0.2988 -0.5462  0.2756
  170SAPS  H15R19281   6.373   6.713   4.300  3.5787 -1.1028  0.3846
  170SAPS  C21619282   6.463   6.845   4.443 -0.3477 -0.2678  0.1415
  170SAPS  H16R19283   6.568   6.814   4.428  0.1207  1.5189 -0.5648
  170SAPS  H16S19284   6.453   6.869   4.551  0.2555 -0.9490  0.3559
  170SAPS  C21719285   6.458   6.983   4.367  1.0667  0.0916 -0.6104
  170SAPS  H17R19286   6.515   7.061   4.423 -1.3730  1.1069  0.6263
  170SAPS  H17S19287   6.359   7.034   4.365  2.0505  2.1926  0.2298
  170SAPS  C21819288   6.512   6.970   4.229  0.2569 -0.3134 -0.1858
  170SAPS  H18R19289   6.457   6.895   4.168  0.8473 -0.9825  0.0862
  170SAPS  H18S19290   6.617   6.932   4.229  0.4757  0.2777 -0.1903
  170SAPS  C21919291   6.506   7.114   4.169 -0.1709  0.0334 -0.3895
  170SAPS  H19R19292   6.570   7.186   4.224  0.0800  1.3674 -2.3313
  170SAPS  H19S19293   6.402   7.152   4.183  0.5941  2.0738  0.1323
  170SAPS  C22019294   6.544   7.121   4.026  0.4717 -0.3262  0.3239
  170SAPS  H20R19295   6.655   7.116   4.016  0.4805  0.6648 -0.2424
  170SAPS  H20S19296   6.510   7.223   3.997 -3.9479 -0.9392  2.4801
  170SAPS  H20T19297   6.506   7.036   3.966  0.4526 -0.2378  0.2089
  170SAPS   C3319298   6.730   5.979   5.335 -0.3733  0.4605  0.2765
  170SAPS   H3X19299   6.835   5.970   5.370  0.1933 -0.4974 -1.5164
  170SAPS   H3Y19300   6.713   6.089   5.333  0.5200  0.6118  0.7329
  170SAPS   C3419301   6.712   5.917   5.189 -0.3816 -0.0285 -0.2287
  170SAPS   H4X19302   6.715   5.806   5.195 -1.5547 -0.0607  0.1567
  170SAPS   H4Y19303   6.795   5.948   5.122  0.3657 -1.9047 -0.2249
  170SAPS   C3519304   6.572   5.954   5.121 -0.3381 -0.0100 -0.6007
  170SAPS   H5X19305   6.556   6.062   5.141 -0.3033 -0.0734 -0.2279
  170SAPS   H5Y19306   6.493   5.894   5.171 -2.4379  1.8721 -1.5220
  170SAPS   C3619307   6.584   5.925   4.971  0.3530  0.1913  0.1074
  170SAPS   H6X19308   6.572   5.815   4.957 -1.4920  0.6235 -2.3885
  170SAPS   H6Y19309   6.683   5.965   4.939  0.9784 -0.4114  1.2201
  170SAPS   C3719310   6.480   6.013   4.898 -0.3777 -0.6380 -0.8888
  170SAPS   H7X19311   6.484   6.114   4.943 -1.2811 -0.8608 -0.2801
  170SAPS   H7Y19312   6.378   5.978   4.925 -0.7657  1.4759  0.6304
  170SAPS   C3819313   6.503   6.023   4.747 -0.2220 -0.5014  0.2560
  170SAPS   H8X19314   6.506   5.922   4.701  1.2121  0.0975 -1.0943
  170SAPS   H8Y19315   6.603   6.066   4.725 -0.9152  0.8395 -0.4637
  170SAPS   C3919316   6.388   6.115   4.687 -0.0587  0.3720  0.0732
  170SAPS   H9X19317   6.390   6.211   4.744 -0.5335  0.1569  0.4594
  170SAPS   H9Y19318   6.292   6.065   4.711  0.8788 -2.1096 -0.9827
  170SAPS  C31019319   6.395   6.149   4.534 -0.6913 -0.0906  0.1254
  170SAPS  H10X19320   6.306   6.208   4.503 -1.0434  0.3475  1.8204
  170SAPS  H10Y19321   6.388   6.059   4.469 -0.7549 -0.7495  1.0068
  170SAPS  C31119322   6.510   6.246   4.487 -0.0303 -0.4840  0.0221
  170SAPS  H11X19323   6.600   6.186   4.515  1.9335  1.9512 -0.6553
  170SAPS  H11Y19324   6.503   6.343   4.541  3.5403  1.5057 -2.6305
  170SAPS  C31219325   6.516   6.270   4.338 -0.3229 -0.2079  0.8244
  170SAPS  H12X19326   6.434   6.340   4.314  0.2650  0.3119  0.2899
  170SAPS  H12Y19327   6.497   6.174   4.284 -0.3596  0.3106 -0.0986
  170SAPS  C31319328   6.652   6.309   4.285 -0.2633 -0.0057  0.4239
  170SAPS  H13X19329   6.731   6.234   4.307  0.6508  0.9660  0.5341
  170SAPS  H13Y19330   6.683   6.408   4.325  3.0907  0.5264 -2.9203
  170SAPS  C31419331   6.673   6.318   4.135  0.5804 -0.5102  0.6901
  170SAPS  H14X19332   6.634   6.228   4.084 -0.6661 -0.0866  0.8559
  170SAPS  H14Y19333   6.781   6.327   4.111  0.9075 -2.3958  1.2593
  170SAPS  C31519334   6.577   6.418   4.072  0.9944  0.5997  0.0310
  170SAPS  H15X19335   6.594   6.514   4.125 -0.1386  1.5112 -1.1850
  170SAPS  H15Y19336   6.471   6.386   4.074  2.0858 -3.6009  1.1015
  170SAPS  C31619337   6.596   6.440   3.920  0.0690  0.0187  0.2504
  170SAPS  H16X19338   6.575   6.346   3.865 -0.4115  0.8665 -1.0636
  170SAPS  H16Y19339   6.702   6.473   3.908 -0.4151  1.5331 -0.1447
  170SAPS  C31719340   6.504   6.550   3.856 -0.1544 -0.3469 -0.3599
  170SAPS  H17X19341   6.401   6.509   3.864  0.2146 -1.6429 -1.7880
  170SAPS  H17Y19342   6.534   6.561   3.749  0.0249  0.9358 -0.1930
  170SAPS  C31819343   6.513   6.680   3.935 -0.3124 -0.1034 -1.0646
  170SAPS  H18X19344   6.475   6.667   4.038  1.1950 -0.3980 -0.5145
  170SAPS  H18Y19345   6.459   6.765   3.889 -2.7971 -0.7763  0.4422
  170SAPS  H18Z19346   6.620   6.708   3.947 -0.2008 -1.5269  2.0619
  171SAPS     N19347   0.328   5.452   6.130  0.2251 -0.0050  1.2672
  171SAPS   HN119348   0.393   5.373   6.110  1.5937  1.1954  0.7949
  171SAPS   HN219349   0.385   5.539   6.131 -0.6970  0.7703 -2.1379
  171SAPS   HN319350   0.277   5.447   6.220  0.9689  0.5410  1.7298
  171SAPS   C1219351   0.236   5.469   6.014 -0.0904  0.0956 -0.1432
  171SAPS  H12A19352   0.180   5.378   6.004 -3.2075  1.9768 -1.5444
  171SAPS   C1319353   0.126   5.580   6.033 -0.0876 -0.0576  0.5084
  171SAPS  O13A19354   0.135   5.655   6.133 -0.0104  0.2704 -0.0184
  171SAPS  O13B19355   0.040   5.595   5.945  0.6109  0.1943  0.3610
  171SAPS   C1119356   0.311   5.486   5.887 -0.4180 -0.0296  0.1583
  171SAPS  H11A19357   0.359   5.586   5.891  2.1197 -1.2164  2.4047
  171SAPS  H11B19358   0.238   5.485   5.803  0.1902 -1.3536 -0.3861
  171SAPS     P19359   0.409   5.267   5.775  0.5387 -0.2693  0.1502
  171SAPS   O1319360   0.548   5.216   5.774 -0.1069 -0.8919 -0.3181
  171SAPS   O1419361   0.295   5.182   5.814 -0.2225  0.5784  0.1947
  171SAPS   O1219362   0.420   5.392   5.866 -0.1606  0.0069  0.5590
  171SAPS   O1119363   0.376   5.327   5.633 -0.1321  0.7755 -0.2234
  171SAPS    C119364   0.470   5.386   5.545 -0.0475  0.6331  0.0033
  171SAPS    HA19365   0.546   5.309   5.519  1.0912  0.4519  3.3512
  171SAPS    HB19366   0.408   5.393   5.453  0.5614 -0.2181 -0.4937
  171SAPS    C219367   0.527   5.520   5.588  0.0187  0.6221  0.0259
  171SAPS    HS19368   0.561   5.506   5.693 -1.5695 -1.5633  0.3004
  171SAPS   O2119369   0.424   5.623   5.584 -0.1275  0.0760  0.1403
  171SAPS   C2119370   0.459   5.728   5.651  0.1935  0.0286  0.3748
  171SAPS   O2219371   0.552   5.744   5.727 -0.1608 -0.4241  0.4409
  171SAPS   C2219372   0.348   5.836   5.617  0.0082  0.0693  0.2708
  171SAPS   H2R19373   0.292   5.799   5.528 -1.3189 -1.0601  1.5230
  171SAPS   H2S19374   0.280   5.837   5.705  1.2277 -3.5174  1.3960
  171SAPS    C319375   0.649   5.554   5.506  0.1017  0.3390 -0.2703
  171SAPS    HX19376   0.726   5.476   5.524 -0.1835  0.2964  0.8029
  171SAPS    HY19377   0.691   5.648   5.546 -1.6904  0.1424  2.3092
  171SAPS   O3119378   0.611   5.554   5.366 -0.3076 -0.2237 -0.1549
  171SAPS   C3119379   0.638   5.669   5.301 -0.6360  0.1926 -0.6779
  171SAPS   O3219380   0.695   5.771   5.347  0.3388 -0.1599 -0.0060
  171SAPS   C3219381   0.570   5.666   5.168  0.7744 -0.6987  0.1429
  171SAPS   H2X19382   0.645   5.645   5.089 -1.2814 -2.4143 -1.4693
  171SAPS   H2Y19383   0.524   5.763   5.139 -2.2410 -1.5616  1.6947
  171SAPS   C2319384   0.406   5.977   5.610  0.8700 -0.3661  0.2361
  171SAPS   H3R19385   0.465   5.989   5.703  1.1041  1.7296 -0.1427
  171SAPS   H3S19386   0.322   6.050   5.611  1.7006  0.6059  0.5077
  171SAPS   C2419387   0.500   6.003   5.493  0.4426  0.3849  0.2242
  171SAPS   H4R19388   0.461   5.947   5.406 -1.1403 -0.4028  1.3945
  171SAPS   H4S19389   0.602   5.964   5.514  1.3203  2.4706  0.1232
  171SAPS   C2519390   0.508   6.150   5.471  0.1359  0.3890 -1.4030
  171SAPS   H5R19391   0.517   6.199   5.569 -1.5613 -2.5005  0.3448
  171SAPS   C2619392   0.456   6.216   5.365 -0.5869  0.4191  0.3252
  171SAPS   H6R19393   0.462   6.325   5.358 -0.8621  0.3359 -1.5515
  171SAPS   C2719394   0.403   6.151   5.241  0.6784  0.0677  0.4317
  171SAPS   H7R19395   0.296   6.149   5.271  0.2026  1.1693 -1.0519
  171SAPS   H7S19396   0.431   6.045   5.221 -1.1974 -0.2345 -0.8606
  171SAPS   C2819397   0.429   6.229   5.114 -1.0571  0.8546 -0.2408
  171SAPS   H8R19398   0.494   6.318   5.121  0.3950 -0.1296 -0.9504
  171SAPS   C2919399   0.398   6.201   4.989  0.0588  0.5998  0.1415
  171SAPS   H9R19400   0.441   6.253   4.902 -1.9945  0.6748 -0.8999
  171SAPS  C21019401   0.310   6.079   4.952 -0.3458  0.4440  0.2898
  171SAPS  H10R19402   0.226   6.095   4.880 -0.1090  2.1317  0.3530
  171SAPS  H10S19403   0.260   6.054   5.048 -0.0194 -2.0373 -0.1190
  171SAPS  C21119404   0.401   5.957   4.923  0.2976 -0.4843 -0.2709
  171SAPS  H11R19405   0.487   5.942   4.990 -0.5655 -0.8256  0.7947
  171SAPS  C21219406   0.381   5.857   4.834  0.5054  0.1902  0.1178
  171SAPS  H12R19407   0.456   5.776   4.833 -0.6288 -0.9206 -1.6581
  171SAPS  C21319408   0.268   5.835   4.739 -0.2814  0.6526 -0.3142
  171SAPS  H13R19409   0.312   5.813   4.640  0.7574 -1.6463  0.5782
  171SAPS  H13S19410   0.210   5.930   4.735 -3.4768 -1.2296 -1.3583
  171SAPS  C21419411   0.177   5.723   4.766 -0.1969 -0.4576 -0.0336
  171SAPS  H14R19412   0.193   5.660   4.855  0.2592 -1.3600 -0.7262
  171SAPS  C21519413   0.088   5.679   4.672 -0.5915  0.2162 -0.1111
  171SAPS  H15R19414   0.031   5.585   4.683 -0.3709  0.0853 -0.0883
  171SAPS  C21619415   0.073   5.746   4.535  0.7004 -0.6634 -0.3342
  171SAPS  H16R19416   0.104   5.852   4.548  0.3180 -0.6250  0.2887
  171SAPS  H16S19417  -0.033   5.742   4.501 -0.3857  0.0837  2.6468
  171SAPS  C21719418   0.168   5.680   4.425  0.0398  0.0393 -0.1976
  171SAPS  H17R19419   0.260   5.659   4.483  0.9557 -0.2960 -1.7325
  171SAPS  H17S19420   0.190   5.753   4.344 -2.7368 -1.7491 -2.8027
  171SAPS  C21819421   0.116   5.545   4.364  0.7134 -0.8675  0.1022
  171SAPS  H18R19422   0.008   5.557   4.341  0.9454 -1.6311 -1.5687
  171SAPS  H18S19423   0.122   5.461   4.436 -1.2986  0.1175  1.5039
  171SAPS  C21919424   0.170   5.506   4.225 -0.2138  0.8476  0.4844
  171SAPS  H19R19425   0.281   5.496   4.222 -0.2384  0.5883  0.4395
  171SAPS  H19S19426   0.142   5.595   4.164 -0.2630  2.3824  2.6218
  171SAPS  C22019427   0.103   5.384   4.159 -0.1452 -0.0451 -1.0249
  171SAPS  H20R19428   0.131   5.367   4.052  0.0466 -1.5269 -0.7655
  171SAPS  H20S19429  -0.008   5.383   4.160 -0.2416 -1.9921  2.3866
  171SAPS  H20T19430   0.127   5.291   4.215  1.6662  0.1713 -1.3616
  171SAPS   C3319431   0.472   5.555   5.141 -0.3625  0.5041  1.2833
  171SAPS   H3X19432   0.500   5.454   5.178 -2.0159 -0.9023 -1.0799
  171SAPS   H3Y19433   0.459   5.539   5.032 -4.4793  1.0510  1.5109
  171SAPS   C3419434   0.327   5.571   5.203  0.1282  0.3801  0.6437
  171SAPS   H4X19435   0.324   5.545   5.312 -0.9350  0.2673  0.5899
  171SAPS   H4Y19436   0.259   5.500   5.152  1.5279 -0.8458  0.3951
  171SAPS   C3519437   0.260   5.712   5.194 -0.5657 -0.0323 -0.1998
  171SAPS   H5X19438   0.258   5.751   5.090 -1.3239  0.6094  0.0508
  171SAPS   H5Y19439   0.318   5.783   5.258 -0.0685 -1.1571  0.6473
  171SAPS   C3619440   0.110   5.716   5.243  0.2862  0.2165  0.1301
  171SAPS   H6X19441   0.124   5.673   5.344  0.7245  1.8073  0.7805
  171SAPS   H6Y19442   0.046   5.649   5.182 -0.0173 -1.0176  1.7441
  171SAPS   C3719443   0.058   5.856   5.265 -0.2800  0.0124 -0.4451
  171SAPS   H7X19444   0.135   5.927   5.302  0.3652 -0.0315 -1.6588
  171SAPS   H7Y19445  -0.016   5.854   5.347  0.2659 -0.4478  0.0457
  171SAPS   C3819446  -0.003   5.909   5.139  0.4781  0.3128  0.0847
  171SAPS   H8X19447  -0.085   5.844   5.100 -0.7377  1.3177  0.8577
  171SAPS   H8Y19448   0.079   5.905   5.065 -1.6967 -0.8771 -2.4329
  171SAPS   C3919449  -0.047   6.062   5.140  0.1617  0.9162 -0.5736
  171SAPS   H9X19450   0.050   6.111   5.161  2.5140 -3.0371 -1.1444
  171SAPS   H9Y19451  -0.116   6.081   5.225 -1.2329  0.6430 -1.6159
  171SAPS  C31019452  -0.119   6.114   5.018 -0.2411 -0.4128 -0.5021
  171SAPS  H10X19453  -0.202   6.043   4.998  0.0651 -0.8814 -0.1156
  171SAPS  H10Y19454  -0.056   6.122   4.927  1.5325 -2.3725  0.4739
  171SAPS  C31119455  -0.201   6.249   5.045 -0.2405  0.2708  0.4703
  171SAPS  H11X19456  -0.120   6.326   5.051 -0.3273  0.3841  0.2360
  171SAPS  H11Y19457  -0.254   6.259   5.142 -1.5225 -1.6986  0.0082
  171SAPS  C31219458  -0.302   6.291   4.935  0.5170  0.6186 -0.3453
  171SAPS  H12X19459  -0.339   6.387   4.978 -0.3271  0.4798 -0.7250
  171SAPS  H12Y19460  -0.382   6.214   4.923  1.9314 -0.7995 -1.0379
  171SAPS  C31319461  -0.237   6.310   4.798  0.0822 -0.1795  0.1433
  171SAPS  H13X19462  -0.229   6.217   4.738 -1.7999  1.2201 -2.5001
  171SAPS  H13Y19463  -0.139   6.361   4.811  0.3988 -0.1637 -2.0403
  171SAPS  C31419464  -0.318   6.398   4.711  0.2365 -0.3471 -0.0015
  171SAPS  H14X19465  -0.333   6.492   4.768  0.8216 -0.2384 -0.0264
  171SAPS  H14Y19466  -0.419   6.353   4.695 -0.1178  1.1800 -2.6768
  171SAPS  C31519467  -0.258   6.433   4.577 -0.0069  0.1797  0.3985
  171SAPS  H15X19468  -0.269   6.352   4.502 -0.6659 -1.1343  1.8456
  171SAPS  H15Y19469  -0.147   6.437   4.591 -0.1949 -0.6714  2.5948
  171SAPS  C31619470  -0.309   6.565   4.518 -0.9825 -0.2325  0.4474
  171SAPS  H16X19471  -0.300   6.641   4.598 -2.1327  0.9057 -0.4480
  171SAPS  H16Y19472  -0.419   6.547   4.507 -0.7997 -1.3881  0.3725
  171SAPS  C31719473  -0.236   6.602   4.387 -0.0324  0.2683  0.3961
  171SAPS  H17X19474  -0.243   6.517   4.316 -0.6302  3.0680 -3.1521
  171SAPS  H17Y19475  -0.129   6.626   4.403 -0.1219  1.5320 -0.7938
  171SAPS  C31819476  -0.312   6.716   4.319  0.4605 -0.1110  0.3045
  171SAPS  H18X19477  -0.421   6.701   4.338  0.6905  0.0369  1.8908
  171SAPS  H18Y19478  -0.289   6.720   4.211  2.2844 -0.5476  0.6494
  171SAPS  H18Z19479  -0.274   6.814   4.354  2.5340 -0.1859 -1.5435
  172SAPS     N19480   7.096   6.030   6.118  0.6912 -0.3993  0.2030
  172SAPS   HN119481   7.124   5.961   6.046  0.8907 -1.2167  1.0561
  172SAPS   HN219482   7.113   5.988   6.211  0.5450 -0.2707  0.2887
  172SAPS   HN319483   6.992   6.043   6.112  0.7402 -0.7281 -2.3914
  172SAPS   C1219484   7.166   6.155   6.107 -0.0114 -0.0660 -0.2168
  172SAPS  H12A19485   7.106   6.216   6.172 -1.1829 -1.6094  0.2263
  172SAPS   C1319486   7.304   6.154   6.179  0.3171 -0.6381  0.5021
  172SAPS  O13A19487   7.352   6.048   6.224 -0.0445  0.5343  0.5077
  172SAPS  O13B19488   7.367   6.263   6.202  0.4437  0.6706  0.1130
  172SAPS   C1119489   7.177   6.201   5.963  0.8723  0.7989  0.5350
  172SAPS  H11A19490   7.240   6.125   5.913  2.0981  1.5439  0.9017
  172SAPS  H11B19491   7.218   6.304   5.950 -0.9278  1.4578 -0.3659
  172SAPS     P19492   6.939   6.308   5.916 -0.0196  0.4013 -0.2179
  172SAPS   O1319493   6.812   6.251   5.971 -0.6685  0.3872 -0.9259
  172SAPS   O1419494   7.003   6.410   5.999  0.0978 -0.2654  0.6990
  172SAPS   O1219495   7.048   6.193   5.898 -0.1102  0.3664  0.4174
  172SAPS   O1119496   6.915   6.362   5.767 -0.3350 -0.2214  0.1641
  172SAPS    C119497   6.929   6.302   5.635  0.7438  0.7474 -0.2914
  172SAPS    HA19498   6.990   6.211   5.655 -1.5576 -0.3470  2.3851
  172SAPS    HB19499   6.829   6.273   5.596  1.3739  0.5498 -1.8330
  172SAPS    C219500   7.009   6.391   5.531  0.5410 -0.5458 -0.0176
  172SAPS    HS19501   7.109   6.406   5.577 -0.0750 -3.2713  2.5415
  172SAPS   O2119502   6.928   6.512   5.523  0.2486  0.9729 -0.0270
  172SAPS   C2119503   6.997   6.619   5.486  0.1103 -0.3962 -0.4340
  172SAPS   O2219504   7.120   6.620   5.487 -0.5344 -0.5940  0.2374
  172SAPS   C2219505   6.895   6.738   5.473 -0.4912 -0.2548 -0.6024
  172SAPS   H2R19506   6.796   6.696   5.504 -0.4318 -0.4023 -0.6129
  172SAPS   H2S19507   6.929   6.821   5.538 -1.8501  1.1904 -1.6621
  172SAPS    C319508   7.019   6.335   5.384  0.3314  0.1589 -0.1149
  172SAPS    HX19509   6.914   6.330   5.349 -0.2305  1.2834  1.3115
  172SAPS    HY19510   7.055   6.230   5.380 -0.9857 -0.3118 -0.1178
  172SAPS   O3119511   7.102   6.412   5.298 -0.0349 -0.2199  0.3589
  172SAPS   C3119512   7.235   6.395   5.318  0.5215 -0.5559 -0.8190
  172SAPS   O3219513   7.279   6.320   5.402 -0.1164  0.7600  0.5528
  172SAPS   C3219514   7.311   6.480   5.222 -0.2567  0.0472 -1.1282
  172SAPS   H2X19515   7.420   6.467   5.237 -0.1273  0.6931 -1.4662
  172SAPS   H2Y19516   7.296   6.586   5.253  0.5279  0.0380 -0.7031
  172SAPS   C2319517   6.886   6.800   5.338 -0.7240 -0.6682  0.2148
  172SAPS   H3R19518   6.989   6.833   5.310 -0.4767 -1.5318  0.0819
  172SAPS   H3S19519   6.833   6.898   5.342  0.8859  0.2724 -0.4447
  172SAPS   C2419520   6.837   6.709   5.227  0.0335  0.3334  1.0055
  172SAPS   H4R19521   6.727   6.694   5.232 -0.0594 -0.1027 -1.3352
  172SAPS   H4S19522   6.873   6.607   5.253  0.0750 -0.0087 -0.2955
  172SAPS   C2519523   6.894   6.732   5.089 -0.3371  0.2321 -0.8124
  172SAPS   H5R19524   7.002   6.714   5.085 -0.1633  0.6477  0.9574
  172SAPS   C2619525   6.840   6.787   4.980  0.4473  0.6161  0.0483
  172SAPS   H6R19526   6.896   6.782   4.885  1.4549  1.8857  0.5377
  172SAPS   C2719527   6.698   6.825   4.961 -0.3122 -0.5858 -0.5272
  172SAPS   H7R19528   6.667   6.890   5.045  2.2422  1.2573 -0.8623
  172SAPS   H7S19529   6.633   6.739   4.987 -2.7428  2.0496  3.1387
  172SAPS   C2819530   6.660   6.883   4.828  0.3519 -0.1379  0.3380
  172SAPS   H8R19531   6.615   6.812   4.757  1.5143  0.1692 -0.7500
  172SAPS   C2919532   6.678   7.009   4.777 -0.0992  0.5062 -0.4329
  172SAPS   H9R19533   6.623   7.032   4.685 -0.4270  0.2038 -0.3177
  172SAPS  C21019534   6.730   7.131   4.858 -0.0456  0.4654 -0.6887
  172SAPS  H10R19535   6.802   7.193   4.801  0.7715 -0.1861 -0.3849
  172SAPS  H10S19536   6.787   7.094   4.946  2.6616  1.2434 -2.0160
  172SAPS  C21119537   6.612   7.213   4.889 -0.1693 -0.3183  0.0553
  172SAPS  H11R19538   6.522   7.188   4.830 -0.9269 -0.9127  1.4110
  172SAPS  C21219539   6.604   7.317   4.978 -0.4604  0.2790 -0.1938
  172SAPS  H12R19540   6.507   7.369   4.977 -1.7351 -1.9475  0.9619
  172SAPS  C21319541   6.712   7.365   5.073 -0.1707  0.2698 -0.5253
  172SAPS  H13R19542   6.728   7.472   5.050 -0.6802  0.2353 -1.0644
  172SAPS  H13S19543   6.806   7.311   5.049 -1.0752 -1.4747 -0.3028
  172SAPS  C21419544   6.671   7.331   5.212 -0.2340 -0.2777 -0.2636
  172SAPS  H14R19545   6.683   7.225   5.240 -1.9165 -0.3072  0.4434
  172SAPS  C21519546   6.647   7.417   5.317  0.1244 -0.2063  0.4604
  172SAPS  H15R19547   6.632   7.375   5.418  0.2692  0.2752  0.6843
  172SAPS  C21619548   6.647   7.564   5.317 -0.2872 -0.3823 -0.3785
  172SAPS  H16R19549   6.591   7.606   5.403 -0.8853  1.3238 -1.5450
  172SAPS  H16S19550   6.593   7.593   5.224  0.5208  2.2854 -0.0959
  172SAPS  C21719551   6.785   7.631   5.322  0.1548 -0.0469  0.4583
  172SAPS  H17R19552   6.784   7.742   5.321 -1.8044 -0.0160  1.3364
  172SAPS  H17S19553   6.846   7.610   5.231 -0.2263 -0.0802  0.2049
  172SAPS  C21819554   6.873   7.589   5.435  0.9181  0.1366 -0.3830
  172SAPS  H18R19555   6.902   7.483   5.418 -0.1522 -0.3530  0.6510
  172SAPS  H18S19556   6.822   7.577   5.533  0.4472 -2.2069 -0.8708
  172SAPS  C21919557   6.999   7.680   5.467 -0.4964  0.4719 -0.2521
  172SAPS  H19R19558   6.965   7.786   5.469 -0.0485  0.6640  2.8716
  172SAPS  H19S19559   7.075   7.660   5.389 -3.4169 -0.8291 -2.9784
  172SAPS  C22019560   7.060   7.651   5.604  0.7919  0.1169 -0.1705
  172SAPS  H20R19561   7.140   7.724   5.630 -1.5318  2.3092  1.3391
  172SAPS  H20S19562   7.107   7.552   5.618  0.2600 -0.2679 -1.0456
  172SAPS  H20T19563   6.985   7.661   5.685 -1.5615 -1.0231 -2.0806
  172SAPS   C3319564   7.263   6.466   5.076  0.8097  0.2173  0.1166
  172SAPS   H3X19565   7.155   6.485   5.064  0.4595 -0.6983  1.6067
  172SAPS   H3Y19566   7.283   6.361   5.048  1.5571  0.0790  1.1086
  172SAPS   C3419567   7.334   6.559   4.971 -0.3088 -0.4057  0.4174
  172SAPS   H4X19568   7.444   6.542   4.983  0.9446  5.3138 -0.0991
  172SAPS   H4Y19569   7.313   6.666   4.994 -0.2731 -0.1428 -0.7125
  172SAPS   C3519570   7.300   6.526   4.832  0.2908  0.3066  0.0308
  172SAPS   H5X19571   7.194   6.540   4.804 -0.0331  0.6620  1.3746
  172SAPS   H5Y19572   7.318   6.419   4.806  0.0085  0.1828  0.3339
  172SAPS   C3619573   7.381   6.608   4.731  0.4378  0.0798  0.0807
  172SAPS   H6X19574   7.476   6.553   4.712  0.2081 -0.0950 -0.5551
  172SAPS   H6Y19575   7.404   6.714   4.757 -1.8082  0.1755  2.0402
  172SAPS   C3719576   7.324   6.615   4.592 -0.5265  0.4370 -0.3941
  172SAPS   H7X19577   7.219   6.650   4.595  0.1754  2.6803  2.8103
  172SAPS   H7Y19578   7.319   6.511   4.552 -0.3172  0.1997  0.1931
  172SAPS   C3819579   7.417   6.704   4.506 -0.4171  0.5616  0.3975
  172SAPS   H8X19580   7.512   6.654   4.474 -0.3290 -1.3070  3.1887
  172SAPS   H8Y19581   7.440   6.798   4.561 -0.7603  0.3745  0.8699
  172SAPS   C3919582   7.343   6.738   4.378  0.8684 -0.2862 -0.0134
  172SAPS   H9X19583   7.254   6.800   4.402 -0.2696 -1.4351 -1.0880
  172SAPS   H9Y19584   7.299   6.643   4.342 -0.5070  0.9391 -1.7449
  172SAPS  C31019585   7.433   6.812   4.279 -0.3898  0.4462  0.0276
  172SAPS  H10X19586   7.516   6.750   4.239 -0.6317  0.7305 -0.9558
  172SAPS  H10Y19587   7.469   6.901   4.335 -1.0680  1.6025 -1.3140
  172SAPS  C31119588   7.344   6.859   4.163 -0.0949 -0.2768 -0.4562
  172SAPS  H11X19589   7.307   6.963   4.178  0.9162  0.5434 -3.0227
  172SAPS  H11Y19590   7.257   6.790   4.172  1.1386 -1.5587  3.1465
  172SAPS  C31219591   7.397   6.853   4.021  0.2082  0.5731  0.0415
  172SAPS  H12X19592   7.433   6.750   3.999  2.4011  1.9288 -3.5653
  172SAPS  H12Y19593   7.483   6.922   4.012 -0.3494  1.2389 -0.2767
  172SAPS  C31319594   7.288   6.897   3.916 -0.4998 -0.0555  0.9941
  172SAPS  H13X19595   7.261   7.003   3.938  0.9105  0.8155 -1.1429
  172SAPS  H13Y19596   7.203   6.827   3.929 -1.2568  0.2243 -1.8352
  172SAPS  C31419597   7.330   6.887   3.772  0.1674 -0.3627  0.2699
  172SAPS  H14X19598   7.349   6.783   3.736  0.8301 -0.6631  1.4359
  172SAPS  H14Y19599   7.431   6.928   3.750  0.5555 -0.5225  1.6886
  172SAPS  C31519600   7.228   6.964   3.692  0.3249 -0.3755 -0.1249
  172SAPS  H15X19601   7.228   7.070   3.724  0.0758  0.1200 -1.6822
  172SAPS  H15Y19602   7.131   6.914   3.713 -0.4509  0.5086 -1.4881
  172SAPS  C31619603   7.249   6.950   3.545  0.1496  0.2165 -0.5246
  172SAPS  H16X19604   7.341   7.010   3.529  1.1081 -1.5451 -2.0478
  172SAPS  H16Y19605   7.248   6.840   3.525  3.6773 -0.0167  0.0514
  172SAPS  C31719606   7.131   7.003   3.466  0.0714 -0.1332  0.6847
  172SAPS  H17X19607   7.111   7.111   3.485  0.5034 -0.0294  0.5459
  172SAPS  H17Y19608   7.048   6.943   3.510  0.4148 -0.8774  0.3356
  172SAPS  C31819609   7.138   6.976   3.313 -0.4452 -0.0319 -0.0802
  172SAPS  H18X19610   7.055   7.021   3.255  0.4778 -0.1529 -1.5648
  172SAPS  H18Y19611   7.141   6.866   3.298  0.2917 -0.0222 -0.0421
  172SAPS  H18Z19612   7.233   7.010   3.265 -0.3873 -2.2647 -1.7373
  173SAPS     N19613   4.889   4.016   1.591 -0.9968  0.3131  0.5741
  173SAPS   HN119614   4.843   4.070   1.514  1.9234 -0.3222 -1.8383
  173SAPS   HN219615   4.823   3.950   1.636 -0.0001  1.1871  3.5062
  173SAPS   HN319616   4.920   4.086   1.661 -0.0730  0.7203 -0.2102
  173SAPS   C1219617   5.012   3.940   1.549 -0.7551 -0.1439 -0.4705
  173SAPS  H12A19618   5.028   3.852   1.610  3.2225  0.3793 -0.4843
  173SAPS   C1319619   5.011   3.897   1.399  0.1388 -1.6763 -0.4819
  173SAPS  O13A19620   4.933   3.954   1.316  0.2686  0.3482 -0.1835
  173SAPS  O13B19621   5.084   3.806   1.364 -0.3191  0.2242  0.4797
  173SAPS   C1119622   5.140   4.034   1.570  0.5670  0.0463  0.2255
  173SAPS  H11A19623   5.126   4.117   1.498  0.7704  1.7449  2.0679
  173SAPS  H11B19624   5.233   3.981   1.539  1.6251  0.9228  1.7628
  173SAPS     P19625   5.270   4.076   1.785 -0.1272  0.0992 -0.2369
  173SAPS   O1319626   5.276   3.934   1.840 -0.1169 -0.3612 -0.6253
  173SAPS   O1419627   5.383   4.130   1.704  0.1345 -0.1846 -0.7073
  173SAPS   O1219628   5.133   4.090   1.709 -0.2336  0.2079 -0.2873
  173SAPS   O1119629   5.264   4.170   1.909 -0.0403  0.1488 -0.2426
  173SAPS    C119630   5.140   4.170   1.988 -0.2884 -0.6140  0.4769
  173SAPS    HA19631   5.059   4.225   1.934  1.0686  0.4847 -0.5048
  173SAPS    HB19632   5.091   4.072   2.010 -1.3693 -0.4945 -1.1692
  173SAPS    C219633   5.165   4.233   2.129  0.1138 -0.3715  0.1553
  173SAPS    HS19634   5.073   4.226   2.191 -0.1218 -0.6196 -0.2171
  173SAPS   O2119635   5.211   4.366   2.112 -0.2901 -0.4791 -0.0604
  173SAPS   C2119636   5.113   4.452   2.083  0.8835 -0.2741  0.2456
  173SAPS   O2219637   4.995   4.430   2.098 -0.1957  0.5052  0.2628
  173SAPS   C2219638   5.167   4.587   2.030 -0.1437  0.0624 -0.2313
  173SAPS   H2R19639   5.277   4.588   2.020 -0.1867 -0.2563 -0.7902
  173SAPS   H2S19640   5.132   4.605   1.926  1.9076  0.8460 -0.8283
  173SAPS    C319641   5.275   4.156   2.205 -0.2214  0.5264 -0.1164
  173SAPS    HX19642   5.272   4.180   2.313 -0.3656 -0.7852  0.1851
  173SAPS    HY19643   5.375   4.185   2.166  0.6245 -1.5161  0.4256
  173SAPS   O3119644   5.262   4.011   2.190 -0.3675 -0.3542 -0.2379
  173SAPS   C3119645   5.372   3.942   2.169 -0.2489  0.0477  0.1557
  173SAPS   O3219646   5.485   3.987   2.149  0.1372 -0.7268 -0.4752
  173SAPS   C3219647   5.342   3.797   2.195  0.2572 -0.1265  1.4089
  173SAPS   H2X19648   5.419   3.761   2.266  1.0692  0.3868  0.8072
  173SAPS   H2Y19649   5.368   3.745   2.101 -0.1572  3.6800 -1.0335
  173SAPS   C2319650   5.127   4.706   2.120  1.0147  0.2557 -0.2724
  173SAPS   H3R19651   5.019   4.701   2.146  1.2485  1.3212  0.9284
  173SAPS   H3S19652   5.146   4.798   2.061  0.5361  2.0970  2.3150
  173SAPS   C2419653   5.203   4.706   2.258 -0.3393  0.1391 -0.1609
  173SAPS   H4R19654   5.312   4.718   2.236  0.4614 -1.9517  2.2362
  173SAPS   H4S19655   5.188   4.605   2.302 -1.6341 -1.2266 -3.4086
  173SAPS   C2519656   5.172   4.826   2.344 -0.5311 -0.3580  0.3952
  173SAPS   H5R19657   5.201   4.926   2.307  0.1639 -0.5923  0.3089
  173SAPS   C2619658   5.124   4.830   2.469 -0.5098  0.7439 -0.3500
  173SAPS   H6R19659   5.085   4.924   2.511 -1.8172 -0.8857  2.3727
  173SAPS   C2719660   5.087   4.705   2.552  0.0227  0.5002 -0.0622
  173SAPS   H7R19661   5.101   4.607   2.501 -1.7632 -0.0219  0.3846
  173SAPS   H7S19662   4.978   4.719   2.565 -0.0682 -0.1125 -0.1292
  173SAPS   C2819663   5.162   4.692   2.684  0.3522 -0.2277  0.1319
  173SAPS   H8R19664   5.266   4.727   2.676 -0.4828  2.8947  1.5527
  173SAPS   C2919665   5.130   4.646   2.805  0.4858  0.2011 -0.0329
  173SAPS   H9R19666   5.205   4.634   2.884  0.6196  1.5209  0.0556
  173SAPS  C21019667   4.990   4.606   2.850  0.3488  0.6363  0.4722
  173SAPS  H10R19668   4.923   4.634   2.766 -0.0197  2.3860  1.3117
  173SAPS  H10S19669   4.967   4.678   2.931 -1.4797 -1.3441  1.8403
  173SAPS  C21119670   4.980   4.462   2.899  0.4804 -0.5374  0.1471
  173SAPS  H11R19671   5.009   4.452   3.005 -0.7817  0.6229  0.6182
  173SAPS  C21219672   4.934   4.354   2.833 -0.6274 -0.2383 -0.0136
  173SAPS  H12R19673   4.925   4.258   2.887  1.2233 -0.4173  0.0407
  173SAPS  C21319674   4.878   4.369   2.694  0.5731 -0.1074  0.2189
  173SAPS  H13R19675   4.821   4.464   2.686  1.7654  0.6070 -0.0119
  173SAPS  H13S19676   4.804   4.287   2.677 -1.2253  1.4863  0.0419
  173SAPS  C21419677   4.986   4.370   2.586 -0.5330 -0.2295  0.1247
  173SAPS  H14R19678   5.084   4.389   2.633 -0.9214 -0.1226  0.8998
  173SAPS  C21519679   4.977   4.341   2.450 -0.1011  0.2927 -0.2075
  173SAPS  H15R19680   5.074   4.336   2.399  0.5950 -3.1013  1.1867
  173SAPS  C21619681   4.845   4.310   2.378 -0.1687  0.3580  0.6009
  173SAPS  H16R19682   4.842   4.358   2.277  0.7028 -1.8231 -0.5176
  173SAPS  H16S19683   4.764   4.359   2.436  0.2226  2.3636 -0.4317
  173SAPS  C21719684   4.825   4.158   2.351  0.1608  0.5858 -0.0022
  173SAPS  H17R19685   4.905   4.118   2.285 -2.1610  0.7102 -3.1132
  173SAPS  H17S19686   4.735   4.157   2.286  0.5741 -0.2933 -0.5799
  173SAPS  C21819687   4.803   4.063   2.467  0.7192 -0.0854  0.2704
  173SAPS  H18R19688   4.739   4.106   2.547 -0.4460  0.0531 -0.7151
  173SAPS  H18S19689   4.902   4.039   2.513 -0.3996 -2.4502  1.6431
  173SAPS  C21919690   4.751   3.926   2.426 -0.8278 -0.4131 -0.0642
  173SAPS  H19R19691   4.643   3.929   2.401 -1.3814 -1.0774  2.0546
  173SAPS  H19S19692   4.765   3.848   2.504  0.6172  2.1679  2.4446
  173SAPS  C22019693   4.824   3.859   2.302  0.2770 -0.4370  0.0062
  173SAPS  H20R19694   4.827   3.748   2.317 -1.0015 -1.1305 -3.7902
  173SAPS  H20S19695   4.925   3.898   2.277 -0.5159  1.1087 -0.8348
  173SAPS  H20T19696   4.757   3.881   2.217  0.4932  2.6787  0.5311
  173SAPS   C3319697   5.195   3.760   2.239 -0.1780  0.1420  0.0188
  173SAPS   H3X19698   5.122   3.798   2.164  1.1343  2.6927 -0.0597
  173SAPS   H3Y19699   5.183   3.804   2.340  1.2582 -2.3628  1.3826
  173SAPS   C3419700   5.172   3.606   2.262  0.3127  0.0454 -0.1173
  173SAPS   H4X19701   5.199   3.551   2.168 -0.6059  0.4063 -0.6009
  173SAPS   H4Y19702   5.063   3.601   2.281  0.2531 -1.9802 -0.7296
  173SAPS   C3519703   5.249   3.541   2.378 -0.1188 -0.9955 -0.1532
  173SAPS   H5X19704   5.257   3.615   2.460  3.6701 -2.4891  1.0195
  173SAPS   H5Y19705   5.354   3.516   2.353  0.1682  0.8219 -0.8432
  173SAPS   C3619706   5.178   3.414   2.420 -0.8610 -0.2521 -0.1991
  173SAPS   H6X19707   5.169   3.329   2.348 -2.6881  0.2425 -0.5972
  173SAPS   H6Y19708   5.077   3.453   2.443 -1.0324 -1.6500  1.6117
  173SAPS   C3719709   5.244   3.360   2.541 -0.0335  0.3614 -0.7854
  173SAPS   H7X19710   5.351   3.342   2.516 -0.6948 -1.9083 -2.2768
  173SAPS   H7Y19711   5.190   3.265   2.564  0.2215  0.4076  0.0625
  173SAPS   C3819712   5.221   3.448   2.668  0.0772  0.3945  0.2829
  173SAPS   H8X19713   5.254   3.552   2.648 -1.7417  0.9764  0.1290
  173SAPS   H8Y19714   5.271   3.397   2.753 -1.1746 -2.0210 -0.3123
  173SAPS   C3919715   5.081   3.445   2.734 -0.0395 -0.6559 -0.2771
  173SAPS   H9X19716   5.069   3.337   2.755  2.0487 -1.0012 -0.6707
  173SAPS   H9Y19717   4.985   3.474   2.685 -0.9016 -1.0165  1.1316
  173SAPS  C31019718   5.087   3.535   2.863  0.1989  0.1501 -0.4553
  173SAPS  H10X19719   5.143   3.628   2.838 -0.4357  0.2112 -1.7045
  173SAPS  H10Y19720   5.147   3.474   2.933  0.2622  1.4092  0.6431
  173SAPS  C31119721   4.944   3.575   2.922  0.1497  0.1095 -0.8843
  173SAPS  H11X19722   4.879   3.486   2.909 -0.3703  0.5397 -1.2961
  173SAPS  H11Y19723   4.907   3.654   2.853 -0.4868  0.3732 -0.2510
  173SAPS  C31219724   4.942   3.613   3.069  0.1206  0.0091  0.4224
  173SAPS  H12X19725   4.998   3.708   3.076 -0.3488  0.3479 -0.3815
  173SAPS  H12Y19726   4.978   3.528   3.132  0.5063 -1.0401 -1.1644
  173SAPS  C31319727   4.802   3.659   3.114  0.4455  0.6934  0.5662
  173SAPS  H13X19728   4.739   3.568   3.123 -0.4693  1.1093 -1.2683
  173SAPS  H13Y19729   4.751   3.706   3.027  0.5112 -0.4822 -0.1252
  173SAPS  C31419730   4.791   3.754   3.234  0.6692 -0.1902 -0.2783
  173SAPS  H14X19731   4.846   3.845   3.200 -0.4370  0.2875 -0.8586
  173SAPS  H14Y19732   4.838   3.711   3.325  1.8617  3.3107  0.9367
  173SAPS  C31519733   4.645   3.794   3.252 -0.7238 -0.2703 -0.2322
  173SAPS  H15X19734   4.596   3.803   3.152  1.1984  0.4528 -1.1626
  173SAPS  H15Y19735   4.633   3.895   3.297  0.0353 -0.7731  1.1502
  173SAPS  C31619736   4.566   3.695   3.332  0.2152 -0.7947 -0.6195
  173SAPS  H16X19737   4.558   3.599   3.277  0.5389 -1.4590  0.4616
  173SAPS  H16Y19738   4.464   3.729   3.357  1.0499 -0.5728  2.9673
  173SAPS  C31719739   4.612   3.670   3.475  0.3129  0.3568  0.2865
  173SAPS  H17X19740   4.712   3.621   3.471  1.0680  1.8941 -1.7058
  173SAPS  H17Y19741   4.553   3.585   3.515  0.5311  0.3675  0.6407
  173SAPS  C31819742   4.602   3.783   3.576 -0.0292 -0.8022 -0.2054
  173SAPS  H18X19743   4.638   3.877   3.528 -1.9160  0.5055  0.8036
  173SAPS  H18Y19744   4.661   3.762   3.667  1.3314  1.2764 -0.5509
  173SAPS  H18Z19745   4.493   3.803   3.589  0.3145  0.2826  1.2109
  174SAPS     N19746   1.783   3.541   1.766 -0.0264  0.2037  0.5010
  174SAPS   HN119747   1.744   3.446   1.752 -0.3218  0.0074  2.3819
  174SAPS   HN219748   1.841   3.568   1.684  1.6654 -3.4658  0.2566
  174SAPS   HN319749   1.835   3.540   1.856  0.9193 -1.2157 -0.0278
  174SAPS   C1219750   1.682   3.646   1.777 -0.4210 -0.4023 -0.5413
  174SAPS  H12A19751   1.732   3.723   1.834 -0.4877 -0.9246  0.2407
  174SAPS   C1319752   1.641   3.721   1.653 -0.2081  0.2435  0.2292
  174SAPS  O13A19753   1.704   3.705   1.544 -0.4144  0.2053 -0.4047
  174SAPS  O13B19754   1.539   3.798   1.661 -0.7259 -0.1626 -0.1956
  174SAPS   C1119755   1.582   3.578   1.877 -0.1376 -1.0979 -0.0101
  174SAPS  H11A19756   1.524   3.501   1.822  0.0169 -0.1431 -1.5889
  174SAPS  H11B19757   1.517   3.665   1.902  1.1691 -0.0666 -0.0625
  174SAPS     P19758   1.555   3.497   2.113 -0.1587  0.1843 -0.1193
  174SAPS   O1319759   1.590   3.583   2.229 -0.1130  0.2328  0.8824
  174SAPS   O1419760   1.414   3.501   2.062 -0.0469  0.3591 -0.1994
  174SAPS   O1219761   1.644   3.520   1.993 -0.2329 -0.5373 -0.2074
  174SAPS   O1119762   1.591   3.348   2.156 -0.1469  0.2294  0.6082
  174SAPS    C119763   1.723   3.305   2.147  0.5125 -0.3106  0.1079
  174SAPS    HA19764   1.748   3.272   2.044  2.4459  0.2979  0.3380
  174SAPS    HB19765   1.800   3.377   2.181  1.9878 -1.6593 -0.2373
  174SAPS    C219766   1.749   3.185   2.248  0.4383  0.2315  0.1352
  174SAPS    HS19767   1.707   3.088   2.212  0.1609  0.4887 -0.2357
  174SAPS   O2119768   1.688   3.221   2.372 -0.2412  0.3578 -0.2084
  174SAPS   C2119769   1.624   3.130   2.443  0.1686 -0.8465 -0.3915
  174SAPS   O2219770   1.622   3.009   2.413 -0.7665 -0.2347 -0.0383
  174SAPS   C2219771   1.551   3.187   2.568 -0.2037  0.2566  0.1905
  174SAPS   H2R19772   1.623   3.199   2.651  0.7449 -0.3284 -0.5218
  174SAPS   H2S19773   1.517   3.286   2.532  0.5967  0.4205 -0.1376
  174SAPS    C319774   1.903   3.165   2.277 -0.1466  0.1180 -0.0447
  174SAPS    HX19775   1.945   3.248   2.338 -1.3615 -0.1381  1.1951
  174SAPS    HY19776   1.960   3.153   2.183  2.5315  1.6531  1.2683
  174SAPS   O3119777   1.915   3.055   2.369  0.1887  0.3643  0.0100
  174SAPS   C3119778   2.005   2.955   2.338  0.1603 -0.5350  0.8804
  174SAPS   O3219779   2.084   2.967   2.243 -0.4054 -0.0435  0.2801
  174SAPS   C3219780   1.977   2.841   2.428 -0.7503  0.3636  0.0566
  174SAPS   H2X19781   1.876   2.796   2.419 -0.2024 -0.9737  0.3867
  174SAPS   H2Y19782   1.998   2.873   2.533  0.9396 -0.6271  0.0574
  174SAPS   C2319783   1.426   3.103   2.609  0.2888 -0.1633 -0.0489
  174SAPS   H3R19784   1.464   3.006   2.647 -2.2689 -1.6944 -1.0928
  174SAPS   H3S19785   1.355   3.083   2.526 -1.9745 -0.1847  1.7610
  174SAPS   C2419786   1.348   3.162   2.731 -0.6430 -0.1167 -0.5388
  174SAPS   H4R19787   1.406   3.142   2.824 -0.9879 -1.6460 -0.6217
  174SAPS   H4S19788   1.258   3.098   2.728 -0.9782  0.3148  0.0599
  174SAPS   C2519789   1.304   3.305   2.713  0.2234 -0.1833 -0.4175
  174SAPS   H5R19790   1.234   3.319   2.630 -0.4936  0.3592  0.2676
  174SAPS   C2619791   1.326   3.416   2.786 -0.8292  0.1573  0.2329
  174SAPS   H6R19792   1.295   3.512   2.742 -0.9219  0.0515  0.0661
  174SAPS   C2719793   1.412   3.431   2.913  0.1678  0.6229  0.4982
  174SAPS   H7R19794   1.439   3.329   2.948  1.9433  0.8205 -0.1968
  174SAPS   H7S19795   1.344   3.461   2.995 -0.5668  1.5277 -0.4126
  174SAPS   C2819796   1.549   3.497   2.894 -0.1862  0.5536 -0.5992
  174SAPS   H8R19797   1.560   3.575   2.818 -1.5425  0.1592 -1.2443
  174SAPS   C2919798   1.651   3.474   2.980 -0.2777  0.3948  0.5424
  174SAPS   H9R19799   1.750   3.504   2.943 -0.5840 -1.1364 -1.7627
  174SAPS  C21019800   1.651   3.390   3.108 -1.0437  0.1535 -0.4951
  174SAPS  H10R19801   1.702   3.297   3.075 -0.4330  0.6659 -1.0340
  174SAPS  H10S19802   1.555   3.350   3.147 -0.3332  0.4398  1.6967
  174SAPS  C21119803   1.724   3.457   3.219 -0.2557  0.3834 -0.2628
  174SAPS  H11R19804   1.830   3.472   3.193  0.1013  0.1154  1.0028
  174SAPS  C21219805   1.678   3.486   3.343  0.1567 -0.1620  0.0776
  174SAPS  H12R19806   1.743   3.547   3.408  0.1499  0.6089 -0.6277
  174SAPS  C21319807   1.534   3.452   3.384  0.1729  0.2180 -0.6877
  174SAPS  H13R19808   1.540   3.344   3.411  4.4087  0.7546  1.3864
  174SAPS  H13S19809   1.461   3.464   3.301 -2.0675 -0.6402  1.0404
  174SAPS  C21419810   1.481   3.526   3.504 -0.5850 -0.3045  0.1045
  174SAPS  H14R19811   1.419   3.615   3.486  0.1335  0.1137 -0.3675
  174SAPS  C21519812   1.498   3.488   3.627  0.1723 -0.1580 -0.2246
  174SAPS  H15R19813   1.458   3.548   3.710  0.1725  2.0573 -1.7107
  174SAPS  C21619814   1.577   3.371   3.686 -0.4056  0.5254 -0.2684
  174SAPS  H16R19815   1.658   3.334   3.620  1.6676  2.6402  0.9359
  174SAPS  H16S19816   1.506   3.294   3.724  1.9480 -0.8470  1.6675
  174SAPS  C21719817   1.655   3.420   3.808  0.2241 -0.1359  0.6527
  174SAPS  H17R19818   1.588   3.475   3.877  0.3375  1.2390 -0.2833
  174SAPS  H17S19819   1.721   3.502   3.770 -2.3651  1.4270 -0.7710
  174SAPS  C21819820   1.733   3.309   3.877  0.2390 -0.1672 -0.2018
  174SAPS  H18R19821   1.804   3.254   3.811  0.9685  0.2689  0.2080
  174SAPS  H18S19822   1.665   3.228   3.913 -2.1150  0.7095 -2.3464
  174SAPS  C21919823   1.814   3.370   4.002 -0.4372  0.6171  0.3749
  174SAPS  H19R19824   1.847   3.471   3.971  0.9558  0.0991  0.0843
  174SAPS  H19S19825   1.903   3.303   3.998  0.7007  2.1278 -2.8187
  174SAPS  C22019826   1.744   3.373   4.129  0.6854 -0.1553 -0.9801
  174SAPS  H20R19827   1.662   3.447   4.120  0.2843 -0.6351 -1.3025
  174SAPS  H20S19828   1.808   3.397   4.217 -1.6483  1.9273  0.2669
  174SAPS  H20T19829   1.695   3.276   4.154  1.3487 -0.5940 -1.3717
  174SAPS   C3319830   2.080   2.729   2.407 -0.3151  0.3126  0.1817
  174SAPS   H3X19831   2.186   2.757   2.425  0.1012 -1.6743  1.1846
  174SAPS   H3Y19832   2.067   2.705   2.299  2.1570  0.4228 -0.2065
  174SAPS   C3419833   2.050   2.609   2.495 -0.2566 -0.4476  0.0221
  174SAPS   H4X19834   2.124   2.531   2.469  0.4405  0.5788 -1.2208
  174SAPS   H4Y19835   1.950   2.568   2.469 -0.8713  1.6517 -1.1415
  174SAPS   C3519836   2.056   2.642   2.650 -0.3880 -0.2805  0.0367
  174SAPS   H5X19837   1.982   2.721   2.673 -1.1243 -0.7985 -0.4877
  174SAPS   H5Y19838   2.162   2.664   2.673  0.2526 -1.7891 -1.2219
  174SAPS   C3619839   2.027   2.523   2.742  0.3597 -0.5018 -0.1122
  174SAPS   H6X19840   2.108   2.450   2.720  0.4558 -0.2676 -0.5624
  174SAPS   H6Y19841   1.927   2.479   2.721  0.4645 -1.4600  1.2800
  174SAPS   C3719842   2.031   2.544   2.893  0.1261  0.1234  0.0615
  174SAPS   H7X19843   1.957   2.616   2.933 -0.6370  0.7123 -2.2638
  174SAPS   H7Y19844   2.128   2.591   2.918 -0.1277 -0.0265  1.3743
  174SAPS   C3819845   2.026   2.414   2.975  0.5334 -0.1435 -0.1644
  174SAPS   H8X19846   2.121   2.360   2.953  0.6347 -0.0090 -0.0542
  174SAPS   H8Y19847   1.931   2.369   2.939 -0.2691  0.6732  0.8567
  174SAPS   C3919848   2.031   2.451   3.123  0.5914 -0.5730 -0.7779
  174SAPS   H9X19849   1.965   2.537   3.148 -3.2056 -3.5023  0.3019
  174SAPS   H9Y19850   2.132   2.483   3.155 -0.8622  1.3900  2.3431
  174SAPS  C31019851   1.973   2.342   3.212 -0.2283 -0.0491 -0.1996
  174SAPS  H10X19852   2.030   2.247   3.205 -0.2141  0.0175 -1.1526
  174SAPS  H10Y19853   1.869   2.317   3.182 -0.5388 -0.6433  1.2608
  174SAPS  C31119854   1.979   2.374   3.361 -0.2311 -0.2944  0.3534
  174SAPS  H11X19855   1.908   2.459   3.369 -0.7303 -0.6293 -0.4663
  174SAPS  H11Y19856   2.082   2.413   3.378 -0.2535 -0.9427  2.1257
  174SAPS  C31219857   1.958   2.251   3.452  0.1049 -0.9072  0.3336
  174SAPS  H12X19858   2.009   2.155   3.428  1.2572 -0.4430  0.8287
  174SAPS  H12Y19859   1.851   2.224   3.447 -0.0512 -0.3854  0.7522
  174SAPS  C31319860   1.983   2.287   3.601 -0.0900 -0.1467 -0.1941
  174SAPS  H13X19861   1.937   2.387   3.618 -0.7265 -0.3041 -0.9538
  174SAPS  H13Y19862   2.093   2.295   3.619 -0.0191  0.6256 -0.9022
  174SAPS  C31419863   1.920   2.182   3.694  0.3151  0.5558  0.8093
  174SAPS  H14X19864   1.960   2.081   3.670  0.0507  0.6613 -0.1390
  174SAPS  H14Y19865   1.812   2.171   3.672  0.6864 -1.3183 -0.3402
  174SAPS  C31519866   1.953   2.206   3.841 -0.2937 -0.7077 -0.7667
  174SAPS  H15X19867   2.062   2.192   3.854  0.0718 -0.3449 -3.1021
  174SAPS  H15Y19868   1.904   2.134   3.911  0.2938 -0.1975  0.1936
  174SAPS  C31619869   1.921   2.342   3.899  0.6787  0.1370  0.4745
  174SAPS  H16X19870   1.982   2.423   3.854  1.7952 -0.5030  0.7824
  174SAPS  H16Y19871   1.957   2.343   4.004 -1.3020 -0.1490  1.1957
  174SAPS  C31719872   1.767   2.364   3.911  0.5049 -0.4789 -1.1039
  174SAPS  H17X19873   1.718   2.271   3.948  0.6143 -0.4854 -0.9761
  174SAPS  H17Y19874   1.737   2.375   3.804 -0.1788  3.0132 -0.6679
  174SAPS  C31819875   1.712   2.481   3.997  0.0807 -0.0791  0.1603
  174SAPS  H18X19876   1.726   2.575   3.939 -1.4613  0.5690  0.7720
  174SAPS  H18Y19877   1.759   2.480   4.097 -3.9674 -1.8504  2.3000
  174SAPS  H18Z19878   1.605   2.471   4.027 -0.1351  2.0122  0.2211
  175SAPS     N19879   5.321   2.320   1.846  0.4663  0.3368  0.2424
  175SAPS   HN119880   5.364   2.397   1.791  0.3946 -0.6852 -1.3014
  175SAPS   HN219881   5.389   2.259   1.896 -0.6470 -0.0853  1.2833
  175SAPS   HN319882   5.267   2.267   1.775 -1.5547 -0.5229  2.2954
  175SAPS   C1219883   5.221   2.363   1.945  0.0004  0.6658 -0.2089
  175SAPS  H12A19884   5.284   2.408   2.021  1.2201 -0.1150 -0.7287
  175SAPS   C1319885   5.112   2.467   1.908 -0.4334  0.0971  0.6006
  175SAPS  O13A19886   5.107   2.512   1.795  0.0590  0.0451  0.4939
  175SAPS  O13B19887   5.042   2.516   1.999 -0.4436 -0.7316  0.4685
  175SAPS   C1119888   5.168   2.240   2.018 -0.5283 -0.1543 -0.2426
  175SAPS  H11A19889   5.073   2.212   1.968 -0.7328 -0.5316  0.3436
  175SAPS  H11B19890   5.140   2.268   2.122  0.4645 -2.7071  0.7994
  175SAPS     P19891   5.223   1.990   2.047 -0.2906 -0.2102  0.1364
  175SAPS   O1319892   5.158   1.951   1.919 -0.6874  0.7010  0.5197
  175SAPS   O1419893   5.326   1.897   2.106  0.1995 -0.2064 -0.4568
  175SAPS   O1219894   5.270   2.137   2.032  0.2725  0.0303  0.1245
  175SAPS   O1119895   5.115   2.008   2.159  0.2525 -0.0935  0.3558
  175SAPS    C119896   5.165   2.023   2.290 -0.8531  1.2166  0.1361
  175SAPS    HA19897   5.208   1.928   2.329 -1.0572  1.7137  1.6182
  175SAPS    HB19898   5.238   2.106   2.296 -0.1155  0.5396  0.7807
  175SAPS    C219899   5.044   2.051   2.382 -0.9189 -0.6006 -0.0713
  175SAPS    HS19900   4.983   2.128   2.331 -1.1073 -0.9031 -0.3007
  175SAPS   O2119901   5.095   2.084   2.515  0.0665  0.0132 -0.4035
  175SAPS   C2119902   4.993   2.140   2.590  0.2129 -0.0010  0.3838
  175SAPS   O2219903   4.887   2.173   2.539 -0.7162 -0.3069  0.4467
  175SAPS   C2219904   5.038   2.145   2.734 -0.6092  0.1295  0.3971
  175SAPS   H2R19905   5.048   2.040   2.767  0.9275  0.0361 -0.2896
  175SAPS   H2S19906   5.139   2.192   2.727 -0.8804  0.6419 -0.1516
  175SAPS    C319907   4.949   1.934   2.391  0.6641  0.3834  0.9010
  175SAPS    HX19908   4.905   1.913   2.290  1.8991 -2.5506  0.8577
  175SAPS    HY19909   4.861   1.946   2.458 -1.0486 -1.6499 -0.7947
  175SAPS   O3119910   5.020   1.818   2.428  0.1583 -0.0062  0.0789
  175SAPS   C3119911   5.005   1.775   2.557 -0.4287  0.3496  0.6174
  175SAPS   O3219912   4.932   1.820   2.642 -0.4225  0.0739  0.8748
  175SAPS   C3219913   5.099   1.658   2.587 -0.3446  0.4942  0.1484
  175SAPS   H2X19914   5.158   1.656   2.493  0.4498  0.3505  0.6391
  175SAPS   H2Y19915   5.038   1.565   2.581 -0.2504  0.5176 -2.0122
  175SAPS   C2319916   4.951   2.236   2.819 -0.2404 -0.1201  0.1306
  175SAPS   H3R19917   4.988   2.246   2.924  0.0269  1.5039 -0.0910
  175SAPS   H3S19918   4.847   2.196   2.814 -0.3450 -0.0018  1.0448
  175SAPS   C2419919   4.954   2.381   2.771 -0.4218 -0.6562  0.2056
  175SAPS   H4R19920   4.932   2.392   2.663  0.4080  0.5735  0.1352
  175SAPS   H4S19921   5.061   2.409   2.778 -0.8668  1.3074 -0.3088
  175SAPS   C2519922   4.865   2.470   2.857 -1.0784  0.1004 -0.4246
  175SAPS   H5R19923   4.756   2.456   2.846 -1.2662  1.0322  0.1536
  175SAPS   C2619924   4.916   2.554   2.951 -0.3664  0.1295  0.0113
  175SAPS   H6R19925   4.846   2.616   3.008 -0.8796 -0.0752 -0.3887
  175SAPS   C2719926   5.059   2.555   3.006 -0.5484  0.5067  0.5294
  175SAPS   H7R19927   5.116   2.634   2.953  0.3497  0.8519  1.9633
  175SAPS   H7S19928   5.108   2.457   2.984 -0.3507  0.5454  0.7942
  175SAPS   C2819929   5.064   2.579   3.160  0.3749  0.7670  0.4856
  175SAPS   H8R19930   5.073   2.685   3.189  2.6825  0.1785  2.2348
  175SAPS   C2919931   5.075   2.484   3.260 -0.6318  0.3945  0.1238
  175SAPS   H9R19932   5.061   2.516   3.364  1.2656 -1.4679  1.0298
  175SAPS  C21019933   5.083   2.335   3.241  0.2084  0.3781 -0.3103
  175SAPS  H10R19934   5.186   2.307   3.272  0.1461  0.6916  0.1852
  175SAPS  H10S19935   5.078   2.315   3.131 -1.7087 -1.0074 -0.0190
  175SAPS  C21119936   4.975   2.251   3.303 -0.4917 -0.2858 -0.2156
  175SAPS  H11R19937   4.897   2.315   3.349  1.6399  1.8567  0.6707
  175SAPS  C21219938   4.965   2.120   3.326 -0.0431 -0.4512  0.1349
  175SAPS  H12R19939   4.869   2.078   3.359 -1.6589  0.7763 -2.6309
  175SAPS  C21319940   5.065   2.023   3.272 -0.4640 -0.3250  0.4715
  175SAPS  H13R19941   5.167   2.066   3.261 -0.0145 -1.6595 -0.9931
  175SAPS  H13S19942   5.054   2.016   3.162  2.4855 -1.9309  0.1760
  175SAPS  C21419943   5.062   1.885   3.328 -0.8042  0.7517 -0.0688
  175SAPS  H14R19944   5.067   1.802   3.256 -1.6794 -0.5153  1.2752
  175SAPS  C21519945   5.038   1.837   3.455  0.0837  0.8845 -0.4711
  175SAPS  H15R19946   5.055   1.730   3.476 -0.1843  1.0850  0.8904
  175SAPS  C21619947   5.010   1.939   3.568 -0.1910  1.0008  0.6835
  175SAPS  H16R19948   4.900   1.954   3.570 -0.4379 -0.1898 -1.1719
  175SAPS  H16S19949   5.061   2.036   3.547 -0.4780  1.2135  0.9614
  175SAPS  C21719950   5.064   1.893   3.704 -0.2823 -0.5097  0.2021
  175SAPS  H17R19951   5.172   1.920   3.714 -0.3635  0.3908 -1.1268
  175SAPS  H17S19952   5.073   1.782   3.707 -2.6643 -0.8618 -1.9385
  175SAPS  C21819953   4.993   1.965   3.824  0.2161  0.2383  0.3457
  175SAPS  H18R19954   4.897   1.911   3.840  2.5968 -4.3228  0.6962
  175SAPS  H18S19955   4.970   2.072   3.801  1.9758  1.0009  1.8333
  175SAPS  C21919956   5.069   1.959   3.955 -0.2525 -0.2943  0.1713
  175SAPS  H19R19957   5.027   2.029   4.031 -1.7941 -1.3593  0.3366
  175SAPS  H19S19958   5.179   1.964   3.948 -0.0724 -3.4031 -0.2963
  175SAPS  C22019959   5.042   1.815   4.007  0.0401  0.2007  0.3958
  175SAPS  H20R19960   5.100   1.737   3.955 -1.7333 -1.0014  0.1383
  175SAPS  H20S19961   4.933   1.795   3.995  0.3337 -2.4282  1.4276
  175SAPS  H20T19962   5.080   1.811   4.112  0.7025 -1.1224  0.1157
  175SAPS   C3319963   5.195   1.677   2.702 -0.4610 -0.3048  0.0320
  175SAPS   H3X19964   5.133   1.688   2.794  0.1226  1.3031  0.2601
  175SAPS   H3Y19965   5.261   1.766   2.703  2.6601 -2.4411  2.2195
  175SAPS   C3419966   5.293   1.558   2.726  0.1534 -0.2176 -0.0414
  175SAPS   H4X19967   5.236   1.463   2.720  0.8235 -0.7193  1.2815
  175SAPS   H4Y19968   5.339   1.569   2.826 -1.2228  2.3968  0.3861
  175SAPS   C3519969   5.405   1.524   2.621  0.0492 -0.1347 -0.0264
  175SAPS   H5X19970   5.488   1.597   2.634  1.8223 -2.3705  1.9369
  175SAPS   H5Y19971   5.359   1.512   2.520  1.6432 -0.7200 -0.7128
  175SAPS   C3619972   5.473   1.378   2.634  0.4276  0.0055  0.2702
  175SAPS   H6X19973   5.527   1.365   2.538  1.4877 -1.5430  1.0210
  175SAPS   H6Y19974   5.387   1.308   2.628 -0.5544  1.3141 -1.9280
  175SAPS   C3719975   5.552   1.349   2.761  0.1432 -0.1742 -0.4578
  175SAPS   H7X19976   5.543   1.238   2.769 -1.8357  0.0743  1.4962
  175SAPS   H7Y19977   5.525   1.400   2.855  1.5341 -4.2047  2.4285
  175SAPS   C3819978   5.698   1.380   2.738 -0.8036  0.2403  0.4269
  175SAPS   H8X19979   5.706   1.488   2.712 -0.0179  0.0395 -0.1752
  175SAPS   H8Y19980   5.733   1.323   2.650 -3.6480  0.3392 -0.8629
  175SAPS   C3919981   5.791   1.351   2.853  0.9026 -0.3068  0.0677
  175SAPS   H9X19982   5.888   1.403   2.837 -0.2053  1.8872  0.0137
  175SAPS   H9Y19983   5.805   1.244   2.879 -0.1107 -0.8811 -1.5733
  175SAPS  C31019984   5.743   1.408   2.988  0.0489 -0.7228  0.1062
  175SAPS  H10X19985   5.653   1.351   3.020  0.1860  0.5381  3.1466
  175SAPS  H10Y19986   5.729   1.518   2.983  1.2273 -0.5045  0.9781
  175SAPS  C31119987   5.846   1.379   3.105 -0.0129 -0.0545  0.2502
  175SAPS  H11X19988   5.851   1.471   3.166 -1.3442  1.0476 -1.2011
  175SAPS  H11Y19989   5.948   1.369   3.063 -0.0254  0.9324 -0.0374
  175SAPS  C31219990   5.838   1.241   3.179 -0.5195  0.3672  0.8904
  175SAPS  H12X19991   5.825   1.165   3.099  0.9253 -0.4933  1.4419
  175SAPS  H12Y19992   5.742   1.242   3.235 -1.2029 -0.2661 -0.2149
  175SAPS  C31319993   5.950   1.206   3.278  0.4516 -0.3141 -0.0197
  175SAPS  H13X19994   5.938   1.263   3.372  1.1374 -0.2058  0.0108
  175SAPS  H13Y19995   6.040   1.246   3.226 -0.0112 -2.3543 -2.6522
  175SAPS  C31419996   5.971   1.058   3.311 -0.4620  0.8834 -0.0313
  175SAPS  H14X19997   6.062   1.042   3.372 -2.4486  1.1460  3.2627
  175SAPS  H14Y19998   5.986   1.006   3.214 -3.0314 -1.3706  0.6173
  175SAPS  C31519999   5.857   0.979   3.383 -0.3611  0.0035  0.2378
  175SAPS  H15X20000   5.771   1.024   3.329 -1.4097 -0.6459  1.2897
  175SAPS  H15Y20001   5.845   1.017   3.487 -1.2367 -1.6157  0.7655
  175SAPS  C31620002   5.855   0.822   3.384  1.1008  0.3095  0.5174
  175SAPS  H16X20003   5.949   0.797   3.438  0.5012  0.5373  1.7067
  175SAPS  H16Y20004   5.858   0.767   3.288  0.6511 -0.6061  1.0141
  175SAPS  C31720005   5.745   0.764   3.469  0.2083  0.8932  0.2237
  175SAPS  H17X20006   5.749   0.806   3.571 -2.0184 -0.7691  1.0835
  175SAPS  H17Y20007   5.768   0.655   3.468  0.2969  0.9090 -1.2924
  175SAPS  C31820008   5.598   0.798   3.409 -0.3025 -0.4253  0.2481
  175SAPS  H18X20009   5.569   0.903   3.429  1.4925  0.5351 -1.8437
  175SAPS  H18Y20010   5.519   0.725   3.437  1.1940 -1.2189  2.7537
  175SAPS  H18Z20011   5.612   0.785   3.300  0.1042 -0.2807  0.2823
  176SAPS     N20012   3.228   0.893   1.726 -0.5436 -0.2726  0.0832
  176SAPS   HN120013   3.198   0.935   1.636 -3.0024 -2.6133 -0.3196
  176SAPS   HN220014   3.300   0.820   1.709 -0.2573 -0.3610  1.5417
  176SAPS   HN320015   3.149   0.851   1.779 -0.9851  1.1077  0.5611
  176SAPS   C1220016   3.297   0.994   1.811 -1.0432 -0.0572 -0.0737
  176SAPS  H12A20017   3.401   0.997   1.783 -1.0563  0.0964 -0.1085
  176SAPS   C1320018   3.241   1.135   1.815  0.0431  0.1872  0.3509
  176SAPS  O13A20019   3.147   1.168   1.734  0.0505  0.4162 -0.0392
  176SAPS  O13B20020   3.296   1.224   1.887  0.4058  0.3652 -0.0475
  176SAPS   C1120021   3.301   0.940   1.953 -0.3658 -0.2771  0.2076
  176SAPS  H11A20022   3.374   1.004   2.007 -0.3686 -0.0282 -0.0781
  176SAPS  H11B20023   3.344   0.838   1.947  1.3458  0.4021  0.4485
  176SAPS     P20024   3.083   0.811   2.027  0.2127  0.0871  0.2440
  176SAPS   O1320025   2.971   0.833   2.116 -0.4305  0.1130 -0.0517
  176SAPS   O1420026   3.046   0.781   1.888 -0.2007  0.0967  0.2122
  176SAPS   O1220027   3.169   0.950   2.019  0.5261 -0.2330  0.0323
  176SAPS   O1120028   3.178   0.692   2.077  0.0846  0.5180 -0.6180
  176SAPS    C120029   3.200   0.672   2.218  0.5722  0.5169  0.4770
  176SAPS    HA20030   3.300   0.623   2.224  0.5190  0.0898 -1.3158
  176SAPS    HB20031   3.207   0.769   2.271 -0.7768  1.0923 -0.3525
  176SAPS    C220032   3.088   0.589   2.286 -1.3022  0.2906 -0.4249
  176SAPS    HS20033   2.992   0.632   2.249 -0.8638  2.4134  0.7402
  176SAPS   O2120034   3.095   0.606   2.433  0.3061  0.2289 -0.0285
  176SAPS   C2120035   2.988   0.574   2.507  0.2284 -0.6756  0.5181
  176SAPS   O2220036   2.891   0.508   2.468  0.2432 -0.2294 -0.0586
  176SAPS   C2220037   3.016   0.610   2.653  0.2211 -0.2876  0.1987
  176SAPS   H2R20038   3.111   0.561   2.681  0.8371  1.7530  2.0370
  176SAPS   H2S20039   3.018   0.721   2.661  1.3195 -0.3810  1.6885
  176SAPS    C320040   3.097   0.437   2.244 -0.1054 -0.0508  0.5429
  176SAPS    HX20041   3.099   0.445   2.133 -1.2433  0.7755  0.5664
  176SAPS    HY20042   3.001   0.394   2.280  0.1576 -1.6645 -0.6008
  176SAPS   O3120043   3.208   0.379   2.304 -0.1813  0.3587 -0.6564
  176SAPS   C3120044   3.243   0.262   2.259  0.0381 -0.1514  0.1546
  176SAPS   O3220045   3.178   0.194   2.175 -0.1254 -0.2716  0.3033
  176SAPS   C3220046   3.376   0.226   2.305 -1.1321 -0.2512  0.6065
  176SAPS   H2X20047   3.447   0.306   2.335  0.1969 -0.9585 -0.5606
  176SAPS   H2Y20048   3.441   0.172   2.233 -0.0970 -2.1139  2.8052
  176SAPS   C2320049   2.903   0.553   2.744  0.0507  0.6283  0.5802
  176SAPS   H3R20050   2.907   0.443   2.731  1.0632  0.5678  1.3463
  176SAPS   H3S20051   2.799   0.582   2.716  0.0808 -0.4451 -0.7386
  176SAPS   C2420052   2.913   0.599   2.890 -0.0922  0.0660 -0.7470
  176SAPS   H4R20053   3.015   0.570   2.924 -0.5116 -0.5124  0.0489
  176SAPS   H4S20054   2.847   0.525   2.940 -0.1421 -0.0823 -1.0296
  176SAPS   C2520055   2.885   0.748   2.912  0.1730  0.4011  0.2132
  176SAPS   H5R20056   2.803   0.789   2.851 -1.5665 -1.6274  1.0559
  176SAPS   C2620057   2.957   0.828   2.995 -0.0982 -0.0432 -0.3746
  176SAPS   H6R20058   2.929   0.933   3.013  0.6393  0.1072 -0.0953
  176SAPS   C2720059   3.063   0.778   3.088 -0.0283  0.1539 -0.5635
  176SAPS   H7R20060   3.125   0.858   3.133  0.5975 -0.6719  0.0656
  176SAPS   H7S20061   3.141   0.724   3.029 -1.6858 -1.2925 -1.5479
  176SAPS   C2820062   3.012   0.686   3.197 -0.0576  1.0540  0.1408
  176SAPS   H8R20063   2.963   0.592   3.167 -0.6871  1.6357 -0.7020
  176SAPS   C2920064   3.042   0.699   3.331 -0.6934 -0.6187 -0.6697
  176SAPS   H9R20065   3.004   0.628   3.407 -0.0823 -0.1092  0.1292
  176SAPS  C21020066   3.103   0.827   3.401 -0.3387  0.5053  0.6394
  176SAPS  H10R20067   3.058   0.826   3.502 -0.9672 -0.1185  0.3606
  176SAPS  H10S20068   3.067   0.915   3.344 -0.3719 -0.5160 -0.9826
  176SAPS  C21120069   3.251   0.840   3.408 -0.2202  0.4983 -0.0367
  176SAPS  H11R20070   3.312   0.793   3.330 -0.8254 -0.1980 -0.1045
  176SAPS  C21220071   3.329   0.890   3.504  0.3495  0.3128 -0.0251
  176SAPS  H12R20072   3.439   0.899   3.494  0.4285 -0.1768  0.3855
  176SAPS  C21320073   3.270   0.941   3.637 -0.1635 -0.7288  0.1676
  176SAPS  H13R20074   3.172   0.992   3.627  0.3867  1.0659  2.8726
  176SAPS  H13S20075   3.337   1.009   3.694  2.2721 -2.3010 -0.6374
  176SAPS  C21420076   3.238   0.825   3.722 -0.1255 -0.1414 -0.3385
  176SAPS  H14R20077   3.153   0.763   3.689  0.1649 -2.2151  2.4758
  176SAPS  C21520078   3.301   0.793   3.840  0.1440 -0.0176  0.0032
  176SAPS  H15R20079   3.283   0.696   3.889  1.2129 -0.9078 -1.3031
  176SAPS  C21620080   3.412   0.864   3.915  0.7828  0.1609 -0.3329
  176SAPS  H16R20081   3.389   0.971   3.895 -2.2614 -0.2098  0.7266
  176SAPS  H16S20082   3.514   0.828   3.891  0.8318 -1.7778  2.3905
  176SAPS  C21720083   3.380   0.862   4.070 -0.4963  0.4809  0.2570
  176SAPS  H17R20084   3.273   0.868   4.098 -0.5833  1.8671 -0.3048
  176SAPS  H17S20085   3.423   0.954   4.115 -2.6962  0.8549  1.7208
  176SAPS  C21820086   3.440   0.737   4.138  0.5737 -0.3002 -0.0545
  176SAPS  H18R20087   3.547   0.723   4.108  0.6647  1.8034 -0.8483
  176SAPS  H18S20088   3.389   0.642   4.109 -0.8574  0.6728 -0.8000
  176SAPS  C21920089   3.429   0.751   4.286 -0.1797 -0.5283 -0.1232
  176SAPS  H19R20090   3.323   0.728   4.311 -0.2064 -0.3099 -0.0331
  176SAPS  H19S20091   3.452   0.856   4.315  0.4555 -0.4775 -0.8127
  176SAPS  C22020092   3.513   0.652   4.366  0.3277  1.0702 -0.4824
  176SAPS  H20R20093   3.480   0.646   4.472  0.3147 -0.7094 -0.5622
  176SAPS  H20S20094   3.622   0.673   4.367  0.0034  2.9199  1.1482
  176SAPS  H20T20095   3.498   0.552   4.319  1.7050  0.5965  0.0271
  176SAPS   C3320096   3.365   0.130   2.430  0.4242 -0.3946  0.0364
  176SAPS   H3X20097   3.468   0.090   2.440  1.1068  1.1939 -0.3232
  176SAPS   H3Y20098   3.297   0.044   2.414 -0.4714  0.6581 -2.4172
  176SAPS   C3420099   3.334   0.202   2.566  0.1118 -0.4155  0.1428
  176SAPS   H4X20100   3.232   0.175   2.599 -0.2313  1.7086  0.9437
  176SAPS   H4Y20101   3.334   0.313   2.559 -1.5057 -0.2597  1.8588
  176SAPS   C3520102   3.431   0.164   2.679 -0.0336 -0.3575 -0.0084
  176SAPS   H5X20103   3.533   0.167   2.635  0.2276  2.2570  0.5957
  176SAPS   H5Y20104   3.420   0.058   2.711 -0.5372 -0.3962 -0.2989
  176SAPS   C3620105   3.438   0.248   2.811  0.4505 -0.1684 -0.0211
  176SAPS   H6X20106   3.477   0.349   2.784  2.5070 -0.4336  1.6496
  176SAPS   H6Y20107   3.517   0.211   2.880  0.7860  1.4942  0.5278
  176SAPS   C3720108   3.311   0.259   2.896  0.4351 -0.0630  0.4089
  176SAPS   H7X20109   3.276   0.156   2.915 -1.4012  0.7537  1.7331
  176SAPS   H7Y20110   3.233   0.316   2.841 -0.9535 -0.1388  2.2186
  176SAPS   C3820111   3.341   0.321   3.033 -0.0195  0.3292  0.1070
  176SAPS   H8X20112   3.424   0.262   3.079  0.5916 -1.3290 -2.8522
  176SAPS   H8Y20113   3.244   0.306   3.084 -0.1437  0.2906 -0.1414
  176SAPS   C3920114   3.396   0.466   3.015 -0.3460 -0.2587  0.1130
  176SAPS   H9X20115   3.327   0.519   2.945 -0.0962  0.3024  0.2857
  176SAPS   H9Y20116   3.496   0.473   2.968  0.2070 -0.4661  1.2372
  176SAPS  C31020117   3.396   0.547   3.150  0.1443  0.2374  0.5822
  176SAPS  H10X20118   3.299   0.534   3.203 -1.3367  1.9445 -1.5295
  176SAPS  H10Y20119   3.416   0.655   3.138  1.1739  0.1682  1.5114
  176SAPS  C31120120   3.505   0.502   3.242  0.4751  0.8226  0.3305
  176SAPS  H11X20121   3.601   0.502   3.187 -0.7188  0.1684 -1.8756
  176SAPS  H11Y20122   3.489   0.398   3.276  0.0395  1.2250  1.4119
  176SAPS  C31220123   3.510   0.593   3.365  0.5450 -0.3751 -0.4301
  176SAPS  H12X20124   3.401   0.598   3.387  0.3455 -0.2988 -1.3799
  176SAPS  H12Y20125   3.555   0.691   3.339 -0.8175  0.4046  0.0530
  176SAPS  C31320126   3.574   0.525   3.489  0.0063  0.2944  0.0531
  176SAPS  H13X20127   3.669   0.483   3.448 -0.8144  0.7105 -2.4821
  176SAPS  H13Y20128   3.503   0.443   3.512 -0.5524  1.2771  1.9666
  176SAPS  C31420129   3.599   0.630   3.599  0.6063 -0.7069  0.0893
  176SAPS  H14X20130   3.504   0.634   3.656 -0.7776 -2.4831 -1.9783
  176SAPS  H14Y20131   3.627   0.733   3.568  2.9666 -0.5637  2.2871
  176SAPS  C31520132   3.703   0.591   3.707  0.4115  0.1911 -1.2076
  176SAPS  H15X20133   3.665   0.495   3.750  2.9787  0.6980  2.7460
  176SAPS  H15Y20134   3.706   0.657   3.796  1.3049 -2.3738  0.8207
  176SAPS  C31620135   3.851   0.558   3.663  0.0767 -0.3761  0.3252
  176SAPS  H16X20136   3.882   0.635   3.589 -2.2728  0.5837  0.2366
  176SAPS  H16Y20137   3.847   0.456   3.620 -1.3790 -0.3852  0.4192
  176SAPS  C31720138   3.948   0.578   3.777 -0.0447 -0.0369 -0.2910
  176SAPS  H17X20139   3.922   0.513   3.863  0.5817 -0.1402 -0.1797
  176SAPS  H17Y20140   3.937   0.684   3.807 -1.1502 -0.1979 -0.0623
  176SAPS  C31820141   4.099   0.560   3.736 -0.3725 -0.5948 -0.3773
  176SAPS  H18X20142   4.110   0.454   3.704  0.9898 -1.1484  1.7689
  176SAPS  H18Y20143   4.164   0.561   3.826 -1.3012 -2.5017  0.3793
  176SAPS  H18Z20144   4.127   0.640   3.664 -2.3002 -0.4552 -1.0342
  177SAPS     N20145   0.281   2.752   2.117  0.6407 -0.2731 -0.2790
  177SAPS   HN120146   0.373   2.747   2.164  1.1780  0.3024 -1.2223
  177SAPS   HN220147   0.239   2.838   2.157  0.5845 -0.6084  0.3909
  177SAPS   HN320148   0.222   2.670   2.139 -1.3524  1.1773  0.0451
  177SAPS   C1220149   0.299   2.764   1.968 -0.4142 -0.2905  0.0691
  177SAPS  H12A20150   0.211   2.786   1.909 -0.2578  1.7850  0.5164
  177SAPS   C1320151   0.387   2.883   1.922 -0.0258 -0.1767 -0.3152
  177SAPS  O13A20152   0.428   2.962   2.012 -0.1393  0.2048 -0.0408
  177SAPS  O13B20153   0.403   2.912   1.804 -0.0481  0.5345 -0.3661
  177SAPS   C1120154   0.361   2.636   1.908  0.0078 -0.3393  0.1511
  177SAPS  H11A20155   0.468   2.629   1.937  0.4110  0.0412 -1.1721
  177SAPS  H11B20156   0.377   2.648   1.799 -1.5749 -0.8220 -0.1708
  177SAPS     P20157   0.169   2.460   1.865  0.0261 -0.2921  0.1668
  177SAPS   O1320158   0.053   2.553   1.886  0.1065  0.2892 -0.3487
  177SAPS   O1420159   0.191   2.423   1.726  0.4117 -0.4619 -0.3122
  177SAPS   O1220160   0.291   2.519   1.943 -0.2045  0.3387 -0.0182
  177SAPS   O1120161   0.156   2.333   1.950  0.5487  0.3392  0.0947
  177SAPS    C120162   0.128   2.330   2.085 -0.2159  0.0582  0.1081
  177SAPS    HA20163   0.200   2.271   2.145  1.2493 -0.5396 -2.1227
  177SAPS    HB20164   0.123   2.432   2.129 -1.6317  0.5840 -1.1888
  177SAPS    C220165  -0.006   2.263   2.123 -0.1163 -0.5402 -0.0709
  177SAPS    HS20166  -0.074   2.309   2.047  0.7494  1.0468  0.0693
  177SAPS   O2120167  -0.037   2.290   2.261 -0.6973  0.0641 -0.2634
  177SAPS   C2120168  -0.159   2.327   2.291  0.3974 -0.2933  0.3127
  177SAPS   O2220169  -0.250   2.343   2.209  0.2739  0.4226 -0.1130
  177SAPS   C2220170  -0.174   2.350   2.434  0.0513 -0.2465 -1.0158
  177SAPS   H2R20171  -0.080   2.323   2.487  1.0801  2.0027 -1.5874
  177SAPS   H2S20172  -0.187   2.459   2.446  1.8341  0.0193 -1.1911
  177SAPS    C320173   0.006   2.106   2.113 -0.1428 -0.5846  0.3389
  177SAPS    HX20174   0.033   2.092   2.006  0.2707  0.7735  0.2398
  177SAPS    HY20175  -0.093   2.056   2.121  0.2014 -1.4852 -0.7959
  177SAPS   O3120176   0.115   2.051   2.190 -0.0698 -0.4480 -0.2494
  177SAPS   C3120177   0.093   1.977   2.298 -1.0052 -0.2023 -0.1136
  177SAPS   O3220178  -0.014   1.923   2.330  0.6640  0.0857  0.1453
  177SAPS   C3220179   0.228   1.962   2.378  0.1560 -0.5309  0.6802
  177SAPS   H2X20180   0.302   2.042   2.358 -1.2123  0.5922 -0.0056
  177SAPS   H2Y20181   0.283   1.874   2.338 -0.1893 -0.2086 -0.5317
  177SAPS   C2320182  -0.301   2.278   2.491  0.7378  0.0639  0.7505
  177SAPS   H3R20183  -0.386   2.323   2.435 -0.2698 -0.1466  2.0665
  177SAPS   H3S20184  -0.303   2.308   2.598  0.8158  1.0149  0.4955
  177SAPS   C2420185  -0.284   2.133   2.502 -0.0324  0.6189 -0.1822
  177SAPS   H4R20186  -0.187   2.121   2.556  0.0849 -1.6101 -0.7831
  177SAPS   H4S20187  -0.269   2.099   2.397 -1.3727 -0.1233 -0.1488
  177SAPS   C2520188  -0.392   2.043   2.557  0.2335  0.9972  0.0173
  177SAPS   H5R20189  -0.477   2.025   2.490 -0.6605 -0.8546  1.5522
  177SAPS   C2620190  -0.398   1.979   2.677 -0.4075  0.0195 -0.4153
  177SAPS   H6R20191  -0.478   1.909   2.707  0.2337 -0.5224  0.0618
  177SAPS   C2720192  -0.294   2.003   2.789  0.3617  0.3880  0.4441
  177SAPS   H7R20193  -0.358   2.018   2.879 -0.8182 -0.4978 -0.2040
  177SAPS   H7S20194  -0.243   2.098   2.763 -1.1725  0.3441 -3.3877
  177SAPS   C2820195  -0.190   1.897   2.809  0.2917 -0.0027 -0.4517
  177SAPS   H8R20196  -0.148   1.849   2.720 -0.0897  0.8849 -1.1179
  177SAPS   C2920197  -0.105   1.901   2.920  0.4849 -0.2311  0.4508
  177SAPS   H9R20198  -0.017   1.837   2.936 -0.2503 -2.2174 -2.4870
  177SAPS  C21020199  -0.112   1.995   3.036  0.2921 -0.1554 -0.4399
  177SAPS  H10R20200  -0.195   2.068   3.028 -0.0702 -0.2301  1.9147
  177SAPS  H10S20201  -0.011   2.042   3.041  0.5624 -0.8210  1.1614
  177SAPS  C21120202  -0.110   1.913   3.167 -0.0884  0.3285  0.3468
  177SAPS  H11R20203  -0.017   1.861   3.192 -0.2097 -0.4989 -0.8642
  177SAPS  C21220204  -0.213   1.891   3.253 -0.4279  0.7820 -0.2156
  177SAPS  H12R20205  -0.179   1.840   3.344  0.5250  1.4406 -0.1934
  177SAPS  C21320206  -0.353   1.945   3.243  0.1896 -0.4957  0.3011
  177SAPS  H13R20207  -0.363   2.011   3.154  1.8766 -0.5793  0.0106
  177SAPS  H13S20208  -0.375   2.011   3.330 -0.3790 -0.4493  0.1289
  177SAPS  C21420209  -0.455   1.835   3.235  0.1858  0.6413  0.7460
  177SAPS  H14R20210  -0.427   1.758   3.162  0.3676  0.8427  0.5993
  177SAPS  C21520211  -0.576   1.824   3.300 -0.2491 -0.6053 -0.7930
  177SAPS  H15R20212  -0.631   1.729   3.291 -0.2443 -0.5855 -1.0499
  177SAPS  C21620213  -0.641   1.914   3.404 -0.4569  0.4864 -0.2949
  177SAPS  H16R20214  -0.743   1.929   3.364  0.3407  0.2818 -2.5461
  177SAPS  H16S20215  -0.585   2.010   3.403 -1.0240  0.8648 -2.6101
  177SAPS  C21720216  -0.638   1.855   3.547  1.2896  0.2026 -0.3813
  177SAPS  H17R20217  -0.532   1.835   3.573  1.7239  1.0222 -1.4255
  177SAPS  H17S20218  -0.694   1.761   3.567  2.5303 -0.0191  2.5233
  177SAPS  C21820219  -0.682   1.964   3.651 -0.7599 -0.2271  0.5192
  177SAPS  H18R20220  -0.784   1.999   3.624 -0.3722 -0.1030 -0.8825
  177SAPS  H18S20221  -0.618   2.054   3.638 -1.3090  0.0430 -0.4662
  177SAPS  C21920222  -0.682   1.928   3.803  0.5561  0.7792  0.2490
  177SAPS  H19R20223  -0.578   1.898   3.831 -0.6932 -3.3876  1.1466
  177SAPS  H19S20224  -0.743   1.839   3.828 -1.6509  2.5311  1.4251
  177SAPS  C22020225  -0.733   2.035   3.899  0.0955  0.1527 -0.5585
  177SAPS  H20R20226  -0.776   2.125   3.849 -2.6256 -0.1973  0.9544
  177SAPS  H20S20227  -0.663   2.066   3.980 -0.2596 -2.8591  1.0492
  177SAPS  H20T20228  -0.822   2.001   3.957  1.3327  0.9175  1.9580
  177SAPS   C3320229   0.199   1.961   2.530 -0.2893  0.3149 -1.0536
  177SAPS   H3X20230   0.297   1.944   2.580 -0.0885 -2.8772 -2.3496
  177SAPS   H3Y20231   0.131   1.876   2.551  2.1545 -1.2513  1.1585
  177SAPS   C3420232   0.138   2.090   2.590  0.1894  0.7662  0.2729
  177SAPS   H4X20233   0.119   2.081   2.699  0.9497 -0.7782  0.3066
  177SAPS   H4Y20234   0.034   2.111   2.557  0.5002  1.4911 -0.2589
  177SAPS   C3520235   0.228   2.211   2.560 -0.0207  0.0186 -0.0633
  177SAPS   H5X20236   0.224   2.238   2.452 -1.3563  0.4576  0.0783
  177SAPS   H5Y20237   0.333   2.181   2.578 -0.6359 -1.3331  1.4745
  177SAPS   C3620238   0.201   2.343   2.633  0.1933 -0.1839 -1.5774
  177SAPS   H6X20239   0.110   2.394   2.595 -1.0842 -1.4342 -0.3272
  177SAPS   H6Y20240   0.283   2.413   2.603 -0.8375  1.9788  0.3466
  177SAPS   C3720241   0.211   2.341   2.788  0.6790  0.2922  0.4705
  177SAPS   H7X20242   0.299   2.277   2.811 -0.3130 -1.7310 -1.0346
  177SAPS   H7Y20243   0.116   2.292   2.819 -1.9654  2.9759 -2.6352
  177SAPS   C3820244   0.240   2.471   2.860 -0.3805  0.3778 -0.7040
  177SAPS   H8X20245   0.201   2.559   2.804 -1.3574  0.9215  0.7663
  177SAPS   H8Y20246   0.350   2.488   2.863 -0.5987  2.0351  2.2986
  177SAPS   C3920247   0.177   2.478   3.003  0.5400 -0.1813  0.1460
  177SAPS   H9X20248   0.069   2.481   2.981  0.6874  0.7550 -0.4957
  177SAPS   H9Y20249   0.211   2.577   3.041  2.7567 -0.3964 -1.0684
  177SAPS  C31020250   0.218   2.371   3.106 -0.4471  0.7387  0.0696
  177SAPS  H10X20251   0.327   2.368   3.126 -0.5633  0.6996  0.7292
  177SAPS  H10Y20252   0.188   2.273   3.062 -0.9952  0.8554  0.1736
  177SAPS  C31120253   0.153   2.364   3.245 -0.3163  0.2765  0.4478
  177SAPS  H11X20254   0.173   2.465   3.287 -0.8246  1.0131 -1.0121
  177SAPS  H11Y20255   0.213   2.296   3.309  2.3646  1.0573 -1.0999
  177SAPS  C31220256   0.007   2.330   3.248  0.6758  0.5150  0.0082
  177SAPS  H12X20257  -0.015   2.242   3.183  0.0509 -1.2058  2.4196
  177SAPS  H12Y20258  -0.051   2.416   3.207  1.1952  1.3579  1.0138
  177SAPS  C31320259  -0.038   2.317   3.394  0.4040 -0.6405  0.2059
  177SAPS  H13X20260  -0.009   2.406   3.453  0.0657 -0.0368 -0.5190
  177SAPS  H13Y20261   0.015   2.232   3.443 -1.0930 -0.6870  1.8410
  177SAPS  C31420262  -0.191   2.322   3.409  0.8390 -0.2822 -0.1984
  177SAPS  H14X20263  -0.247   2.255   3.340  0.7143  0.1062 -0.4720
  177SAPS  H14Y20264  -0.234   2.424   3.399  1.0287 -0.2823 -1.0752
  177SAPS  C31520265  -0.229   2.276   3.553 -0.1881 -0.5375 -0.6602
  177SAPS  H15X20266  -0.174   2.347   3.619 -1.1433 -1.2108  0.9182
  177SAPS  H15Y20267  -0.188   2.173   3.564  0.0387 -0.4161 -0.3524
  177SAPS  C31620268  -0.374   2.268   3.584  0.6623 -0.6637 -0.1217
  177SAPS  H16X20269  -0.419   2.190   3.521  0.8081 -0.5029 -0.4271
  177SAPS  H16Y20270  -0.434   2.361   3.576 -1.3878 -1.9028  0.3371
  177SAPS  C31720271  -0.402   2.221   3.726  0.2581 -0.0022 -0.6181
  177SAPS  H17X20272  -0.371   2.114   3.733 -0.3081 -0.1042  4.6066
  177SAPS  H17Y20273  -0.509   2.230   3.754  0.7132  1.1471  0.9033
  177SAPS  C31820274  -0.329   2.291   3.838 -0.1084  0.2254  0.2835
  177SAPS  H18X20275  -0.342   2.400   3.821  1.7226  0.1437 -1.9860
  177SAPS  H18Y20276  -0.220   2.273   3.835  0.0588  1.1735  0.5218
  177SAPS  H18Z20277  -0.373   2.254   3.934 -0.3015 -1.7651 -0.5266
  178SAPS     N20278   4.236   6.792   1.543 -0.0974 -0.4111  0.5834
  178SAPS   HN120279   4.187   6.745   1.464 -0.5555  1.2809 -0.1741
  178SAPS   HN220280   4.332   6.753   1.533  0.2172  0.1464  1.3830
  178SAPS   HN320281   4.203   6.751   1.632 -2.0782  1.6495  0.8632
  178SAPS   C1220282   4.224   6.943   1.549  0.0995  0.1326 -0.0242
  178SAPS  H12A20283   4.269   6.983   1.460  0.3811 -2.0656 -0.9407
  178SAPS   C1320284   4.079   6.991   1.519 -0.3736  0.1432 -0.4374
  178SAPS  O13A20285   3.988   6.903   1.544  0.0033  0.0526  0.4297
  178SAPS  O13B20286   4.058   7.107   1.469 -0.0388  0.2433 -0.4897
  178SAPS   C1120287   4.277   6.995   1.687  0.2201 -0.6734  0.0016
  178SAPS  H11A20288   4.203   6.977   1.768  0.5265  0.8658  0.6667
  178SAPS  H11B20289   4.278   7.106   1.680 -3.0730 -0.6388 -2.1695
  178SAPS     P20290   4.537   7.033   1.767 -0.2484  0.5216 -0.0537
  178SAPS   O1320291   4.647   6.936   1.779  0.3969 -0.1259  0.1792
  178SAPS   O1420292   4.555   7.142   1.673  0.3017 -0.1432  0.5897
  178SAPS   O1220293   4.407   6.944   1.726  0.7223  0.2677  0.4529
  178SAPS   O1120294   4.487   7.088   1.903  0.4672 -0.3894  0.2293
  178SAPS    C120295   4.559   7.087   2.026 -0.2327  1.1355  0.2256
  178SAPS    HA20296   4.498   7.131   2.108 -3.6672 -1.3522 -0.7619
  178SAPS    HB20297   4.585   6.983   2.056 -1.3066  0.9458  0.5447
  178SAPS    C220298   4.693   7.171   2.018  0.0009 -0.1011 -0.1443
  178SAPS    HS20299   4.760   7.132   1.938  0.4745 -1.0119  0.6690
  178SAPS   O2120300   4.751   7.159   2.152 -0.3970 -0.7089  0.7414
  178SAPS   C2120301   4.883   7.196   2.149  0.0278 -0.4603  0.0877
  178SAPS   O2220302   4.948   7.198   2.047 -0.1704  0.7005 -0.5791
  178SAPS   C2220303   4.937   7.225   2.292 -0.0398 -1.1265 -0.1248
  178SAPS   H2R20304   4.878   7.310   2.333  0.9039 -1.1378  1.3080
  178SAPS   H2S20305   4.910   7.133   2.347 -0.7699 -0.8345  0.0094
  178SAPS    C320306   4.654   7.316   1.981  0.8357 -0.1324  0.3921
  178SAPS    HX20307   4.611   7.320   1.878 -0.6425 -0.2056  0.9785
  178SAPS    HY20308   4.740   7.387   1.978  1.3791 -0.8246 -0.9579
  178SAPS   O3120309   4.545   7.363   2.063 -0.9792 -0.1370 -0.0195
  178SAPS   C3120310   4.579   7.416   2.174  0.4796  0.2856  0.4175
  178SAPS   O3220311   4.683   7.467   2.206  0.3683 -0.1870  0.2830
  178SAPS   C3220312   4.463   7.384   2.269 -0.0896 -0.7075  0.2866
  178SAPS   H2X20313   4.408   7.297   2.228 -0.0766 -0.0171 -1.3040
  178SAPS   H2Y20314   4.390   7.467   2.259  0.8344  0.0472 -0.4890
  178SAPS   C2320315   5.085   7.268   2.301  0.3354  0.2469  0.0093
  178SAPS   H3R20316   5.107   7.326   2.210 -0.2610 -0.9735 -0.9368
  178SAPS   H3S20317   5.151   7.180   2.282  1.8059  1.1875  0.5553
  178SAPS   C2420318   5.136   7.330   2.434  0.6544 -0.1928 -0.0727
  178SAPS   H4R20319   5.090   7.429   2.453  0.8395 -0.4390  1.9329
  178SAPS   H4S20320   5.244   7.353   2.423  0.7218 -0.1007  0.6966
  178SAPS   C2520321   5.143   7.225   2.546 -0.5087  0.0307  0.2027
  178SAPS   H5R20322   5.210   7.137   2.541 -0.8415 -0.3091  1.4819
  178SAPS   C2620323   5.048   7.228   2.643 -0.5658  0.0200  0.1536
  178SAPS   H6R20324   5.055   7.164   2.732 -3.4074  1.6860  1.7163
  178SAPS   C2720325   4.943   7.338   2.667  0.6303 -0.6444  0.0018
  178SAPS   H7R20326   4.886   7.292   2.750  0.5668 -2.3915 -0.9639
  178SAPS   H7S20327   4.877   7.346   2.577 -0.9681 -0.2441  1.1517
  178SAPS   C2820328   5.005   7.476   2.713  0.2575 -0.0834 -0.3680
  178SAPS   H8R20329   5.098   7.504   2.661  0.3855  1.4349  0.6248
  178SAPS   C2920330   4.970   7.554   2.816 -0.0820  0.0101 -0.0140
  178SAPS   H9R20331   5.014   7.654   2.805 -0.6346 -0.0234 -4.1847
  178SAPS  C21020332   4.858   7.525   2.913 -0.1024  0.2175  0.1487
  178SAPS  H10R20333   4.905   7.476   3.000  0.9621  0.4871 -0.2609
  178SAPS  H10S20334   4.797   7.450   2.858 -0.2009  0.9178 -0.7322
  178SAPS  C21120335   4.774   7.640   2.965 -0.6075 -0.1471 -0.0203
  178SAPS  H11R20336   4.800   7.746   2.956 -1.0652  0.3163  3.0503
  178SAPS  C21220337   4.670   7.626   3.043 -0.7234  0.7611 -0.1784
  178SAPS  H12R20338   4.614   7.713   3.081 -1.4105  0.0234  0.5517
  178SAPS  C21320339   4.609   7.484   3.084  0.0106  0.4590  0.2262
  178SAPS  H13R20340   4.691   7.411   3.105  0.5911  1.6455  2.2538
  178SAPS  H13S20341   4.548   7.438   3.003 -0.1926 -0.5096  0.9139
  178SAPS  C21420342   4.529   7.496   3.213 -0.5076 -0.3976 -0.4510
  178SAPS  H14R20343   4.568   7.555   3.297 -2.0326  1.3029 -0.8991
  178SAPS  C21520344   4.405   7.443   3.231  0.6398 -0.0282 -0.0353
  178SAPS  H15R20345   4.350   7.452   3.325  1.2638 -1.3923  0.4947
  178SAPS  C21620346   4.325   7.363   3.123 -0.8707  0.2638 -0.4067
  178SAPS  H16R20347   4.274   7.278   3.174 -0.0277 -1.2188 -1.9508
  178SAPS  H16S20348   4.385   7.314   3.044 -0.3630  0.5763 -0.2160
  178SAPS  C21720349   4.235   7.455   3.037  0.3987 -0.1265 -0.0822
  178SAPS  H17R20350   4.182   7.390   2.964  0.9125  1.5592 -2.0344
  178SAPS  H17S20351   4.294   7.524   2.974 -0.8449 -0.2941 -1.4810
  178SAPS  C21820352   4.140   7.538   3.123 -0.0987 -0.5283  0.2238
  178SAPS  H18R20353   4.091   7.596   3.042  2.5965  1.5202 -0.0813
  178SAPS  H18S20354   4.189   7.610   3.193  2.6072  0.1013 -2.1615
  178SAPS  C21920355   4.041   7.443   3.197 -0.0009 -0.6268 -0.0993
  178SAPS  H19R20356   4.083   7.403   3.292  0.3973  2.3549  1.0862
  178SAPS  H19S20357   4.006   7.359   3.133 -0.9526 -0.8535  0.6899
  178SAPS  C22020358   3.920   7.517   3.256 -0.0161 -0.0485 -0.3786
  178SAPS  H20R20359   3.877   7.586   3.180  0.3014  0.7985  0.1921
  178SAPS  H20S20360   3.951   7.577   3.344 -0.1689 -0.4557 -0.0472
  178SAPS  H20T20361   3.840   7.454   3.300  0.0824  1.7604  2.6005
  178SAPS   C3320362   4.502   7.376   2.414 -0.4767 -0.4874 -0.7798
  178SAPS   H3X20363   4.405   7.375   2.469 -1.1648 -0.3184 -1.9630
  178SAPS   H3Y20364   4.537   7.477   2.442 -2.4693  1.1233 -3.6268
  178SAPS   C3420365   4.588   7.256   2.458  0.1762  0.4668  0.4159
  178SAPS   H4X20366   4.680   7.277   2.399 -1.1341  0.4839 -1.7626
  178SAPS   H4Y20367   4.551   7.157   2.422  0.1789  1.2783 -2.0516
  178SAPS   C3520368   4.638   7.246   2.603 -0.1004 -0.0020 -0.5515
  178SAPS   H5X20369   4.661   7.348   2.641  0.7074  0.4703 -2.2047
  178SAPS   H5Y20370   4.737   7.196   2.615 -0.3006  0.1276  2.6095
  178SAPS   C3620371   4.519   7.194   2.679  0.5647 -0.7182 -0.3879
  178SAPS   H6X20372   4.493   7.092   2.645 -0.0711 -0.7778  0.2637
  178SAPS   H6Y20373   4.429   7.260   2.672 -0.8495 -2.1342  2.6681
  178SAPS   C3720374   4.542   7.194   2.822 -0.2895 -0.3649  0.0574
  178SAPS   H7X20375   4.443   7.196   2.873 -0.0477  2.3576  0.5989
  178SAPS   H7Y20376   4.594   7.286   2.857  0.1923 -0.4879 -0.3228
  178SAPS   C3820377   4.620   7.070   2.882 -0.0492 -0.5107  0.0566
  178SAPS   H8X20378   4.711   7.046   2.823  0.4021 -0.1269  0.5908
  178SAPS   H8Y20379   4.565   6.973   2.883 -0.9552 -0.0364  2.2110
  178SAPS   C3920380   4.650   7.095   3.032  0.1954  0.6875 -0.1751
  178SAPS   H9X20381   4.570   7.163   3.069 -0.0617  0.2222  0.1246
  178SAPS   H9Y20382   4.745   7.152   3.042 -0.0302  1.2180 -0.9143
  178SAPS  C31020383   4.659   6.962   3.114  0.2393  0.2793 -0.2455
  178SAPS  H10X20384   4.746   6.897   3.089  1.4515  1.5415  0.5429
  178SAPS  H10Y20385   4.566   6.905   3.094  1.4138 -1.3274 -1.3520
  178SAPS  C31120386   4.671   6.990   3.273 -0.0141 -0.0651  0.6282
  178SAPS  H11X20387   4.581   7.048   3.304 -0.5741 -0.2367 -0.6093
  178SAPS  H11Y20388   4.750   7.063   3.300 -0.5031  0.9040 -0.5040
  178SAPS  C31220389   4.670   6.869   3.368  0.0772  0.3457 -0.8304
  178SAPS  H12X20390   4.764   6.810   3.362 -0.4356 -0.7171  1.0055
  178SAPS  H12Y20391   4.593   6.794   3.340 -1.3933  0.1689  3.1738
  178SAPS  C31320392   4.648   6.904   3.514  0.2475 -0.0777 -0.1794
  178SAPS  H13X20393   4.561   6.972   3.531  0.0668 -0.5315  0.7845
  178SAPS  H13Y20394   4.741   6.960   3.537  1.3021 -1.2491 -1.3846
  178SAPS  C31420395   4.637   6.788   3.609  0.0675 -0.0083 -0.2859
  178SAPS  H14X20396   4.721   6.720   3.584  0.1768 -0.2039  0.5844
  178SAPS  H14Y20397   4.541   6.734   3.594  0.6130 -2.2372  3.1971
  178SAPS  C31520398   4.662   6.837   3.746 -0.0353  0.2082 -0.1425
  178SAPS  H15X20399   4.614   6.772   3.821 -0.9092  0.7785 -0.1914
  178SAPS  H15Y20400   4.612   6.935   3.764 -0.4224  0.0197 -0.2005
  178SAPS  C31620401   4.808   6.839   3.799  0.0521  0.0265  0.2351
  178SAPS  H16X20402   4.794   6.869   3.905 -2.0044 -1.1073  0.3396
  178SAPS  H16Y20403   4.878   6.909   3.749  0.7368 -1.0563 -0.3635
  178SAPS  C31720404   4.872   6.700   3.798  0.7044 -0.0933  0.0296
  178SAPS  H17X20405   4.869   6.652   3.697 -0.8922 -1.5252  0.7023
  178SAPS  H17Y20406   4.811   6.633   3.864  1.4826 -1.0385 -0.1891
  178SAPS  C31820407   5.016   6.701   3.856  0.2545 -0.6469  0.2637
  178SAPS  H18X20408   5.066   6.605   3.879  1.4220 -0.0188  0.4224
  178SAPS  H18Y20409   5.006   6.760   3.950  1.9969 -0.1194  0.1564
  178SAPS  H18Z20410   5.084   6.759   3.790 -0.4706 -1.3117 -1.1034
  179SAPS     N20411   0.570   1.039   1.935 -0.2663  0.0645  0.2708
  179SAPS   HN120412   0.585   1.014   2.035  0.8472  0.7300  0.2814
  179SAPS   HN220413   0.602   0.960   1.874 -2.6132  0.8362 -2.1804
  179SAPS   HN320414   0.635   1.117   1.914 -1.3835  0.9766  0.0782
  179SAPS   C1220415   0.426   1.062   1.894  0.2230  0.5143 -0.6146
  179SAPS  H12A20416   0.379   1.132   1.962 -1.0496  0.1780 -1.1132
  179SAPS   C1320417   0.423   1.126   1.752 -0.3673  0.3184 -0.8336
  179SAPS  O13A20418   0.522   1.161   1.684  0.0880 -0.4010 -0.5664
  179SAPS  O13B20419   0.302   1.159   1.720  0.1916  0.2918 -0.0278
  179SAPS   C1120420   0.338   0.932   1.894  0.2211 -0.2233 -1.1504
  179SAPS  H11A20421   0.381   0.871   1.812  0.7571  0.2147 -1.1958
  179SAPS  H11B20422   0.233   0.956   1.868  0.6200  1.1766 -1.5183
  179SAPS     P20423   0.223   0.891   2.139  0.0140  0.1349  0.3059
  179SAPS   O1320424   0.197   1.036   2.136 -0.4235 -0.1491  0.1433
  179SAPS   O1420425   0.104   0.808   2.123 -0.1960 -0.6161 -0.1942
  179SAPS   O1220426   0.330   0.862   2.021 -0.1087 -0.3527  0.9419
  179SAPS   O1120427   0.309   0.853   2.265 -0.0580 -0.6706  0.3267
  179SAPS    C120428   0.449   0.820   2.279 -0.5215 -0.6322 -0.3372
  179SAPS    HA20429   0.474   0.715   2.251  0.2451  0.0212 -2.3058
  179SAPS    HB20430   0.515   0.875   2.208 -0.1804 -1.5432 -0.7454
  179SAPS    C220431   0.487   0.869   2.422 -0.2152  0.4338 -0.0470
  179SAPS    HS20432   0.596   0.854   2.432 -0.2482  0.6197  0.7270
  179SAPS   O2120433   0.421   0.793   2.524 -0.3849 -0.7979 -0.4681
  179SAPS   C2120434   0.486   0.788   2.640 -0.2097 -0.3840  0.9322
  179SAPS   O2220435   0.591   0.835   2.666 -0.5072  0.4158 -0.4795
  179SAPS   C2220436   0.407   0.701   2.738 -0.2317 -0.7722  0.9021
  179SAPS   H2R20437   0.300   0.724   2.720 -0.4789 -2.4540 -0.0102
  179SAPS   H2S20438   0.421   0.597   2.703 -3.3037 -1.1457  0.4610
  179SAPS    C320439   0.450   1.022   2.426  0.1304 -0.7019 -0.0079
  179SAPS    HX20440   0.340   1.037   2.427 -0.0055 -1.6240  0.6434
  179SAPS    HY20441   0.483   1.063   2.328  0.6407 -0.8814  0.0833
  179SAPS   O3120442   0.511   1.100   2.532  0.1379  0.4213 -0.8239
  179SAPS   C3120443   0.646   1.103   2.546 -0.4167  0.8201 -0.6139
  179SAPS   O3220444   0.724   1.072   2.454  0.0633 -0.2356 -0.2482
  179SAPS   C3220445   0.689   1.151   2.685  0.0972 -0.2718 -0.1619
  179SAPS   H2X20446   0.600   1.151   2.750 -0.4795 -1.9415 -0.8871
  179SAPS   H2Y20447   0.724   1.255   2.670 -0.9876 -0.0863 -1.5601
  179SAPS   C2320448   0.444   0.709   2.886 -0.7846  0.2600 -0.5017
  179SAPS   H3R20449   0.482   0.811   2.907  3.0595 -1.1917  0.2934
  179SAPS   H3S20450   0.532   0.646   2.907 -1.5767 -0.8751 -0.5121
  179SAPS   C2420451   0.323   0.661   2.978  0.1272 -0.4237 -0.3281
  179SAPS   H4R20452   0.369   0.632   3.074 -0.3640 -0.4724 -0.1021
  179SAPS   H4S20453   0.285   0.565   2.935 -0.6938  0.4352 -1.5927
  179SAPS   C2520454   0.200   0.754   2.998 -0.7059 -0.4459  0.8117
  179SAPS   H5R20455   0.151   0.792   2.907 -1.1705 -0.6787  0.9636
  179SAPS   C2620456   0.167   0.798   3.120  0.1553 -0.0501 -0.3735
  179SAPS   H6R20457   0.083   0.870   3.121  0.0045 -0.2286  0.2392
  179SAPS   C2720458   0.236   0.769   3.254 -0.6233 -0.1211 -0.3222
  179SAPS   H7R20459   0.220   0.864   3.309 -0.4293  0.2834 -0.9617
  179SAPS   H7S20460   0.345   0.784   3.243 -0.7032  0.5969 -0.1412
  179SAPS   C2820461   0.184   0.639   3.309 -0.0053 -0.1180 -0.1572
  179SAPS   H8R20462   0.192   0.547   3.248  0.3697 -1.0597  1.2541
  179SAPS   C2920463   0.118   0.629   3.425  0.4898  0.7021 -0.2308
  179SAPS   H9R20464   0.085   0.527   3.453 -1.7088  1.9154  2.0868
  179SAPS  C21020465   0.076   0.736   3.516 -0.0524  0.3158 -0.5573
  179SAPS  H10R20466   0.061   0.834   3.466 -1.6716  0.0416 -0.6661
  179SAPS  H10S20467   0.156   0.739   3.593  1.5800 -2.6223 -1.9980
  179SAPS  C21120468  -0.060   0.693   3.574  0.0935  0.2657  0.6432
  179SAPS  H11R20469  -0.055   0.625   3.660  3.1213  0.2224  0.5406
  179SAPS  C21220470  -0.183   0.706   3.522 -0.2657 -0.6036 -0.6063
  179SAPS  H12R20471  -0.269   0.665   3.576 -0.9551 -0.4906 -1.5901
  179SAPS  C21320472  -0.210   0.772   3.388  0.5228 -0.0980 -0.3596
  179SAPS  H13R20473  -0.267   0.706   3.320 -1.0326 -1.3345  1.9898
  179SAPS  H13S20474  -0.109   0.794   3.346  0.4229 -1.7543 -1.5574
  179SAPS  C21420475  -0.290   0.903   3.402  0.2678  0.5756  0.1978
  179SAPS  H14R20476  -0.327   0.922   3.504  1.8606  1.2059  0.6928
  179SAPS  C21520477  -0.315   1.002   3.310 -0.0279 -0.1183  0.3645
  179SAPS  H15R20478  -0.370   1.091   3.344 -0.8675  0.3711 -2.0846
  179SAPS  C21620479  -0.260   1.009   3.168 -0.7780  0.5222 -0.7601
  179SAPS  H16R20480  -0.226   0.904   3.156  1.5753  1.2622 -1.1565
  179SAPS  H16S20481  -0.168   1.070   3.177  0.2065 -1.1294  1.0880
  179SAPS  C21720482  -0.355   1.033   3.045 -0.4001  0.2249  0.0522
  179SAPS  H17R20483  -0.405   1.132   3.048 -0.6855  0.1745 -2.0468
  179SAPS  H17S20484  -0.430   0.952   3.041 -1.4676  1.2189 -0.4945
  179SAPS  C21820485  -0.278   1.018   2.918 -0.3550 -0.2652 -0.7639
  179SAPS  H18R20486  -0.197   0.944   2.937 -1.4473 -1.2155  0.2675
  179SAPS  H18S20487  -0.235   1.119   2.900 -1.0990  0.6626  2.2487
  179SAPS  C21920488  -0.339   0.971   2.791  0.0352 -0.7202 -0.3663
  179SAPS  H19R20489  -0.358   0.861   2.795 -0.5294 -0.6046  0.2693
  179SAPS  H19S20490  -0.264   0.978   2.710 -0.7690 -1.5606 -1.2037
  179SAPS  C22020491  -0.461   1.047   2.750  0.1784 -0.1476 -0.1157
  179SAPS  H20R20492  -0.481   1.032   2.642  1.5401  1.6965 -0.6781
  179SAPS  H20S20493  -0.437   1.155   2.759  2.4380 -0.5594 -0.5952
  179SAPS  H20T20494  -0.555   1.022   2.804  0.2265  0.9021  0.4869
  179SAPS   C3320495   0.806   1.068   2.744 -0.3552 -0.5810 -0.4150
  179SAPS   H3X20496   0.903   1.115   2.716 -0.2216  0.2780  1.3600
  179SAPS   H3Y20497   0.795   0.966   2.703 -0.7160 -0.0498 -1.6885
  179SAPS   C3420498   0.797   1.067   2.900  1.0412  0.6302  0.2294
  179SAPS   H4X20499   0.732   0.978   2.919  1.1048  0.7537  1.0865
  179SAPS   H4Y20500   0.743   1.154   2.942  1.3433  1.1328 -0.4123
  179SAPS   C3520501   0.925   1.041   2.979 -0.2217  0.1562  0.8569
  179SAPS   H5X20502   1.002   1.113   2.943 -0.2790 -0.4022 -0.4217
  179SAPS   H5Y20503   0.966   0.939   2.961  0.4232  0.5151  0.2303
  179SAPS   C3620504   0.916   1.055   3.135 -0.0658 -0.7158 -0.4725
  179SAPS   H6X20505   0.858   0.969   3.176 -0.9143  0.4963  0.9688
  179SAPS   H6Y20506   0.857   1.144   3.163 -1.4082 -1.1975 -1.6872
  179SAPS   C3720507   1.057   1.065   3.203  0.5622  0.4520  0.6971
  179SAPS   H7X20508   1.125   1.140   3.156 -1.0820  2.9278  2.0904
  179SAPS   H7Y20509   1.109   0.970   3.176 -1.6148 -0.6000 -0.0103
  179SAPS   C3820510   1.057   1.084   3.359 -0.0326  0.4553  0.4670
  179SAPS   H8X20511   1.020   1.182   3.395  2.2672  1.5858 -0.0741
  179SAPS   H8Y20512   1.165   1.087   3.384 -0.1379 -1.5812  1.3956
  179SAPS   C3920513   0.996   0.964   3.434 -0.5392 -0.0305 -0.1205
  179SAPS   H9X20514   1.031   0.875   3.377  1.4259  0.9369 -0.5383
  179SAPS   H9Y20515   0.887   0.980   3.428 -0.4043  1.5360  0.9732
  179SAPS  C31020516   1.031   0.958   3.579 -1.0329 -0.7904 -0.1844
  179SAPS  H10X20517   0.984   1.033   3.645  0.6542  1.1899 -1.1326
  179SAPS  H10Y20518   1.141   0.963   3.598 -0.7889 -0.2647 -1.6320
  179SAPS  C31120519   0.982   0.821   3.630  0.1218  0.9349 -0.2950
  179SAPS  H11X20520   1.045   0.743   3.583 -0.0061 -0.5340  1.8580
  179SAPS  H11Y20521   0.880   0.810   3.589 -1.2703  1.1557  2.8493
  179SAPS  C31220522   0.991   0.805   3.777  0.0194  0.5503  1.0980
  179SAPS  H12X20523   0.910   0.874   3.811 -0.9407 -0.1720  0.3533
  179SAPS  H12Y20524   1.096   0.828   3.803  0.6934 -0.4876 -0.5475
  179SAPS  C31320525   0.939   0.670   3.821 -0.4573 -0.3662 -0.0926
  179SAPS  H13X20526   1.016   0.591   3.809  0.9454  0.8936  0.3575
  179SAPS  H13Y20527   0.847   0.654   3.760 -1.0617 -0.8994  0.9322
  179SAPS  C31420528   0.893   0.684   3.971  0.4235  0.1667 -0.6174
  179SAPS  H14X20529   0.813   0.761   3.968 -0.7479 -0.9606  0.4597
  179SAPS  H14Y20530   0.981   0.722   4.028  0.5171 -1.5114  0.4380
  179SAPS  C31520531   0.821   0.566   4.028 -0.3283  0.4882 -0.0403
  179SAPS  H15X20532   0.885   0.482   3.994 -0.5570 -0.0014  0.7133
  179SAPS  H15Y20533   0.721   0.554   3.981  0.3417 -2.5378 -0.9269
  179SAPS  C31620534   0.804   0.552   4.176  0.0335 -0.3733 -0.1136
  179SAPS  H16X20535   0.906   0.535   4.218 -0.3405  0.4890  1.2110
  179SAPS  H16Y20536   0.747   0.463   4.210 -1.0239  0.4314  0.2857
  179SAPS  C31720537   0.743   0.679   4.239  0.3531 -0.2917  0.3694
  179SAPS  H17X20538   0.657   0.717   4.181  0.4779 -0.6530 -0.0587
  179SAPS  H17Y20539   0.817   0.760   4.221 -0.4522  0.4503  0.3114
  179SAPS  C31820540   0.708   0.675   4.387  0.4628  0.1525  0.3750
  179SAPS  H18X20541   0.799   0.664   4.450 -0.4142 -0.7583  1.5353
  179SAPS  H18Y20542   0.644   0.585   4.403  2.2218 -1.4222 -1.0209
  179SAPS  H18Z20543   0.661   0.767   4.429  0.1217  0.4244 -0.5863
  180SAPS     N20544   6.478   6.340   1.879  0.5010 -0.5197  0.0790
  180SAPS   HN120545   6.502   6.244   1.908  2.2100  0.5461  2.4312
  180SAPS   HN220546   6.412   6.383   1.947  1.1022 -0.7887  0.8327
  180SAPS   HN320547   6.443   6.343   1.781 -0.7216 -3.8864  0.2913
  180SAPS   C1220548   6.604   6.409   1.892  0.8188  0.2637  0.2634
  180SAPS  H12A20549   6.640   6.373   1.987  0.5273  2.5305  1.3040
  180SAPS   C1320550   6.711   6.381   1.790 -0.6036 -0.4098  0.6418
  180SAPS  O13A20551   6.687   6.304   1.693 -0.5803  0.4183 -0.8281
  180SAPS  O13B20552   6.821   6.443   1.800 -0.0639 -0.1352 -1.0427
  180SAPS   C1120553   6.578   6.565   1.904  0.3246  0.2316 -0.4436
  180SAPS  H11A20554   6.526   6.599   1.812  1.3810 -1.3874 -1.6965
  180SAPS  H11B20555   6.673   6.622   1.900  0.3289  0.1686 -1.3265
  180SAPS     P20556   6.436   6.727   2.045 -0.0513 -0.7508 -0.0939
  180SAPS   O1320557   6.421   6.791   1.916 -0.8431 -0.4352 -0.0735
  180SAPS   O1420558   6.308   6.699   2.113 -0.1476  0.3876 -0.0317
  180SAPS   O1220559   6.514   6.589   2.032 -0.0553  0.4606 -0.2440
  180SAPS   O1120560   6.528   6.816   2.145  0.1818  0.1837 -0.2476
  180SAPS    C120561   6.593   6.734   2.248 -0.0352 -0.3512 -0.5496
  180SAPS    HA20562   6.519   6.663   2.291  0.6141  0.3016  1.7958
  180SAPS    HB20563   6.674   6.674   2.200  0.0120 -1.3632  0.7373
  180SAPS    C220564   6.643   6.836   2.357 -0.3779  0.4097 -0.1324
  180SAPS    HS20565   6.710   6.915   2.315  0.3711 -0.5226 -0.7353
  180SAPS   O2120566   6.728   6.768   2.453  0.1254 -0.0641  0.5140
  180SAPS   C2120567   6.850   6.739   2.407  0.4385  0.3722  0.0873
  180SAPS   O2220568   6.899   6.769   2.298 -0.0694 -0.2157  0.4034
  180SAPS   C2220569   6.911   6.652   2.507 -0.1861 -1.0962  0.2471
  180SAPS   H2R20570   6.881   6.696   2.605 -1.5221 -0.0522 -0.6073
  180SAPS   H2S20571   6.882   6.545   2.500 -2.1620 -0.7067  1.6608
  180SAPS    C320572   6.512   6.888   2.434  0.2377 -0.6263  0.2913
  180SAPS    HX20573   6.457   6.796   2.463  0.0858 -0.7791 -0.4583
  180SAPS    HY20574   6.449   6.944   2.361 -0.3541  0.6284  1.7224
  180SAPS   O3120575   6.545   6.967   2.550 -0.3154 -0.0626 -0.3603
  180SAPS   C3120576   6.583   7.086   2.527 -0.3522 -0.6001 -0.4496
  180SAPS   O3220577   6.604   7.131   2.415 -0.3928 -0.0223  0.7471
  180SAPS   C3220578   6.569   7.166   2.660 -0.5199 -0.1471  0.1089
  180SAPS   H2X20579   6.546   7.272   2.638 -0.5294  0.2950  2.0489
  180SAPS   H2Y20580   6.670   7.162   2.705 -0.6316  1.4689  0.5415
  180SAPS   C2320581   7.070   6.662   2.491  0.5115  0.6756  0.3888
  180SAPS   H3R20582   7.096   6.639   2.385 -1.6089 -1.4213  0.2322
  180SAPS   H3S20583   7.122   6.585   2.553  2.2582  0.3572 -1.3546
  180SAPS   C2420584   7.120   6.796   2.546 -0.1705 -0.5463  0.0161
  180SAPS   H4R20585   7.060   6.877   2.499 -1.7133 -1.7404 -0.1369
  180SAPS   H4S20586   7.222   6.827   2.513  0.5864  0.0059  2.6513
  180SAPS   C2520587   7.117   6.807   2.693 -0.4537 -0.5320 -0.3789
  180SAPS   H5R20588   7.202   6.754   2.739  0.0944  0.4393 -0.2435
  180SAPS   C2620589   7.024   6.863   2.776  0.8085 -0.3074  0.2511
  180SAPS   H6R20590   7.065   6.878   2.877  2.0472  3.7819 -0.6392
  180SAPS   C2720591   6.905   6.948   2.740  0.7181  0.6995 -0.6210
  180SAPS   H7R20592   6.810   6.890   2.737  2.9643 -3.3880 -0.0715
  180SAPS   H7S20593   6.900   6.984   2.635 -2.6012  1.5798 -0.2801
  180SAPS   C2820594   6.898   7.061   2.836  0.2377  0.7983  0.4887
  180SAPS   H8R20595   6.955   7.145   2.793  0.6383  0.3993  0.2247
  180SAPS   C2920596   6.828   7.068   2.952 -0.4905 -0.7441  0.4342
  180SAPS   H9R20597   6.829   7.173   2.986  3.7091  0.4835 -2.5798
  180SAPS  C21020598   6.747   6.958   3.022 -0.0989  0.1579 -0.7791
  180SAPS  H10R20599   6.756   6.861   2.969  0.2640 -0.1925 -0.0805
  180SAPS  H10S20600   6.642   6.993   3.027  0.7388  2.7163  1.1091
  180SAPS  C21120601   6.805   6.946   3.155  0.0704  0.1398 -0.2103
  180SAPS  H11R20602   6.913   6.924   3.158  0.1687  0.5073  3.0887
  180SAPS  C21220603   6.741   6.944   3.275 -0.2513 -0.1617  0.3217
  180SAPS  H12R20604   6.805   6.928   3.363 -0.0770  0.3520  0.2942
  180SAPS  C21320605   6.595   6.968   3.308  0.1661 -0.4854 -0.3327
  180SAPS  H13R20606   6.548   6.872   3.338  1.8241 -1.0203  0.7181
  180SAPS  H13S20607   6.527   7.000   3.227 -0.8372 -2.6834 -0.4006
  180SAPS  C21420608   6.585   7.078   3.414 -0.5787  0.3302  0.5494
  180SAPS  H14R20609   6.577   7.179   3.370 -0.7016  0.5024  0.9633
  180SAPS  C21520610   6.570   7.053   3.550 -0.4046 -0.1390  0.0775
  180SAPS  H15R20611   6.577   7.140   3.617  2.1882  2.7317 -3.5129
  180SAPS  C21620612   6.568   6.916   3.621 -0.1836  0.0262  0.0370
  180SAPS  H16R20613   6.493   6.850   3.572  2.0152 -1.1302 -1.9513
  180SAPS  H16S20614   6.523   6.933   3.722  0.1448 -1.0167  0.3728
  180SAPS  C21720615   6.700   6.834   3.646 -0.1133  0.4258  0.5456
  180SAPS  H17R20616   6.766   6.842   3.558 -1.0531 -1.3678 -0.3658
  180SAPS  H17S20617   6.668   6.730   3.666 -0.0980  0.6829  2.0242
  180SAPS  C21820618   6.785   6.884   3.761  0.5786 -0.0803 -0.6607
  180SAPS  H18R20619   6.880   6.826   3.770 -0.0696 -0.8784  1.6315
  180SAPS  H18S20620   6.738   6.872   3.860 -0.0887 -2.3771 -1.1873
  180SAPS  C21920621   6.831   7.033   3.762 -0.0174 -0.1433  0.0098
  180SAPS  H19R20622   6.748   7.106   3.772 -2.5270 -2.8333  0.3774
  180SAPS  H19S20623   6.887   7.054   3.668  0.6157 -1.7365  0.0032
  180SAPS  C22020624   6.926   7.066   3.876  0.3247 -0.2147  0.7627
  180SAPS  H20R20625   6.967   7.169   3.860 -0.4202 -0.0168  0.0727
  180SAPS  H20S20626   6.881   7.050   3.976  0.8032  2.0539  1.4125
  180SAPS  H20T20627   7.017   7.004   3.860 -0.0456 -0.4774 -0.4415
  180SAPS   C3320628   6.465   7.102   2.764 -0.2510 -0.2849  0.4693
  180SAPS   H3X20629   6.513   7.008   2.797 -1.0836 -1.1070 -0.5583
  180SAPS   H3Y20630   6.371   7.075   2.710 -0.2461 -0.7356  0.6786
  180SAPS   C3420631   6.425   7.197   2.883  0.2696  0.3341  0.4726
  180SAPS   H4X20632   6.357   7.265   2.827  0.2590  0.4350  0.6071
  180SAPS   H4Y20633   6.507   7.251   2.934 -0.1343  1.6915 -0.2743
  180SAPS   C3520634   6.347   7.122   2.988 -0.0688  0.7525  0.2057
  180SAPS   H5X20635   6.410   7.038   3.023  1.4473  1.4281 -0.7795
  180SAPS   H5Y20636   6.249   7.094   2.943  0.4192  0.7593 -0.8906
  180SAPS   C3620637   6.314   7.202   3.112 -0.0605 -0.1861  0.0749
  180SAPS   H6X20638   6.277   7.302   3.083 -0.5625  0.5640  2.9885
  180SAPS   H6Y20639   6.411   7.212   3.165 -0.6055 -2.5138  1.6942
  180SAPS   C3720640   6.229   7.130   3.213  0.7071 -0.0631  0.2589
  180SAPS   H7X20641   6.267   7.030   3.243 -0.1365 -1.7292 -3.6552
  180SAPS   H7Y20642   6.126   7.111   3.177 -0.9763  0.6085  4.1958
  180SAPS   C3820643   6.207   7.221   3.339 -0.6836  0.1326 -0.3093
  180SAPS   H8X20644   6.201   7.330   3.317 -3.9337 -0.1631 -1.3367
  180SAPS   H8Y20645   6.294   7.219   3.408  0.1274  0.8514 -1.2851
  180SAPS   C3920646   6.081   7.182   3.414 -0.0937  0.2469  0.0858
  180SAPS   H9X20647   5.994   7.168   3.346 -0.4928  2.1450  0.1360
  180SAPS   H9Y20648   6.044   7.263   3.480  2.9689 -0.1096  2.4498
  180SAPS  C31020649   6.095   7.062   3.501  0.0913  0.1879 -0.7540
  180SAPS  H10X20650   6.161   6.992   3.445 -0.7268  0.5213 -2.1918
  180SAPS  H10Y20651   6.004   7.002   3.524 -0.1458  0.5711 -0.6956
  180SAPS  C31120652   6.155   7.094   3.642  0.4498  0.4827  0.4283
  180SAPS  H11X20653   6.079   7.146   3.705 -0.2770  0.1745 -0.1779
  180SAPS  H11Y20654   6.234   7.170   3.624 -1.4347  2.5173  0.3409
  180SAPS  C31220655   6.202   6.966   3.711 -0.2050 -0.2322  0.2097
  180SAPS  H12X20656   6.295   6.989   3.768  0.8914 -1.6905 -0.9305
  180SAPS  H12Y20657   6.230   6.889   3.636  0.6381  0.7243 -0.4959
  180SAPS  C31320658   6.109   6.892   3.803  0.1798 -0.1186  0.2207
  180SAPS  H13X20659   6.026   6.853   3.741  1.6471  0.8530 -2.5150
  180SAPS  H13Y20660   6.052   6.960   3.871  1.2248 -0.7948  1.8311
  180SAPS  C31420661   6.189   6.786   3.887 -0.1486 -0.0668  0.9030
  180SAPS  H14X20662   6.266   6.836   3.949 -1.0665  0.8695  1.2977
  180SAPS  H14Y20663   6.239   6.716   3.817  1.4572  1.3824  0.5379
  180SAPS  C31520664   6.100   6.711   3.972 -0.0887 -0.6804  0.8460
  180SAPS  H15X20665   6.025   6.663   3.907  0.8021 -2.2766  0.9604
  180SAPS  H15Y20666   6.055   6.775   4.051 -0.4868 -0.9981  0.8762
  180SAPS  C31620667   6.170   6.592   4.032 -0.6553  1.0860 -0.4486
  180SAPS  H16X20668   6.242   6.629   4.108 -0.9184  1.7168 -0.4924
  180SAPS  H16Y20669   6.213   6.521   3.958 -1.6791 -1.8552  1.5981
  180SAPS  C31720670   6.077   6.497   4.114  0.5755 -0.3194  0.0252
  180SAPS  H17X20671   6.004   6.464   4.037 -0.8040 -0.1830  1.2390
  180SAPS  H17Y20672   6.028   6.568   4.183 -0.1405 -0.6429 -0.1452
  180SAPS  C31820673   6.130   6.384   4.202  0.0279 -0.0632 -0.6925
  180SAPS  H18X20674   6.048   6.325   4.249  0.5123  0.6372  1.1350
  180SAPS  H18Y20675   6.195   6.433   4.278  1.6299 -3.2890  0.1913
  180SAPS  H18Z20676   6.183   6.311   4.138 -1.3893  0.7613 -2.9342
  181POPC     N20677   5.675   2.410   5.876  0.0698  0.9922 -0.3729
  181POPC   C1220678   5.532   2.435   5.844  0.0762 -0.1799 -0.4271
  181POPC  H12A20679   5.526   2.533   5.800  2.6091  1.0950  1.7416
  181POPC  H12B20680   5.472   2.439   5.934  1.0943  0.6808  0.2366
  181POPC   C1320681   5.690   2.271   5.941 -0.0511 -0.4704  0.0085
  181POPC  H13A20682   5.784   2.273   5.994  0.4804  1.3955 -0.8955
  181POPC  H13B20683   5.613   2.246   6.012 -0.4718  0.9500  0.0793
  181POPC  H13C20684   5.687   2.183   5.878  1.1398 -0.9833  0.6264
  181POPC   C1420685   5.761   2.416   5.751  0.6168 -0.5659 -0.2218
  181POPC  H14A20686   5.715   2.358   5.673  1.2843  1.3091 -2.1080
  181POPC  H14B20687   5.789   2.515   5.719 -0.1353 -0.6331 -1.1170
  181POPC  H14C20688   5.851   2.359   5.771  0.1177 -1.5303 -0.6678
  181POPC   C1520689   5.713   2.514   5.981  0.2636 -0.1373 -0.3286
  181POPC  H15A20690   5.804   2.483   6.031  0.3848  1.0347  0.2131
  181POPC  H15B20691   5.644   2.512   6.064 -1.2501  2.5078 -1.4137
  181POPC  H15C20692   5.723   2.609   5.931 -0.7193  0.2087  0.1165
  181POPC   C1120693   5.464   2.329   5.756  0.0636  0.7744  0.2250
  181POPC  H11A20694   5.544   2.306   5.682  1.3212  1.0127  1.4715
  181POPC  H11B20695   5.371   2.363   5.705 -0.3424 -0.4591  0.0938
  181POPC     P20696   5.302   2.207   5.917  0.4868  0.1561  0.1051
  181POPC   O1320697   5.279   2.354   5.950  0.9245  0.8169 -0.0116
  181POPC   O1420698   5.322   2.111   6.026  0.3967 -0.1613  0.2093
  181POPC   O1220699   5.423   2.211   5.827 -0.3294 -0.2646  0.2636
  181POPC   O1120700   5.180   2.149   5.830 -0.0043 -0.3580 -0.3952
  181POPC    C120701   5.214   2.042   5.745 -0.3543 -0.2585 -0.6825
  181POPC    HA20702   5.218   1.949   5.807 -0.5770  0.5073  0.5028
  181POPC    HB20703   5.308   2.056   5.688 -0.3492  2.4714 -0.1161
  181POPC    C220704   5.107   2.020   5.631 -0.2845 -0.5857  0.5671
  181POPC    HS20705   5.142   1.939   5.563 -1.6236 -2.9859  2.5846
  181POPC   O2120706   5.088   2.150   5.566 -0.0201  0.2010 -0.2687
  181POPC   C2120707   5.186   2.194   5.492  0.9694 -0.0487 -0.4757
  181POPC   O2220708   5.288   2.143   5.460 -0.7749 -0.3195 -0.0334
  181POPC   C2220709   5.152   2.333   5.439  0.3814  0.5231  0.0795
  181POPC   H2R20710   5.225   2.404   5.482  0.9232 -1.6676  3.0854
  181POPC   H2S20711   5.048   2.357   5.469  0.5938  1.0846  0.3759
  181POPC    C320712   4.972   1.971   5.687  0.2715 -0.2087 -0.0508
  181POPC    HX20713   4.940   2.029   5.776  1.1866 -0.4684  0.4558
  181POPC    HY20714   4.980   1.868   5.727 -0.5795 -0.7813 -1.2706
  181POPC   O3120715   4.865   1.960   5.584  0.4032  0.6280  0.0841
  181POPC   C3120716   4.780   2.057   5.568  0.4679 -0.3640 -1.0195
  181POPC   O3220717   4.774   2.157   5.638 -0.6098 -0.2670  0.0152
  181POPC   C3220718   4.698   2.029   5.434  0.3549  0.9216 -0.0482
  181POPC   H2X20719   4.593   2.066   5.441  0.4309  0.9435  1.2168
  181POPC   H2Y20720   4.696   1.920   5.418 -0.3907  1.0313 -0.7788
  181POPC   C2320721   5.164   2.342   5.289 -0.1564 -0.4061 -0.2780
  181POPC   H3R20722   5.266   2.317   5.253 -0.6175 -0.1655 -1.8026
  181POPC   H3S20723   5.137   2.446   5.261 -2.9204 -0.7284  0.8568
  181POPC   C2420724   5.053   2.258   5.218 -0.4512  0.0182  0.1242
  181POPC   H4R20725   4.955   2.299   5.250  0.1925  1.0816  0.7934
  181POPC   H4S20726   5.068   2.151   5.242  0.7515 -0.4876 -2.5554
  181POPC   C2520727   5.058   2.285   5.066 -0.1397 -0.4620 -0.3096
  181POPC   H5R20728   5.129   2.366   5.040 -0.0249 -0.7936 -1.0485
  181POPC   H5S20729   4.955   2.321   5.044 -0.6942 -0.7575  1.6734
  181POPC   C2620730   5.087   2.158   4.986 -0.1172 -0.0863 -0.6555
  181POPC   H6R20731   5.003   2.090   5.011  0.9407 -0.9777  0.6126
  181POPC   H6S20732   5.186   2.115   5.012  0.2317  0.1926 -1.4848
  181POPC   C2720733   5.081   2.190   4.834  0.1448  0.4942  0.6649
  181POPC   H7R20734   5.163   2.262   4.813  1.7109 -1.4408 -0.1687
  181POPC   H7S20735   4.980   2.230   4.810 -0.3212 -0.9642  0.0457
  181POPC   C2820736   5.113   2.064   4.746  0.6504 -0.3813  0.1687
  181POPC   H8R20737   5.175   1.984   4.790 -2.1831 -2.1558  1.1870
  181POPC   H8S20738   5.159   2.097   4.651  0.0276 -0.1774 -0.0701
  181POPC   C2920739   4.986   1.991   4.720  0.6914 -0.2998 -0.2207
  181POPC   H9120740   4.913   1.978   4.800  0.4794 -2.8605 -0.7552
  181POPC  C21020741   4.952   1.954   4.593  0.5505  0.1077 -0.1915
  181POPC  H10120742   4.860   1.894   4.590  0.8345 -0.3260 -0.2371
  181POPC  C21120743   5.024   1.985   4.461  0.1327  0.4504 -0.4169
  181POPC  H11R20744   5.020   1.890   4.405 -0.6705 -1.0314  1.9986
  181POPC  H11S20745   5.131   2.011   4.472  0.5199 -0.2432 -2.2567
  181POPC  C21220746   4.972   2.101   4.377  0.2730  0.0620  0.1264
  181POPC  H12R20747   4.871   2.063   4.350  0.1950  0.0820  0.3956
  181POPC  H12S20748   5.026   2.091   4.280 -0.7223 -3.2125 -0.2147
  181POPC  C21320749   4.980   2.246   4.431  0.1126 -0.4220 -0.8422
  181POPC  H13R20750   5.080   2.270   4.472 -0.8386  0.9928  0.8528
  181POPC  H13S20751   4.904   2.248   4.513  0.4361 -1.5025 -0.4987
  181POPC  C21420752   4.935   2.362   4.331 -0.2160  0.1937  0.2406
  181POPC  H14R20753   4.825   2.348   4.319 -0.3307  1.1884  0.0340
  181POPC  H14S20754   4.994   2.340   4.240  1.5388  0.2217  1.3193
  181POPC  C21520755   4.970   2.496   4.386 -0.0339  0.8253 -0.0142
  181POPC  H15R20756   5.081   2.496   4.399  0.1429  1.7004 -1.3276
  181POPC  H15S20757   4.927   2.515   4.487  0.1314  1.4276 -0.0558
  181POPC  C21620758   4.932   2.609   4.287  0.4655  0.9475 -1.0438
  181POPC  H16R20759   4.823   2.601   4.266 -0.2352  0.7673  2.1225
  181POPC  H16S20760   4.985   2.604   4.190 -2.7162  0.1624 -2.8903
  181POPC  C21720761   4.950   2.750   4.338 -0.6837 -0.1465 -0.9583
  181POPC  H17R20762   5.036   2.757   4.407 -1.4837  0.3218  0.0132
  181POPC  H17S20763   4.865   2.771   4.406 -0.4656 -0.1709 -0.6785
  181POPC  C21820764   4.965   2.856   4.221 -0.0817  0.9980 -0.4532
  181POPC  H18R20765   4.880   2.835   4.152  1.2771  0.3466 -2.0121
  181POPC  H18S20766   5.055   2.843   4.157 -0.4812  0.7223 -0.9617
  181POPC  H18T20767   4.969   2.956   4.269  0.7480  0.1572  1.2926
  181POPC   C3320768   4.750   2.108   5.317 -0.4561 -0.5628  0.0447
  181POPC   H3X20769   4.856   2.080   5.297  0.0637  1.3971 -0.1449
  181POPC   H3Y20770   4.741   2.216   5.339 -1.4380 -0.6881  0.3124
  181POPC   C3420771   4.668   2.087   5.185 -0.1681  0.5999 -0.8514
  181POPC   H4X20772   4.560   2.097   5.209 -0.1407 -0.6453 -0.0833
  181POPC   H4Y20773   4.669   1.982   5.150 -1.2097  0.1535  0.3663
  181POPC   C3520774   4.704   2.179   5.065 -0.0212  0.3471  0.5385
  181POPC   H5X20775   4.813   2.188   5.044 -0.3791 -0.6305 -2.2162
  181POPC   H5Y20776   4.675   2.285   5.082  2.1524  0.9126  1.0427
  181POPC   C3620777   4.623   2.125   4.940 -0.6895  0.0839 -1.1530
  181POPC   H6X20778   4.515   2.114   4.967 -0.4888  1.3084  0.3058
  181POPC   H6Y20779   4.675   2.035   4.902 -1.9625 -0.7366 -1.0116
  181POPC   C3720780   4.611   2.225   4.819  0.0197 -0.2669 -0.2188
  181POPC   H7X20781   4.715   2.245   4.787 -0.8406  1.4505 -2.1950
  181POPC   H7Y20782   4.586   2.322   4.868 -0.4797 -0.3594 -0.2878
  181POPC   C3820783   4.523   2.173   4.702  0.5259  0.2960 -1.0439
  181POPC   H8X20784   4.421   2.209   4.727  1.2871  1.8302  0.0487
  181POPC   H8Y20785   4.539   2.063   4.706 -0.7720  0.1178  2.4971
  181POPC   C3920786   4.556   2.238   4.566 -0.5653 -0.0764 -0.1536
  181POPC   H9X20787   4.665   2.225   4.551 -0.1410  1.0551  1.5959
  181POPC   H9Y20788   4.541   2.347   4.560 -0.2413 -0.1156 -2.6563
  181POPC  C31020789   4.475   2.168   4.449 -0.4444 -0.2009  0.0274
  181POPC  H10X20790   4.364   2.173   4.455 -0.4334 -0.4637  0.5617
  181POPC  H10Y20791   4.493   2.060   4.472  0.9971  0.0206  0.0087
  181POPC  C31120792   4.530   2.202   4.314 -0.2459  0.2786  0.1774
  181POPC  H11X20793   4.530   2.112   4.249 -2.3090  0.8566 -0.7090
  181POPC  H11Y20794   4.636   2.235   4.326  0.5555 -1.5990 -1.2287
  181POPC  C31220795   4.449   2.311   4.252 -0.1762  0.6140  0.0551
  181POPC  H12X20796   4.434   2.380   4.337 -0.7156  0.0735  0.4060
  181POPC  H12Y20797   4.350   2.278   4.215  0.2375  0.9370 -1.4075
  181POPC  C31320798   4.517   2.390   4.133  0.3827 -0.0868 -0.8840
  181POPC  H13X20799   4.530   2.338   4.036 -0.0521 -1.1064 -0.4079
  181POPC  H13Y20800   4.619   2.422   4.166 -0.4376  3.9709 -1.7460
  181POPC  C31420801   4.456   2.525   4.102  0.2935 -0.7663 -0.0378
  181POPC  H14X20802   4.518   2.574   4.023  3.9475  0.9017  3.5285
  181POPC  H14Y20803   4.469   2.594   4.188 -1.7002 -0.3313 -0.0264
  181POPC  C31520804   4.316   2.504   4.045  0.0673  0.4642  0.0333
  181POPC  H15X20805   4.276   2.605   4.021  0.6799  0.7603  0.2356
  181POPC  H15Y20806   4.245   2.477   4.126  0.0962  1.2912  0.3445
  181POPC  C31620807   4.304   2.415   3.915  0.8800  0.6293 -0.8214
  181POPC  H16X20808   4.296   2.308   3.947 -0.8447  1.0453  0.3015
  181POPC  H16Y20809   4.397   2.436   3.859  1.0825 -3.6203 -2.4616
  181POPC  H16Z20810   4.214   2.433   3.853  1.2895  0.6128 -1.4290
  182POPC     N20811   2.676   1.572   6.339 -0.1943 -0.1167 -0.0972
  182POPC   C1220812   2.566   1.480   6.312  0.1889 -0.5109  0.3527
  182POPC  H12A20813   2.475   1.537   6.311  1.9310  2.5162  0.7357
  182POPC  H12B20814   2.561   1.414   6.397 -0.1286  0.2580  0.9407
  182POPC   C1320815   2.652   1.636   6.472  0.2972 -0.2867 -0.4527
  182POPC  H13A20816   2.739   1.676   6.523 -0.3852 -2.5672  2.7873
  182POPC  H13B20817   2.579   1.715   6.467 -0.0090 -0.2723  2.4439
  182POPC  H13C20818   2.616   1.558   6.536  1.8725 -1.8693 -1.3964
  182POPC   C1420819   2.804   1.504   6.344  0.3304  0.0671 -0.6651
  182POPC  H14A20820   2.877   1.581   6.364  0.2842  0.0781 -0.5382
  182POPC  H14B20821   2.809   1.441   6.431  1.3607 -2.6079 -2.5122
  182POPC  H14C20822   2.819   1.449   6.252 -0.4667  0.3878 -0.9960
  182POPC   C1520823   2.672   1.682   6.237 -0.8539 -0.4623 -0.2359
  182POPC  H15A20824   2.579   1.738   6.231 -0.7808 -0.4397 -1.6237
  182POPC  H15B20825   2.717   1.660   6.141 -0.2099 -0.2020  0.0031
  182POPC  H15C20826   2.750   1.750   6.268 -1.1079 -0.5456  0.5934
  182POPC   C1120827   2.572   1.388   6.192  0.4759 -0.7004  0.2670
  182POPC  H11A20828   2.590   1.449   6.101 -3.0308  0.3729  0.1476
  182POPC  H11B20829   2.469   1.346   6.184 -0.3238  0.7366  2.1224
  182POPC     P20830   2.663   1.129   6.216  0.2787  0.3864  0.2812
  182POPC   O1320831   2.567   1.101   6.321 -0.2109  0.1081 -0.2550
  182POPC   O1420832   2.804   1.090   6.230  0.3610  0.4249 -0.1287
  182POPC   O1220833   2.674   1.290   6.196 -0.6692  0.3342 -0.4107
  182POPC   O1120834   2.617   1.079   6.073  0.2154  0.2141  0.1414
  182POPC    C120835   2.670   1.153   5.959 -0.1776 -0.5443 -0.2502
  182POPC    HA20836   2.657   1.263   5.967  2.3726 -0.3313  2.0312
  182POPC    HB20837   2.610   1.117   5.872 -1.3544 -1.1515  0.7678
  182POPC    C220838   2.825   1.132   5.918  0.3472  0.1579 -0.0148
  182POPC    HS20839   2.887   1.152   6.008 -0.0278 -1.3650  0.6158
  182POPC   O2120840   2.843   1.223   5.813 -0.7213  0.0046  0.8455
  182POPC   C2120841   2.970   1.248   5.787  0.0215  0.2115  0.0343
  182POPC   O2220842   3.068   1.207   5.859  0.2628 -0.3857  0.5555
  182POPC   C2220843   2.995   1.311   5.651  0.4706  0.1303 -0.5140
  182POPC   H2R20844   3.102   1.308   5.621  0.7385 -1.6746  0.5145
  182POPC   H2S20845   2.965   1.418   5.656  2.4700  0.6679  1.3642
  182POPC    C320846   2.867   0.988   5.881  0.4568  0.6817  0.0256
  182POPC    HX20847   2.835   0.923   5.966 -0.7927  1.1397 -0.0806
  182POPC    HY20848   2.977   0.971   5.883  0.4859  0.8088 -0.4660
  182POPC   O3120849   2.819   0.937   5.755 -0.7165  0.1494  0.0815
  182POPC   C3120850   2.831   0.803   5.744  0.4105  0.1282 -0.5206
  182POPC   O3220851   2.855   0.724   5.835  0.3853 -0.0365 -0.5989
  182POPC   C3220852   2.789   0.762   5.605  0.3918  0.8020 -0.8283
  182POPC   H2X20853   2.693   0.817   5.596 -0.3780 -0.1289  1.0861
  182POPC   H2Y20854   2.768   0.654   5.595  2.4067  0.2535  0.1807
  182POPC   C2320855   2.928   1.232   5.537 -0.0865 -0.2643 -0.3970
  182POPC   H3R20856   2.823   1.207   5.565 -0.7107  2.1677 -0.3597
  182POPC   H3S20857   2.978   1.134   5.527 -1.0097 -0.7899 -0.0299
  182POPC   C2420858   2.947   1.297   5.400  0.1790 -0.0213  0.3796
  182POPC   H4R20859   3.056   1.302   5.381  0.2696  1.4407  1.1361
  182POPC   H4S20860   2.913   1.402   5.411 -0.7779  0.0212 -2.2914
  182POPC   C2520861   2.872   1.217   5.291  0.2371  0.5049  0.3061
  182POPC   H5R20862   2.766   1.250   5.286  0.9105  3.1594  1.7951
  182POPC   H5S20863   2.879   1.110   5.319  3.8691  1.1149  2.3212
  182POPC   C2620864   2.949   1.242   5.158  0.1783 -0.2936 -0.4943
  182POPC   H6R20865   2.889   1.187   5.083 -0.0285  0.6821 -1.0598
  182POPC   H6S20866   3.048   1.192   5.160  0.8081  0.9353 -0.0725
  182POPC   C2720867   2.973   1.398   5.124  0.1300 -0.3753  0.3157
  182POPC   H7R20868   3.013   1.438   5.220 -2.4898 -2.0918  2.2588
  182POPC   H7S20869   2.872   1.443   5.112  0.3388 -0.3020 -1.4507
  182POPC   C2820870   3.073   1.410   5.004  0.1147  0.4267 -0.0997
  182POPC   H8R20871   3.155   1.336   5.015 -0.2180 -0.5045 -2.9653
  182POPC   H8S20872   3.127   1.506   5.013  0.8585 -0.0960  1.4369
  182POPC   C2920873   3.019   1.371   4.866 -0.1969  0.3114 -0.4759
  182POPC   H9120874   2.994   1.264   4.861  1.4694 -0.1334  0.2245
  182POPC  C21020875   3.013   1.449   4.755  0.2637 -0.2095  0.6555
  182POPC  H10120876   2.967   1.404   4.666  0.1445 -0.9419  1.0810
  182POPC  C21120877   3.052   1.592   4.735  0.2475  0.0196  0.4643
  182POPC  H11R20878   3.133   1.596   4.658  0.8699  0.5502  1.1319
  182POPC  H11S20879   3.084   1.655   4.821 -0.3602  0.7015  0.2056
  182POPC  C21220880   2.930   1.673   4.686 -0.1416 -0.0814 -1.0508
  182POPC  H12R20881   2.888   1.635   4.591 -1.6765 -2.2323  0.3997
  182POPC  H12S20882   2.952   1.781   4.673 -1.9184  0.1097 -3.0561
  182POPC  C21320883   2.806   1.677   4.779  0.2129 -0.1382  0.6190
  182POPC  H13R20884   2.833   1.685   4.886 -0.6126 -0.2914  0.8430
  182POPC  H13S20885   2.748   1.582   4.776  2.3495 -1.6976  3.3976
  182POPC  C21420886   2.718   1.798   4.741  0.2553  0.3353  0.1502
  182POPC  H14R20887   2.787   1.884   4.753  0.2370  0.3022  0.4993
  182POPC  H14S20888   2.630   1.804   4.809 -0.0394 -1.1258 -0.0759
  182POPC  C21520889   2.655   1.793   4.601 -0.4757 -0.7588  0.4556
  182POPC  H15R20890   2.569   1.723   4.592 -2.4793  1.7019 -0.7192
  182POPC  H15S20891   2.735   1.764   4.529  0.4099  2.9058 -0.2336
  182POPC  C21620892   2.600   1.928   4.558 -0.0616  0.9991 -0.1048
  182POPC  H16R20893   2.685   2.000   4.555  0.4953  0.4139  1.0747
  182POPC  H16S20894   2.518   1.960   4.627 -0.5559  0.8854 -0.6271
  182POPC  C21720895   2.543   1.930   4.419  0.3880 -0.9272 -0.1459
  182POPC  H17R20896   2.505   2.033   4.405  0.6622 -0.2315  3.3057
  182POPC  H17S20897   2.452   1.867   4.430 -0.6116  0.3756 -0.7047
  182POPC  C21820898   2.626   1.887   4.300  0.1319  0.2551  0.6442
  182POPC  H18R20899   2.719   1.946   4.292 -1.3741  3.0487  2.2232
  182POPC  H18S20900   2.559   1.891   4.211  0.5604  0.4114  0.3260
  182POPC  H18T20901   2.647   1.779   4.309 -0.0473  0.0592 -0.8986
  182POPC   C3320902   2.884   0.791   5.497  0.1774 -0.4270 -0.1592
  182POPC   H3X20903   2.958   0.708   5.496 -2.9690 -3.4808 -1.1686
  182POPC   H3Y20904   2.936   0.886   5.518 -0.0447 -0.6826  1.7441
  182POPC   C3420905   2.823   0.780   5.361  0.0312  0.3872 -0.3235
  182POPC   H4X20906   2.733   0.842   5.345 -0.9780 -0.8907  0.1773
  182POPC   H4Y20907   2.781   0.678   5.350  1.4748 -0.1370 -1.3594
  182POPC   C3520908   2.922   0.799   5.249 -0.0815  0.1517 -0.5821
  182POPC   H5X20909   3.018   0.750   5.273 -0.1071  0.4306  0.1204
  182POPC   H5Y20910   2.950   0.906   5.234  0.2886  0.3060  1.0578
  182POPC   C3620911   2.865   0.764   5.114  0.8473 -0.0070  0.2525
  182POPC   H6X20912   2.769   0.818   5.098 -0.7942 -2.9570 -0.6493
  182POPC   H6Y20913   2.836   0.657   5.101 -1.8045  0.6079  0.4758
  182POPC   C3720914   2.968   0.804   5.004  0.5136  0.0818 -0.4969
  182POPC   H7X20915   3.066   0.756   5.023 -0.6906 -1.8796  1.2615
  182POPC   H7Y20916   2.995   0.911   5.018  1.2283 -0.5053  3.9453
  182POPC   C3820917   2.917   0.784   4.866  0.0628 -0.2701 -0.0872
  182POPC   H8X20918   2.809   0.808   4.855  0.4089  2.9716  2.3377
  182POPC   H8Y20919   2.935   0.674   4.858 -1.5932 -0.5755 -0.0834
  182POPC   C3920920   2.991   0.856   4.759 -1.0241 -0.0249  0.3881
  182POPC   H9X20921   3.096   0.819   4.758 -1.0512 -0.2055 -2.4599
  182POPC   H9Y20922   3.002   0.965   4.777  2.2064 -0.2877  0.5948
  182POPC  C31020923   2.943   0.819   4.617 -0.0267 -0.2585 -0.0443
  182POPC  H10X20924   2.847   0.874   4.609 -0.8328 -1.3239  1.6774
  182POPC  H10Y20925   2.923   0.710   4.617 -1.3155 -0.0394  0.5211
  182POPC  C31120926   3.029   0.864   4.500 -0.1591  0.0707 -0.7190
  182POPC  H11X20927   3.116   0.795   4.491 -1.4006 -1.8938  1.1368
  182POPC  H11Y20928   3.067   0.967   4.517  0.4829  0.0218 -1.7722
  182POPC  C31220929   2.946   0.854   4.369  0.1949  0.2327  0.1576
  182POPC  H12X20930   2.841   0.874   4.400 -0.2621 -1.9296  0.1645
  182POPC  H12Y20931   2.959   0.752   4.326 -1.3761  0.2299 -0.3653
  182POPC  C31320932   2.996   0.948   4.250  0.2946  0.0226  0.2926
  182POPC  H13X20933   3.106   0.943   4.259  0.8373 -0.2462 -4.2649
  182POPC  H13Y20934   2.952   1.047   4.275  1.4278  0.9959 -1.4209
  182POPC  C31420935   2.962   0.907   4.110  0.2438  0.5745 -0.1649
  182POPC  H14X20936   2.851   0.899   4.107  0.1798  1.1253  0.5757
  182POPC  H14Y20937   2.995   0.802   4.100 -0.3167  0.5313 -2.0015
  182POPC  C31520938   3.007   0.995   3.991  0.6790  0.7517 -0.3964
  182POPC  H15X20939   3.109   0.964   3.961 -0.4554 -1.9236 -1.8537
  182POPC  H15Y20940   3.009   1.102   4.020 -0.4505  0.5524  0.5045
  182POPC  C31620941   2.916   0.977   3.865  0.4639 -0.7223 -0.0607
  182POPC  H16X20942   2.808   1.003   3.869  0.4743 -0.5521 -0.7545
  182POPC  H16Y20943   2.917   0.866   3.859  1.5066 -0.6860 -0.8996
  182POPC  H16Z20944   2.966   1.017   3.774  0.8298  0.4070  0.6289
  183POPC     N20945   2.856   6.314   6.117  0.0828  0.9429 -0.4874
  183POPC   C1220946   2.765   6.430   6.080 -0.2253 -0.2059  0.1738
  183POPC  H12A20947   2.751   6.492   6.167  0.6617 -0.9545  0.8646
  183POPC  H12B20948   2.674   6.378   6.052  0.4222 -0.8756 -0.7514
  183POPC   C1320949   2.891   6.232   5.996 -0.2697  0.4903 -0.4501
  183POPC  H13A20950   2.805   6.177   5.961 -0.5296  1.7955 -1.9363
  183POPC  H13B20951   2.922   6.299   5.918  2.0303  2.8103  2.2081
  183POPC  H13C20952   2.971   6.162   6.012 -0.6642  0.2879  0.8124
  183POPC   C1420953   2.981   6.362   6.177 -0.1865  0.2115  0.5584
  183POPC  H14A20954   3.031   6.425   6.105 -0.0792 -0.1492  0.3136
  183POPC  H14B20955   2.957   6.414   6.269 -0.8767  0.0696  0.4642
  183POPC  H14C20956   3.047   6.286   6.216 -0.1415 -0.2015 -0.3078
  183POPC   C1520957   2.790   6.221   6.215 -0.1418  0.0810  0.4112
  183POPC  H15A20958   2.705   6.172   6.171 -1.1239  0.2777  1.9999
  183POPC  H15B20959   2.770   6.279   6.304  1.8285  1.1008  0.2544
  183POPC  H15C20960   2.857   6.142   6.245  0.9933  1.0061  0.3955
  183POPC   C1120961   2.819   6.519   5.969 -0.0007  0.0367 -0.1904
  183POPC  H11A20962   2.828   6.463   5.873  1.1337 -1.4530  0.7442
  183POPC  H11B20963   2.925   6.540   5.996 -0.1305 -0.2362  0.5387
  183POPC     P20964   2.763   6.781   5.946  0.1133  0.1675  0.0959
  183POPC   O1320965   2.833   6.833   6.061 -0.1410  0.0090 -0.9530
  183POPC   O1420966   2.633   6.853   5.910 -0.6289  0.0149  0.0025
  183POPC   O1220967   2.728   6.630   5.969  0.4027  0.1767 -0.1102
  183POPC   O1120968   2.865   6.787   5.833 -0.3195  0.1788  0.0943
  183POPC    C120969   2.824   6.743   5.706 -0.5139 -0.7450 -0.2556
  183POPC    HA20970   2.751   6.815   5.664  1.5092  1.3632 -0.3912
  183POPC    HB20971   2.784   6.640   5.710  0.0139 -0.9100  1.6030
  183POPC    C220972   2.942   6.726   5.604 -1.1026 -0.1554  1.7561
  183POPC    HS20973   3.014   6.654   5.647  1.0172 -0.5013 -1.9994
  183POPC   O2120974   3.007   6.859   5.591 -0.2223 -0.0396 -0.2563
  183POPC   C2120975   3.132   6.858   5.528 -0.6148  0.6211 -0.3217
  183POPC   O2220976   3.201   6.760   5.537 -0.2250 -0.0475 -0.7820
  183POPC   C2220977   3.149   6.989   5.458 -0.1541 -0.1049 -0.9928
  183POPC   H2R20978   3.254   7.022   5.465  0.0142 -0.9568  1.1558
  183POPC   H2S20979   3.090   7.061   5.519  1.7139 -1.2836  2.4759
  183POPC    C320980   2.889   6.678   5.467 -0.3099  0.2957  0.0673
  183POPC    HX20981   2.802   6.739   5.435  0.4113 -0.0160 -2.7565
  183POPC    HY20982   2.869   6.569   5.477  0.1210  0.0732 -1.2152
  183POPC   O3120983   2.982   6.680   5.358  0.2395  0.2236 -0.0602
  183POPC   C3120984   3.071   6.577   5.344  0.8429 -0.0479  0.2505
  183POPC   O3220985   3.077   6.481   5.417 -0.5143  0.0250 -0.2349
  183POPC   C3220986   3.158   6.605   5.218  0.0791 -0.0601  0.2757
  183POPC   H2X20987   3.114   6.684   5.153  3.6816  1.9294 -0.0322
  183POPC   H2Y20988   3.166   6.513   5.157 -1.7185  0.7101 -1.2114
  183POPC   C2320989   3.094   6.974   5.311 -0.1517  1.2228  1.1635
  183POPC   H3R20990   2.986   6.998   5.309  0.4474  4.2548  0.4985
  183POPC   H3S20991   3.121   6.878   5.261  0.5537  1.2453  1.4832
  183POPC   C2420992   3.161   7.078   5.217 -0.3831 -0.2398 -0.2794
  183POPC   H4R20993   3.271   7.067   5.220 -0.3316 -0.5370 -2.3844
  183POPC   H4S20994   3.140   7.181   5.253  0.5300  0.6541 -2.2094
  183POPC   C2520995   3.116   7.066   5.069 -0.2344 -0.0289  0.7528
  183POPC   H5R20996   3.133   7.171   5.039 -1.0086  0.1292  0.8339
  183POPC   H5S20997   3.007   7.046   5.063 -0.1210 -0.3383 -0.6272
  183POPC   C2620998   3.196   6.950   5.000 -0.4893  0.7147  0.0097
  183POPC   H6R20999   3.177   6.850   5.043  1.4892 -0.0552 -0.7493
  183POPC   H6S21000   3.302   6.969   5.029 -0.4573 -1.0082  1.1275
  183POPC   C2721001   3.183   6.948   4.845 -0.2899 -0.0664  0.0627
  183POPC   H7R21002   3.208   7.046   4.800  0.5321 -1.2566 -2.2517
  183POPC   H7S21003   3.075   6.926   4.829 -0.1264  0.0231 -1.2925
  183POPC   C2821004   3.258   6.835   4.787  0.8123  0.4086 -0.1735
  183POPC   H8R21005   3.247   6.736   4.835  0.2151  0.9864  0.9284
  183POPC   H8S21006   3.367   6.854   4.799  0.1769  2.8264  3.2420
  183POPC   C2921007   3.238   6.822   4.634 -0.2309  0.2303  0.1417
  183POPC   H9121008   3.288   6.894   4.569 -0.9045 -1.4329 -2.3596
  183POPC  C21021009   3.149   6.739   4.575 -0.5461 -0.1231 -0.1335
  183POPC  H10121010   3.136   6.740   4.466 -0.5531  0.5388 -0.1319
  183POPC  C21121011   3.058   6.638   4.647 -0.2531 -0.0264 -0.1969
  183POPC  H11R21012   2.955   6.663   4.614 -0.1890  0.8962  0.2452
  183POPC  H11S21013   3.070   6.652   4.757  1.2385  0.1081 -0.3453
  183POPC  C21221014   3.101   6.489   4.623  1.0225 -0.8672 -0.6052
  183POPC  H12R21015   3.209   6.482   4.596  1.0033 -0.4524 -0.7962
  183POPC  H12S21016   3.041   6.447   4.540  0.8897 -2.2670  0.1723
  183POPC  C21321017   3.087   6.399   4.747  0.1357  0.0230  0.3757
  183POPC  H13R21018   2.989   6.421   4.794  0.5590  0.1279  1.2346
  183POPC  H13S21019   3.163   6.443   4.815 -1.7473  1.6912  1.4910
  183POPC  C21421020   3.089   6.243   4.740  0.2105  0.5585  0.7806
  183POPC  H14R21021   2.993   6.208   4.697  0.9970 -1.6501  0.6899
  183POPC  H14S21022   3.098   6.196   4.841  0.8591  1.8342  1.3327
  183POPC  C21521023   3.195   6.169   4.653 -0.3254 -1.0162  0.2563
  183POPC  H15R21024   3.301   6.192   4.677 -0.2873  2.8555 -2.7160
  183POPC  H15S21025   3.191   6.208   4.549  2.5019  1.1298  0.8279
  183POPC  C21621026   3.195   6.016   4.674  0.0208  0.0990  0.3389
  183POPC  H16R21027   3.096   5.967   4.657  1.1151 -1.7331 -1.2128
  183POPC  H16S21028   3.230   5.981   4.773 -1.1868  2.0265  1.5015
  183POPC  C21721029   3.287   5.945   4.569 -0.2800 -0.3054  0.5906
  183POPC  H17R21030   3.388   5.992   4.578 -0.0949 -0.0964 -1.8832
  183POPC  H17S21031   3.252   5.972   4.467 -0.0799 -0.1442  0.5638
  183POPC  C21821032   3.300   5.793   4.578  0.4700  0.5934 -0.1400
  183POPC  H18R21033   3.340   5.760   4.677 -3.0352 -1.0724  0.8819
  183POPC  H18S21034   3.370   5.760   4.498 -0.8024  1.4923 -1.6688
  183POPC  H18T21035   3.202   5.743   4.564  0.7263 -1.0577  2.9499
  183POPC   C3321036   3.303   6.648   5.244  0.4803 -0.5672  0.1778
  183POPC   H3X21037   3.349   6.574   5.313 -0.7370 -0.9613  0.5893
  183POPC   H3Y21038   3.309   6.752   5.283  0.0982 -0.0102 -1.1898
  183POPC   C3421039   3.393   6.645   5.119  0.2739  0.7394 -0.3391
  183POPC   H4X21040   3.480   6.711   5.141  0.9232 -0.4523  0.8114
  183POPC   H4Y21041   3.328   6.678   5.036 -0.1895 -0.8389 -0.6415
  183POPC   C3521042   3.452   6.506   5.089  0.1627 -0.4387  0.2310
  183POPC   H5X21043   3.379   6.427   5.063  0.6166 -0.6929 -0.2943
  183POPC   H5Y21044   3.495   6.462   5.181 -1.2780 -2.0758  0.1629
  183POPC   C3621045   3.553   6.498   4.976 -0.2896 -0.2231 -0.2650
  183POPC   H6X21046   3.613   6.405   4.987 -1.6929 -1.2736 -1.0541
  183POPC   H6Y21047   3.625   6.581   4.987 -0.2655 -0.4424  1.5825
  183POPC   C3721048   3.489   6.514   4.845 -0.6426  0.6367 -0.3731
  183POPC   H7X21049   3.466   6.622   4.832  1.6972  1.1446 -0.6415
  183POPC   H7Y21050   3.392   6.461   4.836  0.1325 -0.5913 -1.9858
  183POPC   C3821051   3.578   6.450   4.733  0.2204 -0.2835  1.2982
  183POPC   H8X21052   3.622   6.351   4.758 -1.0425 -1.4932 -0.9860
  183POPC   H8Y21053   3.660   6.523   4.715 -1.3839  0.7888 -2.7564
  183POPC   C3921054   3.507   6.433   4.598  0.3803 -0.9977  0.1885
  183POPC   H9X21055   3.446   6.525   4.588 -1.7101 -2.3451 -0.2679
  183POPC   H9Y21056   3.438   6.346   4.593  0.9375 -1.3960 -0.8936
  183POPC  C31021057   3.592   6.417   4.471  0.3075  0.4235 -0.1952
  183POPC  H10X21058   3.664   6.336   4.494 -0.4735 -0.1239  0.4043
  183POPC  H10Y21059   3.657   6.505   4.453  0.0949  0.1228 -2.8856
  183POPC  C31121060   3.507   6.378   4.346 -0.3225  0.3595 -0.2254
  183POPC  H11X21061   3.419   6.445   4.334 -0.9871 -0.3912  0.3616
  183POPC  H11Y21062   3.463   6.277   4.362  0.5940 -0.4968 -2.5687
  183POPC  C31221063   3.592   6.367   4.217  0.1114 -0.4104 -1.0892
  183POPC  H12X21064   3.529   6.311   4.143 -2.1105 -0.5256  0.7860
  183POPC  H12Y21065   3.683   6.309   4.244  0.6698 -0.5081 -2.9677
  183POPC  C31321066   3.613   6.507   4.162  0.1599  0.5811  0.2839
  183POPC  H13X21067   3.681   6.568   4.225  0.4333  0.1410  0.4163
  183POPC  H13Y21068   3.518   6.564   4.156 -0.3963 -0.2534  0.9332
  183POPC  C31421069   3.663   6.529   4.018 -0.1139  0.3160  0.0186
  183POPC  H14X21070   3.746   6.457   4.006 -0.5107 -0.0864 -0.3511
  183POPC  H14Y21071   3.718   6.623   3.992  1.5670 -0.9660 -1.2799
  183POPC  C31521072   3.576   6.478   3.898  0.7416 -0.1120 -1.0964
  183POPC  H15X21073   3.488   6.544   3.887  1.6022  1.4961  1.0223
  183POPC  H15Y21074   3.540   6.378   3.932 -0.8475  0.9377  0.4825
  183POPC  C31621075   3.647   6.465   3.762 -0.2841 -0.7252  0.1664
  183POPC  H16X21076   3.580   6.435   3.678 -0.4110 -0.2576  0.0995
  183POPC  H16Y21077   3.723   6.384   3.768 -1.3646 -1.8086 -0.2933
  183POPC  H16Z21078   3.710   6.555   3.747  0.0727 -1.1259 -0.8142
  184POPC     N21079   4.159   6.498   6.270 -0.8364 -0.5687 -0.5115
  184POPC   C1221080   4.173   6.555   6.135 -0.0556  0.5507 -0.0019
  184POPC  H12A21081   4.122   6.650   6.125  0.6724  0.8336 -1.2502
  184POPC  H12B21082   4.130   6.488   6.061  1.0547  0.3522 -0.4857
  184POPC   C1321083   4.252   6.382   6.296 -0.0462  0.1527  0.5080
  184POPC  H13A21084   4.357   6.405   6.286  0.0553 -0.7139 -0.5781
  184POPC  H13B21085   4.235   6.352   6.399 -0.3559 -0.2311  0.3486
  184POPC  H13C21086   4.225   6.307   6.224  0.0412 -2.2987  2.8778
  184POPC   C1421087   4.177   6.605   6.374  0.0822 -0.3564 -0.4736
  184POPC  H14A21088   4.152   6.580   6.476  2.8326  1.0605  0.6361
  184POPC  H14B21089   4.282   6.631   6.378  0.3169 -1.3245  0.0205
  184POPC  H14C21090   4.125   6.689   6.331 -0.2359 -1.3002 -2.0427
  184POPC   C1521091   4.018   6.440   6.278  0.2022  0.4778 -0.0063
  184POPC  H15A21092   3.954   6.524   6.256 -0.1756 -0.3984 -2.5066
  184POPC  H15B21093   4.015   6.400   6.378  1.9693  2.2491  0.8292
  184POPC  H15C21094   3.981   6.367   6.208 -0.0605  0.6489 -0.0491
  184POPC   C1121095   4.322   6.581   6.085 -0.1274  0.7377 -0.8478
  184POPC  H11A21096   4.310   6.587   5.975 -3.2855  1.6927 -0.5492
  184POPC  H11B21097   4.382   6.491   6.113 -2.4797 -0.9868 -1.0420
  184POPC     P21098   4.329   6.845   6.092 -0.2181 -0.1670 -0.1692
  184POPC   O1321099   4.392   6.950   6.170  0.1815  0.1539 -0.2441
  184POPC   O1421100   4.180   6.844   6.084  0.4072  0.2461 -1.2342
  184POPC   O1221101   4.379   6.703   6.138 -0.1269  0.0027 -0.3740
  184POPC   O1121102   4.388   6.854   5.950  0.1858  0.1011  0.3598
  184POPC    C121103   4.529   6.842   5.920  0.5434 -0.2215 -0.4880
  184POPC    HA21104   4.545   6.762   5.845  0.0210  0.9731 -1.9209
  184POPC    HB21105   4.588   6.820   6.012  1.8077 -1.8446 -1.6205
  184POPC    C221106   4.572   6.974   5.860  0.4430 -0.7554 -0.0139
  184POPC    HS21107   4.539   7.048   5.936 -1.4469 -1.9532  0.4091
  184POPC   O2121108   4.522   6.991   5.728  0.0500 -0.2407  0.0940
  184POPC   C2121109   4.424   7.073   5.709  0.4682 -0.1464 -0.4433
  184POPC   O2221110   4.368   7.142   5.793 -0.1331  0.5488 -0.3583
  184POPC   C2221111   4.393   7.083   5.561 -0.3634  0.1857  0.3590
  184POPC   H2R21112   4.456   7.010   5.506  0.9079  1.3596  0.2242
  184POPC   H2S21113   4.424   7.182   5.521  0.6631 -0.1584  0.2758
  184POPC    C321114   4.731   6.977   5.868  0.3789  0.0208  0.1898
  184POPC    HX21115   4.760   6.963   5.974 -2.5688 -0.3045  1.0430
  184POPC    HY21116   4.742   7.083   5.837 -4.4626  0.7223 -0.0289
  184POPC   O3121117   4.794   6.880   5.782  0.6345 -0.0474  0.2220
  184POPC   C3121118   4.890   6.939   5.709 -0.1439 -0.5756 -0.2236
  184POPC   O3221119   4.913   7.061   5.703 -0.6095 -0.1227 -0.4874
  184POPC   C3221120   4.972   6.839   5.627  0.2338  0.3693  0.4598
  184POPC   H2X21121   4.917   6.823   5.531 -0.4860  0.7199  0.8056
  184POPC   H2Y21122   4.972   6.738   5.674 -0.4625 -0.0707 -0.4253
  184POPC   C2321123   4.241   7.063   5.532 -0.2203 -0.2072 -0.3069
  184POPC   H3R21124   4.186   7.113   5.615  0.6265 -2.0195  1.4173
  184POPC   H3S21125   4.216   6.957   5.553 -0.9353  0.0820  0.3567
  184POPC   C2421126   4.186   7.109   5.400 -0.2027 -0.0463 -0.3895
  184POPC   H4R21127   4.274   7.153   5.349  0.8640 -0.2692  1.1993
  184POPC   H4S21128   4.109   7.188   5.412 -0.1741  0.2251 -1.7983
  184POPC   C2521129   4.112   7.005   5.315  0.5020 -0.4724 -0.1292
  184POPC   H5R21130   4.020   6.984   5.373  1.0295 -2.2177  0.1350
  184POPC   H5S21131   4.171   6.911   5.304  1.4745 -0.0326  1.0394
  184POPC   C2621132   4.080   7.055   5.173 -0.2232  0.8809 -0.7600
  184POPC   H6R21133   4.066   7.165   5.177 -2.1869  0.6643 -0.9529
  184POPC   H6S21134   3.983   7.022   5.130  0.0326  1.2496 -1.6388
  184POPC   C2721135   4.188   7.028   5.066 -0.1630  0.1267 -0.2348
  184POPC   H7R21136   4.215   6.920   5.065  2.1394  0.6252  1.7907
  184POPC   H7S21137   4.273   7.079   5.115 -0.7928  0.6881  0.2993
  184POPC   C2821138   4.172   7.077   4.919  0.6723  0.4180 -0.0363
  184POPC   H8R21139   4.131   7.178   4.939  2.2704  1.8741 -3.3484
  184POPC   H8S21140   4.080   7.035   4.872 -0.0855  2.3291 -0.3531
  184POPC   C2921141   4.299   7.077   4.833  0.3550  0.4483  0.4785
  184POPC   H9121142   4.390   7.074   4.894  0.1463  1.7742  0.8774
  184POPC  C21021143   4.305   7.082   4.697 -0.4285 -0.1081  0.6038
  184POPC  H10121144   4.400   7.112   4.652  0.6194  1.1838  3.4862
  184POPC  C21121145   4.182   7.077   4.606 -0.6064 -0.0614  0.5675
  184POPC  H11R21146   4.099   7.023   4.657 -0.8003  1.6954  2.2717
  184POPC  H11S21147   4.196   7.030   4.507 -0.3655 -0.3399  0.7316
  184POPC  C21221148   4.125   7.216   4.587 -0.4474  0.1073 -0.1064
  184POPC  H12R21149   4.105   7.266   4.684 -0.4827 -1.4241  0.7052
  184POPC  H12S21150   4.024   7.204   4.542 -1.5432 -0.4063  2.2931
  184POPC  C21321151   4.210   7.312   4.499  0.1936 -0.1273 -0.7103
  184POPC  H13R21152   4.314   7.309   4.538 -0.0986  0.4111  0.1472
  184POPC  H13S21153   4.173   7.415   4.516  0.2901  0.1137 -1.9224
  184POPC  C21421154   4.198   7.276   4.352  0.3293  0.0855  0.3789
  184POPC  H14R21155   4.096   7.238   4.329 -1.3647  4.7322 -0.9651
  184POPC  H14S21156   4.270   7.194   4.330  0.6481  1.0332 -2.5048
  184POPC  C21521157   4.234   7.393   4.248  0.3285  0.4303  0.0188
  184POPC  H15R21158   4.244   7.351   4.146 -2.1951  0.9531 -0.5148
  184POPC  H15S21159   4.328   7.447   4.272  0.9963 -1.2094  1.2842
  184POPC  C21621160   4.133   7.502   4.224 -0.1060  0.2042  0.6491
  184POPC  H16R21161   4.178   7.570   4.149 -0.8775 -1.9720 -1.9704
  184POPC  H16S21162   4.107   7.561   4.315 -1.2232 -0.2961  0.6713
  184POPC  C21721163   3.993   7.463   4.180  0.2676  0.0039  0.3851
  184POPC  H17R21164   3.946   7.386   4.245  0.8900 -1.6136 -0.9963
  184POPC  H17S21165   3.996   7.412   4.081  1.4845  1.5515 -0.4156
  184POPC  C21821166   3.902   7.580   4.163 -0.1697 -0.4569 -0.2642
  184POPC  H18R21167   3.836   7.574   4.073  1.9022 -2.2012 -1.7917
  184POPC  H18S21168   3.959   7.675   4.157  0.4216 -0.8403 -0.9452
  184POPC  H18T21169   3.830   7.593   4.247 -0.9364  1.4941 -1.1537
  184POPC   C3321170   5.113   6.889   5.591 -0.1311 -0.1985  0.0753
  184POPC   H3X21171   5.173   6.885   5.685 -1.1264  0.8708  0.7934
  184POPC   H3Y21172   5.109   6.996   5.561 -1.2976  0.4103  2.1855
  184POPC   C3421173   5.171   6.818   5.474 -0.0597 -0.1392 -0.0020
  184POPC   H4X21174   5.260   6.872   5.436  0.2381 -0.0130  0.8476
  184POPC   H4Y21175   5.089   6.817   5.398 -2.4303  1.9305  2.3184
  184POPC   C3521176   5.205   6.669   5.498  1.2725  0.0530  0.4444
  184POPC   H5X21177   5.143   6.631   5.582  0.5471 -1.0817 -0.5639
  184POPC   H5Y21178   5.307   6.655   5.538  2.0977 -0.6831 -1.7744
  184POPC   C3621179   5.193   6.577   5.379  0.1295  0.1088  0.6446
  184POPC   H6X21180   5.272   6.499   5.385  1.8357  1.5608 -1.3799
  184POPC   H6Y21181   5.238   6.631   5.293 -0.3928  2.1459  1.6002
  184POPC   C3721182   5.048   6.533   5.356  0.9039  0.1324 -0.2546
  184POPC   H7X21183   4.990   6.513   5.449 -0.0042  2.2784 -0.3139
  184POPC   H7Y21184   5.059   6.440   5.296 -0.4700 -0.4767  0.3892
  184POPC   C3821185   4.957   6.619   5.260 -0.6351 -0.0869 -0.5803
  184POPC   H8X21186   4.936   6.710   5.321 -4.0116 -0.8505 -0.4177
  184POPC   H8Y21187   4.854   6.582   5.246 -1.2221  1.0220  0.6571
  184POPC   C3921188   5.030   6.656   5.131 -0.1065  0.7750  0.3110
  184POPC   H9X21189   5.086   6.564   5.103  0.1900  0.8028  0.7987
  184POPC   H9Y21190   5.101   6.740   5.139 -0.3419  1.2007 -1.6474
  184POPC  C31021191   4.938   6.693   5.010  0.6811  0.2265 -0.2039
  184POPC  H10X21192   4.851   6.756   5.036 -1.5180 -1.1804 -3.5486
  184POPC  H10Y21193   4.889   6.600   4.975  0.4311  0.1277  0.3945
  184POPC  C31121194   5.020   6.746   4.888  0.0377  0.1958 -0.7270
  184POPC  H11X21195   5.084   6.662   4.855  0.5850  0.8457 -1.3376
  184POPC  H11Y21196   5.081   6.833   4.919 -1.3633  1.1774 -0.6292
  184POPC  C31221197   4.927   6.779   4.767 -0.2422 -0.0339 -0.4900
  184POPC  H12X21198   4.889   6.883   4.776 -1.2000 -0.5804  3.8727
  184POPC  H12Y21199   4.852   6.700   4.747 -0.2705 -0.2719  0.5432
  184POPC  C31321200   5.009   6.779   4.641 -0.0319 -0.3450  0.0815
  184POPC  H13X21201   5.066   6.685   4.621 -0.1942 -0.0582 -2.0069
  184POPC  H13Y21202   5.077   6.866   4.646 -0.9362  0.3836 -0.0986
  184POPC  C31421203   4.922   6.805   4.510  0.0990 -0.5843 -0.2920
  184POPC  H14X21204   4.867   6.902   4.520  0.2146 -0.7750  4.6737
  184POPC  H14Y21205   4.835   6.737   4.511 -1.3203  1.1491 -0.4622
  184POPC  C31521206   4.998   6.795   4.384 -0.0591 -0.1040 -0.3266
  184POPC  H15X21207   5.039   6.692   4.381 -0.9500 -0.4535 -0.7659
  184POPC  H15Y21208   5.075   6.875   4.382 -0.2949  0.1619  0.8753
  184POPC  C31621209   4.916   6.808   4.253  0.3274 -0.5648  0.0551
  184POPC  H16X21210   4.833   6.736   4.237 -1.7328  1.5868  0.3780
  184POPC  H16Y21211   4.964   6.795   4.154 -1.4753  1.7703 -1.2376
  184POPC  H16Z21212   4.874   6.911   4.254 -0.1728 -0.7103  2.8696
  185POPC     N21213   4.464   4.076   1.996 -0.8217 -0.1705  0.2510
  185POPC   C1221214   4.388   4.033   1.871  0.2976  0.6887  0.3558
  185POPC  H12A21215   4.428   4.068   1.777  1.0583  0.5261  0.6121
  185POPC  H12B21216   4.292   4.084   1.879 -0.0306  0.9560 -3.3492
  185POPC   C1321217   4.485   4.224   1.994 -0.4791 -0.0644  0.3982
  185POPC  H13A21218   4.386   4.266   1.984 -0.2370  0.1492 -1.4830
  185POPC  H13B21219   4.523   4.266   2.086 -0.5286  0.1257  0.3320
  185POPC  H13C21220   4.531   4.265   1.906 -3.8378  1.0550 -1.0100
  185POPC   C1421221   4.384   4.042   2.119  0.0189  0.4663  0.7613
  185POPC  H14A21222   4.287   4.089   2.121  0.3375  1.2099 -0.4218
  185POPC  H14B21223   4.367   3.937   2.135  1.1922  0.2881  0.9530
  185POPC  H14C21224   4.427   4.076   2.213 -0.1143  2.0153  0.2961
  185POPC   C1521225   4.600   4.021   2.010 -0.3064  0.0587  0.1508
  185POPC  H15A21226   4.598   3.916   1.988  1.6427  0.5701 -3.0500
  185POPC  H15B21227   4.639   4.046   2.108  2.3318  1.9945 -1.2749
  185POPC  H15C21228   4.679   4.063   1.949  0.8384 -0.7378  1.0386
  185POPC   C1121229   4.355   3.877   1.858  0.2610 -0.1183 -0.6917
  185POPC  H11A21230   4.280   3.861   1.777  0.9526  1.6256 -1.7365
  185POPC  H11B21231   4.309   3.847   1.955 -1.1895  0.7341 -1.0753
  185POPC     P21232   4.510   3.679   1.895  0.0182 -0.1191 -0.0090
  185POPC   O1321233   4.654   3.650   1.877  0.0814  0.6504 -0.3666
  185POPC   O1421234   4.417   3.580   1.846  0.0279  0.5065  0.2484
  185POPC   O1221235   4.475   3.810   1.820 -0.6968  0.6317  1.0099
  185POPC   O1121236   4.480   3.705   2.052 -0.0186 -0.0615  0.1264
  185POPC    C121237   4.411   3.625   2.144  0.9159 -0.3605 -0.5448
  185POPC    HA21238   4.306   3.614   2.110  1.0238  0.2644 -1.1015
  185POPC    HB21239   4.402   3.674   2.243 -0.8735  1.0023 -1.3156
  185POPC    C221240   4.482   3.493   2.172 -0.6795  0.4061 -0.2098
  185POPC    HS21241   4.500   3.457   2.068  0.8708  0.1026  0.1453
  185POPC   O2121242   4.385   3.412   2.243 -0.1190  0.6197  0.4705
  185POPC   C2121243   4.421   3.279   2.245  0.3231  0.0096 -0.2561
  185POPC   O2221244   4.529   3.242   2.196 -0.0187 -0.4462 -0.1556
  185POPC   C2221245   4.308   3.182   2.293  0.9589 -0.2626 -0.1954
  185POPC   H2R21246   4.252   3.155   2.201  3.4338 -0.4050 -1.7503
  185POPC   H2S21247   4.231   3.239   2.350 -0.8870 -3.6120  0.9124
  185POPC    C321248   4.612   3.517   2.251  0.7451 -0.3051  0.1305
  185POPC    HX21249   4.661   3.603   2.199 -0.8767  0.9451  0.5976
  185POPC    HY21250   4.687   3.436   2.243  1.4764  0.4707 -1.4959
  185POPC   O3121251   4.578   3.555   2.390  0.2360  0.3014 -0.1334
  185POPC   C3121252   4.602   3.468   2.479  0.2002  0.0053 -0.2175
  185POPC   O3221253   4.649   3.356   2.457 -0.4729  0.1317 -0.2003
  185POPC   C3221254   4.552   3.531   2.614  0.0582  0.1657 -0.2748
  185POPC   H2X21255   4.444   3.540   2.591  0.0201  0.0768 -0.1337
  185POPC   H2Y21256   4.608   3.626   2.624 -0.4779  0.4048  0.5692
  185POPC   C2321257   4.363   3.064   2.371  0.4690  0.2334 -0.2754
  185POPC   H3R21258   4.438   3.003   2.316 -1.9783 -1.5503 -1.8140
  185POPC   H3S21259   4.283   2.990   2.390  1.9015 -1.0547  1.0739
  185POPC   C2421260   4.411   3.090   2.522 -0.1382 -0.6030  0.5607
  185POPC   H4R21261   4.357   3.166   2.582  0.8244  0.4665  0.1042
  185POPC   H4S21262   4.512   3.131   2.501 -0.7309 -0.8820 -3.6845
  185POPC   C2521263   4.411   2.961   2.598 -0.2976  0.6104  0.7041
  185POPC   H5R21264   4.467   2.885   2.539 -1.1554  1.2505 -1.0132
  185POPC   H5S21265   4.304   2.935   2.614 -1.4977  2.9490 -2.5541
  185POPC   C2621266   4.478   2.987   2.738  0.6028 -0.4324 -0.0408
  185POPC   H6R21267   4.404   3.051   2.792  0.4496 -1.1928  0.6674
  185POPC   H6S21268   4.573   3.045   2.734 -1.3182  2.9918 -0.0559
  185POPC   C2721269   4.503   2.856   2.809 -0.0861  0.3963  0.3072
  185POPC   H7R21270   4.560   2.789   2.741 -0.1763 -1.1683  1.7184
  185POPC   H7S21271   4.400   2.814   2.801  1.0006 -2.0656 -4.8023
  185POPC   C2821272   4.555   2.858   2.955 -0.0374  0.1566 -0.3520
  185POPC   H8R21273   4.642   2.927   2.955  0.8221 -0.8674 -2.0720
  185POPC   H8S21274   4.591   2.753   2.964  3.0037  1.2093  1.3484
  185POPC   C2921275   4.460   2.896   3.069 -0.0181  0.9403  0.3403
  185POPC   H9121276   4.352   2.889   3.049 -0.6984  0.7158  3.5187
  185POPC  C21021277   4.495   2.922   3.191 -0.4483 -0.5357  0.5112
  185POPC  H10121278   4.410   2.947   3.257 -1.2529  0.4733 -0.8528
  185POPC  C21121279   4.635   2.924   3.252 -0.3550 -0.1535 -0.1331
  185POPC  H11R21280   4.672   3.024   3.281 -1.7404  0.3263  0.0519
  185POPC  H11S21281   4.707   2.885   3.177  1.0880  2.3154 -0.1230
  185POPC  C21221282   4.655   2.838   3.382 -0.0714 -0.0368  0.4118
  185POPC  H12R21283   4.644   2.732   3.351  4.1074 -0.3387 -0.5971
  185POPC  H12S21284   4.577   2.871   3.455  0.3288  2.8392 -0.3414
  185POPC  C21321285   4.793   2.858   3.456 -0.2113  0.3175 -0.3785
  185POPC  H13R21286   4.806   2.967   3.476  1.9484 -0.0258  0.3836
  185POPC  H13S21287   4.877   2.825   3.391  0.7247 -1.8682  1.8002
  185POPC  C21421288   4.792   2.788   3.591  0.0424 -0.5578  0.6377
  185POPC  H14R21289   4.697   2.798   3.648  0.7215  2.1945  1.4660
  185POPC  H14S21290   4.870   2.840   3.652  0.2737  1.8043 -1.5142
  185POPC  C21521291   4.831   2.642   3.595  0.6124 -0.7048  0.6130
  185POPC  H15R21292   4.939   2.634   3.568 -0.2362 -1.3232 -3.1612
  185POPC  H15S21293   4.794   2.585   3.507  2.3610 -1.9944  0.6473
  185POPC  C21621294   4.808   2.570   3.730  0.5456  0.1601 -0.1846
  185POPC  H16R21295   4.709   2.581   3.777  0.6073  0.9360 -0.2252
  185POPC  H16S21296   4.878   2.613   3.805  3.0939 -0.1338 -2.2519
  185POPC  C21721297   4.830   2.417   3.710 -0.3133 -0.0180 -0.0577
  185POPC  H17R21298   4.930   2.387   3.674 -1.0396 -3.8472  0.5729
  185POPC  H17S21299   4.754   2.374   3.641  1.0464 -2.8331  0.0404
  185POPC  C21821300   4.798   2.341   3.844  0.3014  0.2032  0.3787
  185POPC  H18R21301   4.784   2.235   3.815 -1.2223  0.0438  1.5917
  185POPC  H18S21302   4.707   2.387   3.888 -2.8769 -2.7984 -2.4422
  185POPC  H18T21303   4.881   2.341   3.917  1.3713  0.1413 -0.8012
  185POPC   C3321304   4.580   3.445   2.739  1.1799 -0.4097 -0.1277
  185POPC   H3X21305   4.685   3.468   2.767  1.4629 -0.9089 -0.7657
  185POPC   H3Y21306   4.570   3.336   2.721  2.3557 -0.5993  0.3027
  185POPC   C3421307   4.484   3.468   2.860  0.2672 -0.2640 -0.3554
  185POPC   H4X21308   4.378   3.471   2.826  0.3695 -3.8620 -1.3545
  185POPC   H4Y21309   4.510   3.564   2.909  0.7842 -0.4410 -0.2785
  185POPC   C3521310   4.489   3.352   2.961 -0.0906 -0.7272 -0.5706
  185POPC   H5X21311   4.585   3.332   3.013  0.5199  2.4364 -0.2630
  185POPC   H5Y21312   4.480   3.259   2.901 -0.4449 -1.7200  0.9552
  185POPC   C3621313   4.382   3.373   3.083  0.7572  0.3247  0.2000
  185POPC   H6X21314   4.284   3.387   3.031  1.0543  2.3799  0.1235
  185POPC   H6Y21315   4.397   3.479   3.113  1.4448  0.2593  0.1065
  185POPC   C3721316   4.396   3.268   3.195 -0.1114 -0.0595 -0.3810
  185POPC   H7X21317   4.500   3.265   3.232 -0.7931 -0.5414  1.6179
  185POPC   H7Y21318   4.382   3.167   3.151  0.4742 -0.4483  0.3046
  185POPC   C3821319   4.302   3.299   3.305  0.4926 -0.2514 -0.6944
  185POPC   H8X21320   4.196   3.304   3.271  0.1032 -0.0358  0.4864
  185POPC   H8Y21321   4.318   3.400   3.347  0.9117 -0.1883 -0.9976
  185POPC   C3921322   4.307   3.196   3.422 -0.0388 -0.0870 -0.5595
  185POPC   H9X21323   4.275   3.106   3.365  0.4330 -0.3641 -0.3937
  185POPC   H9Y21324   4.234   3.227   3.500  1.8845  2.6940  0.3004
  185POPC  C31021325   4.444   3.194   3.484  0.0416  0.1974 -0.4097
  185POPC  H10X21326   4.488   3.295   3.489 -0.0531  0.2142  0.2338
  185POPC  H10Y21327   4.514   3.120   3.439  0.5730 -0.5365  1.4962
  185POPC  C31121328   4.442   3.152   3.632  0.1491  0.2856 -0.3430
  185POPC  H11X21329   4.399   3.049   3.633 -1.9631  1.0263 -3.0354
  185POPC  H11Y21330   4.381   3.224   3.689 -2.0696  1.1424 -3.5248
  185POPC  C31221331   4.587   3.142   3.683  0.7441  0.1185 -0.0464
  185POPC  H12X21332   4.641   3.235   3.654  0.2651 -0.2987 -2.5212
  185POPC  H12Y21333   4.637   3.057   3.631  0.5306  0.3814 -0.6923
  185POPC  C31321334   4.594   3.119   3.832  0.2913  0.6397  0.0535
  185POPC  H13X21335   4.567   3.216   3.881  2.6658  0.2668  2.3306
  185POPC  H13Y21336   4.700   3.092   3.847  0.8340  0.4525 -3.4312
  185POPC  C31421337   4.513   2.993   3.885  0.4919 -0.0740 -0.1416
  185POPC  H14X21338   4.483   2.918   3.808 -1.8702  0.2551  0.3970
  185POPC  H14Y21339   4.420   3.037   3.926 -0.9983 -2.2354 -0.9895
  185POPC  C31521340   4.588   2.920   4.001 -0.3494  0.2984  0.0969
  185POPC  H15X21341   4.671   2.861   3.956 -0.3822  0.7526 -0.5799
  185POPC  H15Y21342   4.521   2.840   4.040  3.2063 -2.0572  1.8447
  185POPC  C31621343   4.642   2.999   4.111 -0.5807  0.1522 -0.0392
  185POPC  H16X21344   4.710   2.942   4.178  1.1015  0.8198 -1.1144
  185POPC  H16Y21345   4.572   3.049   4.182 -0.3040  0.4231  0.0432
  185POPC  H16Z21346   4.711   3.077   4.073  0.7759 -0.7855  0.3993
  186POPC     N21347   4.030   5.052   1.809  0.2963  0.2217 -0.1157
  186POPC   C1221348   4.092   5.030   1.953 -0.2398 -0.5659  0.5013
  186POPC  H12A21349   4.040   5.096   2.021  0.4467  0.1720  0.3317
  186POPC  H12B21350   4.192   5.070   1.943 -0.3032 -0.6406 -0.6433
  186POPC   C1321351   4.026   5.201   1.784 -0.1739 -0.1137  0.8421
  186POPC  H13A21352   3.951   5.243   1.849  1.7637  0.9136  2.5407
  186POPC  H13B21353   4.119   5.256   1.796  0.5944 -1.0249 -0.6406
  186POPC  H13C21354   3.999   5.227   1.683  0.7245  0.5796  0.7620
  186POPC   C1421355   4.117   4.986   1.706  0.4504 -0.4698  0.7530
  186POPC  H14A21356   4.112   4.878   1.703  0.2360 -0.4563  0.5607
  186POPC  H14B21357   4.089   5.015   1.606  0.6936 -0.9243  0.5497
  186POPC  H14C21358   4.223   5.000   1.719  0.7203 -0.5059 -1.0839
  186POPC   C1521359   3.887   4.992   1.804  0.5357 -0.5773  0.0938
  186POPC  H15A21360   3.830   5.020   1.716  1.9320  1.1761 -0.3051
  186POPC  H15B21361   3.828   5.023   1.889  0.2675  1.0875 -0.6659
  186POPC  H15C21362   3.890   4.885   1.814 -0.2967 -0.4065  2.6523
  186POPC   C1121363   4.104   4.886   2.014  0.2337 -1.2659  0.4421
  186POPC  H11A21364   4.003   4.841   2.026  0.1077 -1.0019  0.3829
  186POPC  H11B21365   4.139   4.917   2.115 -1.6138  1.4724  0.3256
  186POPC     P21366   4.338   4.793   1.965  0.0430  0.3951 -0.3646
  186POPC   O1321367   4.420   4.906   1.910  0.2393  0.4148  0.6855
  186POPC   O1421368   4.375   4.654   1.920  0.2819 -0.4137 -0.0637
  186POPC   O1221369   4.185   4.811   1.931 -0.0320  0.5397 -0.1303
  186POPC   O1121370   4.335   4.805   2.116  0.0412  0.3461  0.4828
  186POPC    C121371   4.452   4.797   2.193 -0.1328  0.2840 -0.3338
  186POPC    HA21372   4.421   4.833   2.294  0.9553 -1.0685  0.5298
  186POPC    HB21373   4.533   4.866   2.161  0.6309  0.7651  2.3297
  186POPC    C221374   4.503   4.650   2.211 -0.4208  0.1692 -0.3855
  186POPC    HS21375   4.530   4.610   2.111 -0.2751  1.2780 -0.8100
  186POPC   O2121376   4.389   4.580   2.278 -0.5000 -0.3446 -0.1444
  186POPC   C2121377   4.412   4.447   2.290  0.0975  0.5056 -0.1993
  186POPC   O2221378   4.496   4.385   2.231 -0.6376 -0.4899  0.1676
  186POPC   C2221379   4.302   4.384   2.376  0.6330 -0.2011 -0.1827
  186POPC   H2R21380   4.305   4.273   2.367  0.7708 -0.0985 -1.7184
  186POPC   H2S21381   4.201   4.404   2.334 -0.6390 -3.9107  0.7449
  186POPC    C321382   4.638   4.640   2.299 -0.3685  0.3009 -0.2817
  186POPC    HX21383   4.712   4.714   2.261 -0.3292  1.5267  2.0280
  186POPC    HY21384   4.682   4.540   2.275 -1.0958  0.2066 -1.2758
  186POPC   O3121385   4.623   4.666   2.442 -0.2339  0.3301  0.6828
  186POPC   C3121386   4.652   4.786   2.496 -0.6490 -0.2290 -0.2484
  186POPC   O3221387   4.701   4.878   2.436 -0.4954 -0.4831  0.5128
  186POPC   C3221388   4.623   4.775   2.643 -0.1061  0.6323 -0.3071
  186POPC   H2X21389   4.669   4.684   2.686  0.6057  1.2477  0.2558
  186POPC   H2Y21390   4.512   4.773   2.650 -0.1319  0.8151 -0.6382
  186POPC   C2321391   4.304   4.439   2.525  0.3702  0.6630 -0.2511
  186POPC   H3R21392   4.215   4.399   2.579  0.4566  1.2615  0.3413
  186POPC   H3S21393   4.276   4.546   2.531 -0.5977  0.3500  2.0522
  186POPC   C2421394   4.428   4.411   2.608  0.2537 -0.5305  0.8576
  186POPC   H4R21395   4.518   4.465   2.571 -1.4093  0.9944 -1.2470
  186POPC   H4S21396   4.442   4.301   2.613 -0.0820 -0.5232  3.6932
  186POPC   C2521397   4.412   4.471   2.748  0.5941 -0.2532  0.0230
  186POPC   H5R21398   4.316   4.442   2.797  0.6296 -0.7492 -0.1999
  186POPC   H5S21399   4.417   4.582   2.741 -0.2464 -0.0315  2.1051
  186POPC   C2621400   4.531   4.432   2.834  0.0264  0.5833  0.0615
  186POPC   H6R21401   4.609   4.509   2.813  0.1005  0.0093 -1.9977
  186POPC   H6S21402   4.568   4.328   2.824 -0.4953  0.1885  1.8147
  186POPC   C2721403   4.494   4.461   2.979 -0.2576 -0.6694 -0.4255
  186POPC   H7R21404   4.418   4.392   3.021  0.3315 -0.9953  0.1266
  186POPC   H7S21405   4.460   4.567   2.978  0.3306 -0.3898  2.0861
  186POPC   C2821406   4.617   4.453   3.071  0.0942 -0.8629  1.0515
  186POPC   H8R21407   4.644   4.558   3.098 -0.1529  0.9125 -4.4663
  186POPC   H8S21408   4.706   4.423   3.011 -1.2494 -1.5784 -0.6588
  186POPC   C2921409   4.596   4.368   3.193  0.1718 -0.1050 -0.1983
  186POPC   H9121410   4.541   4.420   3.272 -0.4328 -0.0945 -0.6179
  186POPC  C21021411   4.632   4.240   3.212  0.8815 -0.1132 -0.0542
  186POPC  H10121412   4.617   4.195   3.311 -1.8715 -0.0678 -0.3598
  186POPC  C21121413   4.712   4.161   3.108  0.1998  0.7140  0.2970
  186POPC  H11R21414   4.777   4.078   3.143 -0.3956 -0.8895 -2.0891
  186POPC  H11S21415   4.782   4.229   3.056 -1.9768 -0.1818 -4.3670
  186POPC  C21221416   4.622   4.100   3.001  0.4316 -0.4242 -0.3489
  186POPC  H12R21417   4.567   4.185   2.955 -1.0875 -0.6231  1.0294
  186POPC  H12S21418   4.546   4.036   3.050 -1.7894  1.4660 -1.1758
  186POPC  C21321419   4.694   4.020   2.896  0.0594 -0.0237  0.4982
  186POPC  H13R21420   4.757   3.942   2.944 -0.1240 -0.4740  0.0168
  186POPC  H13S21421   4.752   4.084   2.826 -0.5385 -1.2062 -1.1372
  186POPC  C21421422   4.605   3.918   2.800 -0.5825 -1.0753  0.3163
  186POPC  H14R21423   4.565   3.851   2.879 -1.7323  1.0591  1.6699
  186POPC  H14S21424   4.660   3.857   2.725 -0.0263  1.1925 -1.2285
  186POPC  C21521425   4.496   3.988   2.722  0.0978  0.4246  0.0279
  186POPC  H15R21426   4.536   4.065   2.653  0.8996 -0.7159 -0.8156
  186POPC  H15S21427   4.420   4.028   2.793 -1.1499  0.9114 -1.5283
  186POPC  C21621428   4.419   3.899   2.625  0.1506 -0.4976 -0.3591
  186POPC  H16R21429   4.359   3.831   2.690 -0.1452  0.5909  0.5532
  186POPC  H16S21430   4.496   3.842   2.569 -0.5968 -1.3089 -0.5787
  186POPC  C21721431   4.318   3.960   2.525 -0.2120  0.1193  0.6565
  186POPC  H17R21432   4.378   4.035   2.469 -0.0596  0.4082  1.2056
  186POPC  H17S21433   4.241   4.022   2.576 -0.9745  0.3241 -0.6862
  186POPC  C21821434   4.230   3.861   2.444 -0.3011 -0.2023  0.6339
  186POPC  H18R21435   4.149   3.916   2.392  1.5943 -0.0679 -2.4894
  186POPC  H18S21436   4.291   3.803   2.371 -1.4445 -0.3505 -0.2364
  186POPC  H18T21437   4.171   3.804   2.519 -1.4852  1.8586  1.3543
  186POPC   C3321438   4.682   4.894   2.724  0.0099  0.1434 -0.5712
  186POPC   H3X21439   4.654   4.991   2.677 -1.6132  0.5217  1.0650
  186POPC   H3Y21440   4.791   4.881   2.710  0.1750 -1.6155  1.7048
  186POPC   C3421441   4.642   4.883   2.874  0.3368 -0.1675  0.6068
  186POPC   H4X21442   4.624   4.780   2.910 -0.2185 -0.8452 -1.4916
  186POPC   H4Y21443   4.538   4.922   2.875  0.1610 -0.6255  0.2679
  186POPC   C3521444   4.733   4.959   2.974  0.0034  0.1418 -0.0149
  186POPC   H5X21445   4.728   5.068   2.954  2.0560  0.1432 -0.7557
  186POPC   H5Y21446   4.841   4.936   2.968 -0.0737 -1.4674  2.8430
  186POPC   C3621447   4.684   4.944   3.114 -0.4439 -0.1729 -0.2024
  186POPC   H6X21448   4.658   4.836   3.114  0.2814 -0.3557 -0.8479
  186POPC   H6Y21449   4.594   5.009   3.123 -1.0276 -0.9799 -0.0865
  186POPC   C3721450   4.789   4.970   3.224  0.3432 -0.1425 -0.2063
  186POPC   H7X21451   4.825   5.072   3.201 -0.8130  0.7442  1.6505
  186POPC   H7Y21452   4.864   4.888   3.227 -0.2867 -0.7489 -0.7174
  186POPC   C3821453   4.737   4.981   3.368 -0.6152 -0.4824  0.1998
  186POPC   H8X21454   4.663   4.904   3.396 -0.3577 -0.1712  1.8368
  186POPC   H8Y21455   4.677   5.075   3.376 -3.2004 -1.7578 -2.3254
  186POPC   C3921456   4.848   4.990   3.480  0.8961  0.2746  0.0262
  186POPC   H9X21457   4.910   5.082   3.474  1.2820  0.0330  0.2561
  186POPC   H9Y21458   4.918   4.904   3.481 -0.8994 -1.2810  1.2231
  186POPC  C31021459   4.775   4.988   3.614 -0.2704 -0.4738  0.0310
  186POPC  H10X21460   4.713   4.900   3.641  0.5337 -1.2749 -0.6645
  186POPC  H10Y21461   4.707   5.075   3.621  1.1560  0.7852 -0.9264
  186POPC  C31121462   4.874   5.022   3.736  0.3538  1.1586 -0.4425
  186POPC  H11X21463   4.805   5.046   3.819 -0.1466  1.3611 -0.9105
  186POPC  H11Y21464   4.940   5.109   3.717 -2.3820  4.3126  3.0690
  186POPC  C31221465   4.950   4.895   3.780  0.8283 -0.3071  1.0254
  186POPC  H12X21466   5.012   4.857   3.696  0.1299 -1.1970  0.8839
  186POPC  H12Y21467   4.890   4.804   3.806  0.2474 -0.7045 -1.4289
  186POPC  C31321468   5.050   4.930   3.882  0.0852  0.0080  0.3225
  186POPC  H13X21469   5.008   4.963   3.980  1.9588 -1.3622  1.6614
  186POPC  H13Y21470   5.115   5.011   3.841 -0.1110 -0.1084 -0.2302
  186POPC  C31421471   5.138   4.807   3.912 -0.0900  0.4824  0.2079
  186POPC  H14X21472   5.180   4.837   4.011 -1.3787 -0.1799  0.9825
  186POPC  H14Y21473   5.225   4.797   3.845  1.4227 -0.4264  2.1898
  186POPC  C31521474   5.073   4.673   3.935 -0.1076 -0.3486 -0.6034
  186POPC  H15X21475   5.062   4.618   3.840  0.3681 -1.1123 -0.2249
  186POPC  H15Y21476   4.976   4.686   3.989 -0.3187 -0.6996 -0.8963
  186POPC  C31621477   5.159   4.582   4.021 -0.0546  0.6792  0.2954
  186POPC  H16X21478   5.117   4.480   4.038  0.4051  0.1366 -1.4906
  186POPC  H16Y21479   5.192   4.629   4.115 -0.0996  1.8818 -0.2724
  186POPC  H16Z21480   5.253   4.568   3.963 -1.0144 -0.5043 -1.0581
  187POPC     N21481   4.015   1.223   1.815  0.1713  0.2489 -0.1155
  187POPC   C1221482   4.145   1.236   1.889  0.1195  0.2045 -0.1216
  187POPC  H12A21483   4.222   1.272   1.822 -0.2590  0.5118 -0.3977
  187POPC  H12B21484   4.170   1.139   1.928 -0.2314  0.4727  0.8232
  187POPC   C1321485   3.903   1.195   1.905  0.0492 -0.2587  0.2003
  187POPC  H13A21486   3.808   1.196   1.854 -0.6961  1.7055  1.5040
  187POPC  H13B21487   3.921   1.097   1.949  0.3961 -0.7268 -0.9431
  187POPC  H13C21488   3.918   1.274   1.978  1.5577  2.0526 -2.4259
  187POPC   C1421489   3.976   1.360   1.749  0.0014  0.8797  0.0540
  187POPC  H14A21490   3.951   1.433   1.825 -0.5228  1.0689 -0.2905
  187POPC  H14B21491   4.061   1.392   1.690 -1.3675 -1.9747 -3.8741
  187POPC  H14C21492   3.889   1.357   1.685 -1.3210 -0.7414  1.8138
  187POPC   C1521493   4.016   1.114   1.699 -0.1686 -0.0822 -0.5166
  187POPC  H15A21494   3.919   1.118   1.651 -0.9081  0.3784  0.9488
  187POPC  H15B21495   4.025   1.017   1.745 -0.9609 -1.1180 -2.4135
  187POPC  H15C21496   4.092   1.135   1.626 -0.4350  0.4853 -0.6413
  187POPC   C1121497   4.139   1.328   2.014 -0.2834 -0.5575  0.1936
  187POPC  H11A21498   4.238   1.311   2.061 -0.4054 -0.1509  0.6077
  187POPC  H11B21499   4.061   1.294   2.085 -0.2715 -0.3776  0.2919
  187POPC     P21500   4.243   1.546   1.933  0.1957 -0.4331 -0.0686
  187POPC   O1321501   4.188   1.598   1.802 -0.0695  0.5426 -0.2935
  187POPC   O1421502   4.363   1.462   1.920  0.3798 -0.3265 -0.5803
  187POPC   O1221503   4.125   1.468   1.998 -0.4658  0.1774  0.1501
  187POPC   O1121504   4.272   1.669   2.022  0.5540 -0.2889  0.0609
  187POPC    C121505   4.178   1.730   2.102 -0.2136  0.3302 -0.2073
  187POPC    HA21506   4.116   1.657   2.158 -1.1573  0.6819 -0.7792
  187POPC    HB21507   4.107   1.783   2.036 -3.0235  0.7239  2.8424
  187POPC    C221508   4.231   1.834   2.203  0.0069 -0.2500 -0.0512
  187POPC    HS21509   4.305   1.904   2.156  0.4833  0.8070  2.1239
  187POPC   O2121510   4.297   1.773   2.316  0.5873 -0.4065 -0.1195
  187POPC   C2121511   4.425   1.730   2.299  0.0747 -0.2771  0.2901
  187POPC   O2221512   4.489   1.735   2.196 -0.7160 -0.2456 -0.3833
  187POPC   C2221513   4.472   1.663   2.424 -0.2907  0.1054 -0.0939
  187POPC   H2R21514   4.419   1.569   2.447 -1.3939  0.1656 -2.1886
  187POPC   H2S21515   4.440   1.722   2.513 -2.5876  0.4686 -1.0986
  187POPC    C321516   4.103   1.924   2.247 -0.6277 -0.1865  0.2353
  187POPC    HX21517   4.010   1.866   2.265  0.0237 -0.6031  2.6887
  187POPC    HY21518   4.093   1.993   2.161 -1.0341 -1.0207 -0.3994
  187POPC   O3121519   4.132   2.001   2.360  0.2998 -0.6700 -0.1364
  187POPC   C3121520   4.037   2.073   2.409  0.3730 -0.4381  0.3733
  187POPC   O3221521   3.924   2.080   2.362 -0.2749 -0.0592  0.1103
  187POPC   C3221522   4.085   2.147   2.531 -0.1071  0.9983 -0.2839
  187POPC   H2X21523   4.154   2.226   2.495  0.4205  0.3596 -0.7218
  187POPC   H2Y21524   4.140   2.068   2.587 -2.3234 -1.0013 -0.7453
  187POPC   C2321525   4.628   1.640   2.411  0.1635 -0.8004  0.0431
  187POPC   H3R21526   4.683   1.736   2.393  0.5058 -1.6033 -4.1175
  187POPC   H3S21527   4.635   1.576   2.321 -1.1918 -1.9496  0.7209
  187POPC   C2421528   4.690   1.550   2.520  0.0171  0.4915 -0.8098
  187POPC   H4R21529   4.795   1.531   2.489 -0.1146 -1.3590 -0.2036
  187POPC   H4S21530   4.660   1.444   2.508  1.5847 -0.1555  0.5905
  187POPC   C2521531   4.693   1.598   2.663  0.3202  0.3468  0.9164
  187POPC   H5R21532   4.590   1.594   2.706  1.1704 -2.0098  2.9283
  187POPC   H5S21533   4.723   1.705   2.661 -0.1001  0.4609  0.0760
  187POPC   C2621534   4.779   1.498   2.747 -0.8122 -0.5090  0.5031
  187POPC   H6R21535   4.867   1.465   2.688 -1.0494 -1.6157  0.7349
  187POPC   H6S21536   4.724   1.401   2.739  1.2295 -1.6019 -1.0684
  187POPC   C2721537   4.813   1.552   2.883  1.2338 -0.1877  0.2350
  187POPC   H7R21538   4.720   1.557   2.943  1.1363  1.2566  0.0096
  187POPC   H7S21539   4.838   1.660   2.880 -0.6600  0.3489  1.5535
  187POPC   C2821540   4.912   1.461   2.955 -0.2396 -0.4703 -0.1045
  187POPC   H8R21541   4.991   1.430   2.884  0.5638 -2.0993  1.4052
  187POPC   H8S21542   4.855   1.367   2.975 -5.0488  1.4086 -3.1207
  187POPC   C2921543   4.977   1.524   3.076 -0.8103 -0.1539 -0.2029
  187POPC   H9121544   5.065   1.585   3.048 -0.2720 -0.7595  0.1351
  187POPC  C21021545   4.952   1.496   3.208 -0.5270  0.1361  0.2108
  187POPC  H10121546   5.019   1.537   3.286  0.6873 -0.4697 -0.4844
  187POPC  C21121547   4.842   1.407   3.258  0.3446  0.7925  0.0112
  187POPC  H11R21548   4.786   1.359   3.176  1.6058 -1.2300  0.2700
  187POPC  H11S21549   4.771   1.474   3.312  2.8271  4.4746 -0.8851
  187POPC  C21221550   4.894   1.310   3.358  0.1376 -0.4810  0.1113
  187POPC  H12R21551   4.947   1.366   3.438 -0.4345 -1.6470  1.3434
  187POPC  H12S21552   4.970   1.261   3.293  2.1827  2.3856  0.1352
  187POPC  C21321553   4.779   1.220   3.403 -0.3229  0.1925  0.4439
  187POPC  H13R21554   4.730   1.167   3.318  0.1156 -2.4688  1.7198
  187POPC  H13S21555   4.697   1.279   3.448 -0.1331 -1.9386  3.9025
  187POPC  C21421556   4.816   1.116   3.512 -0.0740 -0.3905 -0.9300
  187POPC  H14R21557   4.924   1.088   3.506  0.5965  1.9926 -1.0308
  187POPC  H14S21558   4.752   1.026   3.502  0.8176 -1.1680  0.1342
  187POPC  C21521559   4.794   1.160   3.658  0.2581 -0.1563 -0.1405
  187POPC  H15R21560   4.696   1.210   3.671  1.1782  1.8093 -0.4145
  187POPC  H15S21561   4.876   1.228   3.689  0.1994 -1.4773  3.4787
  187POPC  C21621562   4.789   1.033   3.758  0.4788 -0.7403 -0.7833
  187POPC  H16R21563   4.896   1.015   3.783  0.7119  1.7914  0.4080
  187POPC  H16S21564   4.751   0.945   3.702  1.2556 -1.3661 -0.3550
  187POPC  C21721565   4.701   1.059   3.885  0.1098 -0.0309 -0.0048
  187POPC  H17R21566   4.606   1.101   3.845  0.1167  0.1770  0.1988
  187POPC  H17S21567   4.762   1.121   3.953 -0.8842 -0.6032  1.4544
  187POPC  C21821568   4.676   0.934   3.960  0.1254  0.5219  0.4654
  187POPC  H18R21569   4.769   0.882   3.989 -1.3005 -1.6917  1.2806
  187POPC  H18S21570   4.631   0.855   3.896  0.7032  0.1064  0.5620
  187POPC  H18T21571   4.624   0.952   4.057  1.7557  3.8664  0.8580
  187POPC   C3321572   3.979   2.212   2.612 -0.0788 -0.3110 -0.1349
  187POPC   H3X21573   3.913   2.133   2.655  0.5321 -0.0934  1.2515
  187POPC   H3Y21574   3.917   2.283   2.552  0.4117  0.4868  0.2899
  187POPC   C3421575   4.028   2.310   2.721  0.6584 -0.4568  0.3219
  187POPC   H4X21576   4.059   2.403   2.669  2.1173 -1.9330 -1.6274
  187POPC   H4Y21577   4.120   2.269   2.769  0.6258 -1.1308 -0.1639
  187POPC   C3521578   3.907   2.326   2.813 -0.5901 -0.0776 -0.2715
  187POPC   H5X21579   3.860   2.232   2.848  0.0410 -0.1794  0.3143
  187POPC   H5Y21580   3.824   2.378   2.760 -1.3211 -1.8532 -0.9512
  187POPC   C3621581   3.945   2.408   2.939 -0.2968  0.3838 -0.8303
  187POPC   H6X21582   3.850   2.448   2.979  0.6722  1.3803  0.5851
  187POPC   H6Y21583   4.015   2.489   2.910 -0.2161  0.8543  0.5969
  187POPC   C3721584   4.004   2.323   3.055 -0.6307  0.3991 -0.4557
  187POPC   H7X21585   4.104   2.281   3.033  0.1343  0.2143  2.8381
  187POPC   H7Y21586   3.939   2.236   3.078 -0.1722  0.3494  0.7332
  187POPC   C3821587   4.016   2.405   3.190 -0.0122 -0.0177 -0.0311
  187POPC   H8X21588   3.915   2.447   3.208  0.5435  1.3559 -0.0007
  187POPC   H8Y21589   4.083   2.493   3.174  0.1593  0.3194  2.1792
  187POPC   C3921590   4.047   2.335   3.325  0.5603 -0.5536 -0.6422
  187POPC   H9X21591   4.150   2.293   3.318  0.4265 -0.8067 -1.1252
  187POPC   H9Y21592   3.972   2.255   3.337 -0.5571  0.6929  1.1791
  187POPC  C31021593   4.040   2.441   3.431  0.1423 -0.5886 -0.8183
  187POPC  H10X21594   3.947   2.501   3.443 -0.4222 -1.0189 -2.7757
  187POPC  H10Y21595   4.112   2.517   3.393  0.0677  0.4821  1.0480
  187POPC  C31121596   4.089   2.391   3.567 -0.5338 -0.3212  0.6782
  187POPC  H11X21597   4.098   2.476   3.638 -1.0648 -1.1580  1.8010
  187POPC  H11Y21598   4.189   2.349   3.546 -0.7359 -0.5246  0.1070
  187POPC  C31221599   3.993   2.289   3.620 -0.3393  0.1755  0.1812
  187POPC  H12X21600   4.035   2.249   3.715  0.4834  0.1801 -0.1748
  187POPC  H12Y21601   3.983   2.208   3.544 -0.0506  0.1999  0.1171
  187POPC  C31321602   3.857   2.352   3.652 -0.1232  0.4238  0.3410
  187POPC  H13X21603   3.778   2.284   3.693 -0.6194 -0.0682 -1.3445
  187POPC  H13Y21604   3.816   2.393   3.558  0.7760 -0.1036 -0.2916
  187POPC  C31421605   3.869   2.463   3.754 -0.1176  0.0387  0.5353
  187POPC  H14X21606   3.771   2.516   3.758 -0.5433 -0.4733 -1.6436
  187POPC  H14Y21607   3.938   2.543   3.722  0.2292 -0.1292  0.8609
  187POPC  C31521608   3.913   2.410   3.893  0.5241 -0.8231 -0.2925
  187POPC  H15X21609   4.016   2.369   3.892  1.3117  0.9705 -2.3090
  187POPC  H15Y21610   3.845   2.327   3.921  2.0434 -1.6997  0.8806
  187POPC  C31621611   3.900   2.510   4.005 -0.2887 -0.3674 -0.4744
  187POPC  H16X21612   3.939   2.462   4.098  0.6942  1.7748  0.2729
  187POPC  H16Y21613   3.797   2.548   4.025 -1.8194 -4.2440 -0.0287
  187POPC  H16Z21614   3.959   2.602   3.989 -0.9770 -0.0272 -1.0665
  188POPC     N21615   6.700   2.767   1.914  0.0015  0.3248 -0.5420
  188POPC   C1221616   6.808   2.865   1.897  0.5082 -0.0613  0.4833
  188POPC  H12A21617   6.868   2.843   1.810 -2.2000 -0.2060 -1.4957
  188POPC  H12B21618   6.878   2.851   1.978  0.5205  1.2897  0.7325
  188POPC   C1321619   6.749   2.627   1.933 -1.0194  0.1505  0.1828
  188POPC  H13A21620   6.791   2.592   1.840 -1.3837 -1.3776  0.5678
  188POPC  H13B21621   6.834   2.625   2.000  0.2519 -0.7583 -1.3942
  188POPC  H13C21622   6.668   2.559   1.952  0.4264 -1.5306  0.5706
  188POPC   C1421623   6.625   2.806   2.035  0.2804  0.0293 -0.4201
  188POPC  H14A21624   6.526   2.764   2.048 -1.3360  3.5588  0.0376
  188POPC  H14B21625   6.689   2.780   2.118  0.5632 -0.9058 -0.9249
  188POPC  H14C21626   6.616   2.914   2.028 -0.2866 -0.0161 -0.4288
  188POPC   C1521627   6.618   2.767   1.792  0.1778 -0.6115  0.3228
  188POPC  H15A21628   6.550   2.686   1.815 -2.9856  2.0453  1.1071
  188POPC  H15B21629   6.680   2.739   1.709 -1.1909 -1.8311 -0.3435
  188POPC  H15C21630   6.572   2.863   1.772  1.2227 -0.3836 -1.1853
  188POPC   C1121631   6.776   3.016   1.916 -0.5499  0.2376 -0.4722
  188POPC  H11A21632   6.691   3.041   1.848 -0.5320 -1.0176 -0.9853
  188POPC  H11B21633   6.859   3.064   1.860 -1.1784  0.8798 -0.8822
  188POPC     P21634   6.749   3.219   2.069  0.1271 -0.0444 -0.0644
  188POPC   O1321635   6.629   3.263   1.998 -0.0582  0.0601  0.4031
  188POPC   O1421636   6.877   3.272   2.032 -0.1458 -0.2171 -0.1961
  188POPC   O1221637   6.767   3.064   2.050  0.5680  0.0028  0.3587
  188POPC   O1121638   6.724   3.230   2.225 -0.4804 -0.5965 -0.0926
  188POPC    C121639   6.698   3.113   2.310 -0.5086 -0.5339 -0.2068
  188POPC    HA21640   6.722   3.139   2.415 -1.5557 -2.6252  0.6110
  188POPC    HB21641   6.774   3.036   2.285  1.0007 -0.1613  2.8453
  188POPC    C221642   6.550   3.075   2.301 -0.0169  0.5806  0.0408
  188POPC    HS21643   6.522   3.058   2.195 -1.1957  0.5784  0.3433
  188POPC   O2121644   6.477   3.202   2.335  0.9875  0.0831 -0.0790
  188POPC   C2121645   6.361   3.226   2.286 -0.0767 -0.5760 -1.0393
  188POPC   O2221646   6.285   3.152   2.223 -0.5138 -0.2394  0.0941
  188POPC   C2221647   6.321   3.358   2.353 -0.4027  0.5651  0.1198
  188POPC   H2R21648   6.404   3.429   2.329  0.7494 -0.3340  1.2869
  188POPC   H2S21649   6.324   3.339   2.463 -1.4029  2.1979  0.4746
  188POPC    C321650   6.503   2.950   2.378 -0.4544 -0.0986  0.2380
  188POPC    HX21651   6.548   2.863   2.326 -1.1217  0.7122 -1.7651
  188POPC    HY21652   6.395   2.929   2.367 -1.0209  2.2480  0.8000
  188POPC   O3121653   6.548   2.964   2.516 -0.2326  0.0580 -0.2520
  188POPC   C3121654   6.527   2.856   2.590 -0.2353 -0.4398  0.3739
  188POPC   O3221655   6.483   2.751   2.551 -0.0816  0.4328  0.0752
  188POPC   C3221656   6.569   2.879   2.733 -0.4467  0.1060 -0.2251
  188POPC   H2X21657   6.654   2.951   2.735  1.8972 -2.4113  3.3242
  188POPC   H2Y21658   6.606   2.782   2.773  0.2418  0.0901 -0.8512
  188POPC   C2321659   6.177   3.410   2.323  0.9568 -0.1351 -0.4313
  188POPC   H3R21660   6.101   3.333   2.347  0.7467 -0.4831 -2.0522
  188POPC   H3S21661   6.169   3.430   2.214  0.5941  0.8414 -0.2317
  188POPC   C2421662   6.151   3.543   2.407  0.0264  0.4434  0.0293
  188POPC   H4R21663   6.069   3.595   2.353 -0.3019  0.3744  0.4506
  188POPC   H4S21664   6.241   3.607   2.413 -0.7695  1.4772  1.8233
  188POPC   C2521665   6.113   3.520   2.555  0.7437  0.9632  1.2884
  188POPC   H5R21666   6.199   3.465   2.599  0.6135 -0.6176 -0.3312
  188POPC   H5S21667   6.030   3.447   2.563  1.3048  0.4864  3.4075
  188POPC   C2621668   6.089   3.648   2.631 -0.3189 -0.2802  0.1327
  188POPC   H6R21669   6.003   3.705   2.589  1.2219  0.3935 -2.3186
  188POPC   H6S21670   6.167   3.727   2.623  1.1990 -1.8462 -1.2966
  188POPC   C2721671   6.073   3.636   2.788 -0.8093  0.3017  0.2596
  188POPC   H7R21672   6.166   3.601   2.838 -0.3068  3.4063  1.7523
  188POPC   H7S21673   5.993   3.562   2.811  0.6291 -0.8803  1.7865
  188POPC   C2821674   6.022   3.771   2.845 -0.8123  0.6666  0.3578
  188POPC   H8R21675   5.935   3.796   2.780  1.2075 -1.4150 -3.4823
  188POPC   H8S21676   6.109   3.841   2.836  0.8468 -1.2864  0.5626
  188POPC   C2921677   5.983   3.749   2.991 -0.2770  0.6436 -0.4750
  188POPC   H9121678   5.930   3.654   3.011 -0.8990  1.2145  0.7010
  188POPC  C21021679   5.987   3.834   3.094 -0.5036  0.0558 -0.4640
  188POPC  H10121680   5.949   3.805   3.193  1.6308 -1.3089  0.0342
  188POPC  C21121681   6.037   3.984   3.089  0.2638  0.3449  0.0904
  188POPC  H11R21682   6.072   4.011   2.987 -0.6569  2.2061  0.2310
  188POPC  H11S21683   6.127   3.993   3.153  0.1699 -1.5226  0.5573
  188POPC  C21221684   5.943   4.098   3.135  0.3573  0.7080  0.5668
  188POPC  H12R21685   5.858   4.072   3.068  0.4595  0.8928  0.3648
  188POPC  H12S21686   5.978   4.194   3.092  1.5351 -0.9597 -2.5114
  188POPC  C21321687   5.903   4.101   3.287  0.5136 -0.0136 -0.3061
  188POPC  H13R21688   5.906   3.995   3.321 -2.1901 -0.3222 -0.8039
  188POPC  H13S21689   5.802   4.146   3.296  0.7761  0.6017 -0.4204
  188POPC  C21421690   5.996   4.171   3.384  0.0984 -0.3725  0.5119
  188POPC  H14R21691   5.939   4.181   3.478  1.2961 -0.9579  1.3305
  188POPC  H14S21692   6.008   4.279   3.365 -2.2839 -0.0332  0.6674
  188POPC  C21521693   6.130   4.101   3.411 -0.0789 -0.2231  0.3734
  188POPC  H15R21694   6.199   4.110   3.325 -0.0802 -1.5478  0.2209
  188POPC  H15S21695   6.119   3.991   3.422 -1.5726  0.1524  4.2343
  188POPC  C21621696   6.193   4.158   3.547  0.3293 -0.2414  0.1388
  188POPC  H16R21697   6.288   4.101   3.552 -1.1229 -2.7492  0.4701
  188POPC  H16S21698   6.135   4.130   3.637  1.5415 -0.5439  0.8550
  188POPC  C21721699   6.211   4.310   3.552  0.4604  0.0067 -0.5371
  188POPC  H17R21700   6.114   4.364   3.547  0.8974  0.9788  0.7469
  188POPC  H17S21701   6.263   4.329   3.456 -0.3435 -0.5514 -1.0990
  188POPC  C21821702   6.287   4.353   3.678  0.0061  0.0805  0.3229
  188POPC  H18R21703   6.308   4.462   3.684  1.5224 -0.2139  0.8156
  188POPC  H18S21704   6.385   4.301   3.687 -0.1749 -0.6858 -1.7598
  188POPC  H18T21705   6.229   4.325   3.769  0.0023 -2.1051 -0.2898
  188POPC   C3321706   6.455   2.931   2.821 -0.6288  0.3325 -0.4541
  188POPC   H3X21707   6.362   2.873   2.803  0.9377 -2.7220  0.6037
  188POPC   H3Y21708   6.426   3.036   2.800  0.0737  0.4968 -0.6246
  188POPC   C3421709   6.481   2.919   2.973  0.4553  0.0150  0.4187
  188POPC   H4X21710   6.546   3.003   3.005 -0.3666  0.6277  0.5253
  188POPC   H4Y21711   6.534   2.823   2.991  0.4781 -0.1995 -0.7322
  188POPC   C3521712   6.348   2.929   3.047 -0.3349  0.1972  0.3958
  188POPC   H5X21713   6.309   2.825   3.037  0.8265 -0.4098  1.6987
  188POPC   H5Y21714   6.275   2.998   3.001  0.3532 -0.7345 -2.2987
  188POPC   C3621715   6.369   2.970   3.190  0.5349 -0.2204 -0.4446
  188POPC   H6X21716   6.411   3.073   3.192  2.6877 -1.0202 -1.1543
  188POPC   H6Y21717   6.447   2.907   3.239  0.2492  0.4155  0.8868
  188POPC   C3721718   6.244   2.980   3.280 -0.5641  0.4657  0.1751
  188POPC   H7X21719   6.201   2.878   3.273 -1.3339  0.8770 -1.9919
  188POPC   H7Y21720   6.169   3.042   3.225 -1.8698 -1.9362 -0.9012
  188POPC   C3821721   6.270   3.026   3.424  0.4009 -0.3177 -0.1191
  188POPC   H8X21722   6.344   3.107   3.411  0.7656 -0.8367 -1.4165
  188POPC   H8Y21723   6.323   2.949   3.483  4.1844  2.0327 -0.1479
  188POPC   C3921724   6.145   3.089   3.497  0.2710  0.6237 -0.0394
  188POPC   H9X21725   6.107   3.168   3.430  1.4713  2.5501  1.4299
  188POPC   H9Y21726   6.174   3.142   3.590 -0.1352  0.8515 -0.0404
  188POPC  C31021727   6.047   2.981   3.513  0.7849  0.0665 -0.7879
  188POPC  H10X21728   6.083   2.915   3.595  0.3998 -0.3590 -0.9530
  188POPC  H10Y21729   6.036   2.921   3.420 -1.6164 -2.8673  1.1590
  188POPC  C31121730   5.912   3.046   3.557  0.0729 -0.2359 -0.2452
  188POPC  H11X21731   5.846   2.962   3.586 -3.2138  1.8116 -1.2667
  188POPC  H11Y21732   5.860   3.092   3.471 -1.4105  1.4926  1.5131
  188POPC  C31221733   5.909   3.151   3.668 -0.3235 -0.1596  0.1723
  188POPC  H12X21734   5.976   3.239   3.663  1.0268 -1.1719  0.0924
  188POPC  H12Y21735   5.945   3.095   3.757 -1.9856  0.0589  1.0368
  188POPC  C31321736   5.765   3.198   3.702 -0.0792  0.2487  0.2216
  188POPC  H13X21737   5.705   3.111   3.737  2.2162 -1.4802  0.0553
  188POPC  H13Y21738   5.722   3.254   3.616  1.8949 -1.0252 -1.7045
  188POPC  C31421739   5.762   3.311   3.810 -0.3511 -0.3826  0.4707
  188POPC  H14X21740   5.660   3.355   3.811  0.6980  2.2488  1.0739
  188POPC  H14Y21741   5.832   3.388   3.771 -0.7227 -0.7948 -1.0708
  188POPC  C31521742   5.815   3.267   3.953  0.2482  0.1242  0.0995
  188POPC  H15X21743   5.912   3.213   3.949 -0.9486 -2.0396 -1.8284
  188POPC  H15Y21744   5.740   3.202   4.003 -0.6348  0.0426 -1.2666
  188POPC  C31621745   5.835   3.402   4.041  0.3973  0.6351 -0.2489
  188POPC  H16X21746   5.903   3.375   4.124 -0.1535 -2.0917 -0.5731
  188POPC  H16Y21747   5.739   3.444   4.078  0.1695  1.3217 -1.5399
  188POPC  H16Z21748   5.876   3.483   3.977  1.5368 -0.3302 -0.7818
  189SAPI   C1221749   3.486   0.994   6.353  0.7301 -0.5216  0.0709
  189SAPI    H221750   3.453   0.921   6.276 -1.9618 -1.2975  1.7944
  189SAPI    O221751   3.366   1.064   6.388 -0.4217  0.2150  0.4572
  189SAPI   HO221752   3.350   1.137   6.327  0.2213  0.8279  1.0028
  189SAPI   C1321753   3.539   0.907   6.466  0.1741 -0.7969  0.1461
  189SAPI    H321754   3.632   0.860   6.427  0.7397 -0.6680  1.3125
  189SAPI    O321755   3.444   0.807   6.511  0.0870  0.2295  0.2921
  189SAPI   HO321756   3.483   0.726   6.478 -0.5763 -0.1588  0.4487
  189SAPI   C1421757   3.587   0.993   6.582 -0.3763 -0.2511  0.0534
  189SAPI    H421758   3.497   1.036   6.632  1.0525  0.3755  2.2246
  189SAPI    O421759   3.638   0.918   6.691 -0.8009 -0.5260 -0.6403
  189SAPI   HO421760   3.708   0.856   6.670 -1.9213 -2.1136  0.1325
  189SAPI   C1521761   3.690   1.103   6.535  0.4230  0.9181  0.5943
  189SAPI    H521762   3.774   1.043   6.492 -0.3787  0.9832 -1.1755
  189SAPI    O521763   3.740   1.175   6.649 -0.5310  0.2610  0.1419
  189SAPI   HO521764   3.836   1.183   6.644 -0.4569 -0.6486 -0.0261
  189SAPI   C1621765   3.636   1.187   6.418 -0.9790 -0.7295 -0.4271
  189SAPI    H621766   3.557   1.251   6.463  1.4293  1.0695  1.5396
  189SAPI    O621767   3.740   1.270   6.368 -0.8468  0.0019  0.1164
  189SAPI   HO621768   3.820   1.218   6.374 -1.2362 -0.5749  0.3472
  189SAPI   C1121769   3.580   1.102   6.302 -0.4245 -0.0174  0.8353
  189SAPI    H121770   3.667   1.045   6.262 -0.4734 -0.1636  0.9370
  189SAPI     P21771   3.551   1.122   6.036 -0.3801 -0.0030 -0.1599
  189SAPI   O1321772   3.450   1.164   5.937 -0.5376  0.4036  0.3176
  189SAPI   O1421773   3.589   0.977   6.037  0.3726 -0.2768 -0.3285
  189SAPI   O1221774   3.523   1.179   6.193  0.3574 -0.0972 -0.0029
  189SAPI   O1121775   3.700   1.184   6.003 -0.1710 -0.1210 -0.7158
  189SAPI    C121776   3.802   1.108   5.943  0.5833  0.7295  0.5000
  189SAPI    HA21777   3.829   1.019   6.004  2.2589 -0.1259 -1.4036
  189SAPI    HB21778   3.770   1.064   5.846  0.0193  0.3012  0.8693
  189SAPI    C221779   3.927   1.190   5.921 -0.6342 -0.2526  0.5594
  189SAPI    HS21780   3.939   1.251   6.013 -1.6647  2.8874 -1.2288
  189SAPI   O2121781   3.899   1.285   5.817 -0.2968 -0.0043  0.4739
  189SAPI   C2121782   3.995   1.377   5.801  0.8262 -0.1886  1.2182
  189SAPI   O2221783   4.084   1.401   5.884 -0.3731  0.2716  0.1253
  189SAPI   C2221784   3.983   1.423   5.651 -0.2128  1.0724 -0.1627
  189SAPI   H2R21785   4.055   1.355   5.602 -1.1251 -0.6227  0.7381
  189SAPI   H2S21786   3.881   1.393   5.617 -0.2995  0.5716  0.5050
  189SAPI    C321787   4.055   1.101   5.888 -0.3115 -0.1118  0.1841
  189SAPI    HX21788   4.072   1.047   5.983  1.3873 -4.0017 -2.0995
  189SAPI    HY21789   4.144   1.165   5.870  1.2311 -1.7997  1.4438
  189SAPI   O3121790   4.022   1.003   5.784  0.0212  0.0939  0.0773
  189SAPI   C3121791   4.054   1.028   5.667  0.7675 -0.0654  0.2962
  189SAPI   O3221792   4.136   1.108   5.623 -0.1300 -0.0730  0.6640
  189SAPI   C3221793   3.950   0.953   5.580  0.0070  0.8449  0.2531
  189SAPI   H2X21794   3.852   0.990   5.617 -0.7671 -0.5439 -0.3668
  189SAPI   H2Y21795   3.948   0.844   5.600 -0.8247  0.6538 -0.8072
  189SAPI   C2321796   4.006   1.576   5.640  0.4816 -0.4266 -0.0130
  189SAPI   H3R21797   4.107   1.601   5.679  0.5244  0.0072 -0.3922
  189SAPI   H3S21798   3.932   1.631   5.702  1.2902  0.6704  0.0126
  189SAPI   C2421799   3.976   1.614   5.495  0.1361  0.1081  0.0921
  189SAPI   H4R21800   3.976   1.724   5.482 -4.0752  0.1426 -0.9582
  189SAPI   H4S21801   3.874   1.586   5.462  0.5389 -1.0674 -0.2277
  189SAPI   C2521802   4.082   1.557   5.400 -0.1122 -0.6936  0.0168
  189SAPI   H5R21803   4.184   1.590   5.425 -0.3774  0.3538 -0.2027
  189SAPI   C2621804   4.055   1.487   5.289 -0.0734  0.2107 -0.5239
  189SAPI   H6R21805   4.142   1.456   5.229  0.0984 -1.4638  0.5132
  189SAPI   C2721806   3.920   1.446   5.242 -0.7612 -0.5199 -0.6833
  189SAPI   H7R21807   3.861   1.407   5.328 -1.5100 -0.8942 -1.3380
  189SAPI   H7S21808   3.933   1.350   5.186  0.2968 -1.4933  1.1505
  189SAPI   C2821809   3.850   1.548   5.151  0.3922 -0.1601  0.3763
  189SAPI   H8R21810   3.765   1.593   5.205 -0.5257  0.2834 -1.3543
  189SAPI   C2921811   3.886   1.588   5.025  0.3815 -0.1597  0.3876
  189SAPI   H9R21812   3.829   1.671   4.979  2.3563  0.2570 -1.4562
  189SAPI  C21021813   4.017   1.562   4.956  0.4303  0.2082 -0.6504
  189SAPI  H10R21814   4.101   1.542   5.026  0.2521 -0.5783 -0.6569
  189SAPI  H10S21815   4.038   1.651   4.893 -2.1718  0.1242 -1.7823
  189SAPI  C21121816   4.008   1.445   4.867  0.5167  0.6340 -0.1017
  189SAPI  H11R21817   4.067   1.360   4.904  0.8194  0.9549  0.1618
  189SAPI  C21221818   3.936   1.435   4.751 -1.1177 -0.3586 -0.3045
  189SAPI  H12R21819   3.941   1.339   4.698  1.9395 -0.0703 -0.7082
  189SAPI  C21321820   3.848   1.534   4.693  0.6344 -0.1619 -0.4462
  189SAPI  H13R21821   3.789   1.586   4.772  0.9703 -1.6930  0.8407
  189SAPI  H13S21822   3.772   1.480   4.633 -0.9614  1.6874 -0.2046
  189SAPI  C21421823   3.926   1.636   4.611  0.5293 -0.5141  0.5176
  189SAPI  H14R21824   3.995   1.703   4.664  1.6437 -0.5728 -0.8032
  189SAPI  C21521825   3.915   1.651   4.477  0.3707  0.3938 -0.2712
  189SAPI  H15R21826   3.983   1.719   4.425  0.0423  0.3274 -0.7953
  189SAPI  C21621827   3.825   1.576   4.376 -0.3489  0.4348  0.4760
  189SAPI  H16R21828   3.739   1.530   4.429  0.1419 -1.2571 -0.1343
  189SAPI  H16S21829   3.882   1.485   4.348 -0.8862 -0.8857  3.2919
  189SAPI  C21721830   3.757   1.666   4.269 -0.6672 -0.7619 -0.1276
  189SAPI  H17R21831   3.686   1.610   4.205 -1.2116 -0.7847  0.4827
  189SAPI  H17S21832   3.831   1.704   4.196 -2.3599  1.8646 -0.5948
  189SAPI  C21821833   3.679   1.785   4.334  0.1791 -0.3754 -0.2333
  189SAPI  H18R21834   3.741   1.826   4.417  0.1535  0.4011 -0.5868
  189SAPI  H18S21835   3.592   1.740   4.387 -0.3917  0.4534 -0.4476
  189SAPI  C21921836   3.642   1.895   4.229  0.0870  0.2067 -0.6162
  189SAPI  H19R21837   3.568   1.846   4.162 -0.2127  0.8966 -0.7996
  189SAPI  H19S21838   3.726   1.918   4.160 -2.2517 -0.1613 -3.8104
  189SAPI  C22021839   3.581   2.023   4.283 -0.1549 -0.6965 -0.6774
  189SAPI  H20R21840   3.637   2.063   4.370  2.4751 -0.7945 -2.2075
  189SAPI  H20S21841   3.476   1.997   4.311 -0.5364 -0.7853 -2.1189
  189SAPI  H20T21842   3.578   2.085   4.190  3.7235 -0.1856 -0.6192
  189SAPI   C3321843   3.964   0.988   5.431  0.9848 -0.3777 -0.5283
  189SAPI   H3X21844   3.969   1.094   5.399  3.5820 -1.3163 -3.8263
  189SAPI   H3Y21845   3.865   0.953   5.395  0.2202 -0.6671  1.6999
  189SAPI   C3421846   4.083   0.926   5.359  0.1373 -0.7749  0.5153
  189SAPI   H4X21847   4.059   0.821   5.333 -0.9321 -0.2838 -0.5895
  189SAPI   H4Y21848   4.173   0.930   5.425  2.2980 -0.2747 -2.2923
  189SAPI   C3521849   4.128   0.998   5.222 -0.0627 -0.3148  0.1016
  189SAPI   H5X21850   4.218   0.947   5.181  1.6155  1.4185  1.4668
  189SAPI   H5Y21851   4.168   1.095   5.258  0.3748 -0.8226  1.0067
  189SAPI   C3621852   4.020   1.020   5.116 -0.2086  0.0317 -0.0939
  189SAPI   H6X21853   3.934   1.080   5.153  0.1201  0.1231  0.5325
  189SAPI   H6Y21854   3.968   0.928   5.084  1.4041 -1.1058  0.4384
  189SAPI   C3721855   4.066   1.102   4.995  0.1849 -0.1345  0.4490
  189SAPI   H7X21856   4.120   1.191   5.032  2.5967 -1.5157  0.4892
  189SAPI   H7Y21857   3.976   1.138   4.941  2.0510  0.8330 -2.2421
  189SAPI   C3821858   4.149   1.021   4.892  0.7119 -0.0256 -0.2756
  189SAPI   H8X21859   4.087   0.932   4.872  0.1955  0.1390  0.5529
  189SAPI   H8Y21860   4.243   0.984   4.938  0.7950 -0.6954 -0.9582
  189SAPI   C3921861   4.195   1.113   4.779 -0.3616  0.2498  0.0387
  189SAPI   H9X21862   4.245   1.204   4.819  0.7692 -0.4294  0.1978
  189SAPI   H9Y21863   4.108   1.152   4.721  0.7363 -0.8323 -2.5141
  189SAPI  C31021864   4.295   1.051   4.677  0.2476  0.0272  0.2087
  189SAPI  H10X21865   4.234   0.964   4.643 -0.9271  1.4066 -1.3812
  189SAPI  H10Y21866   4.390   1.014   4.721 -0.1182 -0.5556  0.5172
  189SAPI  C31121867   4.333   1.146   4.561 -0.0701  0.3725  0.2886
  189SAPI  H11X21868   4.385   1.239   4.594 -0.9068  1.5287 -1.5119
  189SAPI  H11Y21869   4.235   1.173   4.517 -0.6320 -0.3347  1.0652
  189SAPI  C31221870   4.417   1.079   4.452  0.1397 -0.0421  0.2869
  189SAPI  H12X21871   4.376   0.978   4.429  2.2390 -0.9964  0.5511
  189SAPI  H12Y21872   4.517   1.055   4.493  0.5453 -1.3038 -1.3425
  189SAPI  C31321873   4.404   1.155   4.319 -0.1027  0.5963 -1.0461
  189SAPI  H13X21874   4.298   1.163   4.285 -0.6756  0.8004  0.7014
  189SAPI  H13Y21875   4.456   1.109   4.232 -4.3912 -0.7944 -3.1747
  189SAPI  C31421876   4.455   1.301   4.329  0.7400  0.0047  0.0789
  189SAPI  H14X21877   4.379   1.359   4.386  0.3147  2.3805 -2.6469
  189SAPI  H14Y21878   4.455   1.357   4.233  1.0220 -0.0153  0.0674
  189SAPI  C31521879   4.597   1.327   4.387 -0.3209  0.2778 -0.4051
  189SAPI  H15X21880   4.608   1.288   4.490 -2.3803  2.2748  0.6574
  189SAPI  H15Y21881   4.616   1.437   4.393  0.3202  0.2418 -1.4142
  189SAPI  C31621882   4.702   1.257   4.292 -0.3766 -0.4499 -0.4078
  189SAPI  H16X21883   4.709   1.303   4.191 -0.8251  0.8840  0.1458
  189SAPI  H16Y21884   4.668   1.153   4.276 -0.5202 -0.6636  1.2131
  189SAPI  C31721885   4.841   1.261   4.350  0.1890 -0.3545 -0.5761
  189SAPI  H17X21886   4.850   1.213   4.450 -0.5156 -1.0450 -0.8368
  189SAPI  H17Y21887   4.875   1.367   4.362  0.7017 -0.8479  5.1825
  189SAPI  C31821888   4.936   1.190   4.253  0.6064 -0.1853 -0.2913
  189SAPI  H18X21889   4.920   1.233   4.152 -0.6533  0.0538 -0.0057
  189SAPI  H18Y21890   4.922   1.080   4.241 -0.2438  0.1147 -2.5318
  189SAPI  H18Z21891   5.042   1.206   4.280  0.7795  0.0166 -1.0675
  190SAPI   C1221892   4.630   0.398   6.433  0.0891 -0.0895 -0.3124
  190SAPI    H221893   4.719   0.447   6.477 -0.4603  0.4021  0.2791
  190SAPI    O221894   4.588   0.303   6.525  0.3061 -0.3623 -0.0507
  190SAPI   HO221895   4.664   0.287   6.581  0.5706  0.4531 -0.1673
  190SAPI   C1321896   4.529   0.502   6.402  0.1991 -0.7686 -0.3055
  190SAPI    H321897   4.575   0.561   6.320 -1.1880 -1.2917 -1.5085
  190SAPI    O321898   4.503   0.590   6.518 -0.2540  0.3255 -1.2569
  190SAPI   HO321899   4.464   0.538   6.588 -0.7354  0.5452 -1.3559
  190SAPI   C1421900   4.407   0.446   6.345 -0.0777  0.6980  0.2053
  190SAPI    H421901   4.366   0.379   6.423  1.5542 -0.5416  0.0724
  190SAPI    O421902   4.307   0.548   6.327 -0.5872  0.7020  0.2814
  190SAPI   HO421903   4.247   0.522   6.256 -1.9049 -0.3971  1.7221
  190SAPI   C1521904   4.442   0.374   6.210 -0.5273  0.7249 -0.1268
  190SAPI    H521905   4.484   0.454   6.147  0.8033  1.6439  1.8435
  190SAPI    O521906   4.327   0.326   6.149  0.1537  0.3199  0.2870
  190SAPI   HO521907   4.351   0.240   6.113  1.8950  1.4018 -1.3381
  190SAPI   C1621908   4.553   0.274   6.224 -0.7499 -0.1712 -0.1624
  190SAPI    H621909   4.512   0.190   6.285 -1.2739  0.4723  0.3775
  190SAPI    O621910   4.598   0.230   6.093  0.4622  0.1868 -0.3049
  190SAPI   HO621911   4.620   0.137   6.098 -2.4109 -0.5893  0.0875
  190SAPI   C1121912   4.672   0.336   6.293  0.1461  0.1777  1.1370
  190SAPI    H121913   4.706   0.423   6.233  2.4388 -0.6374  1.1373
  190SAPI     P21914   4.936   0.286   6.321  0.4335 -0.0207  0.4492
  190SAPI   O1321915   5.020   0.168   6.339  0.6075 -0.1837  0.6673
  190SAPI   O1421916   4.952   0.383   6.430 -0.1285 -0.5114  0.5409
  190SAPI   O1221917   4.776   0.240   6.317  0.0136  0.4862 -0.0877
  190SAPI   O1121918   4.956   0.342   6.180 -0.4287 -0.1600 -0.2564
  190SAPI    C121919   5.036   0.454   6.147 -0.2128  0.8614 -0.3329
  190SAPI    HA21920   5.129   0.453   6.207 -0.3031  0.3721 -0.1939
  190SAPI    HB21921   5.067   0.466   6.041  0.4281  3.5404  0.0940
  190SAPI    C221922   4.950   0.579   6.171  0.3142 -0.3838 -0.7679
  190SAPI    HS21923   4.892   0.550   6.262 -2.5880  1.3246 -1.9265
  190SAPI   O2121924   4.859   0.593   6.057 -0.5678 -0.3864 -0.5672
  190SAPI   C2121925   4.749   0.666   6.081 -0.2207 -0.2767 -0.3582
  190SAPI   O2221926   4.713   0.715   6.185 -0.3494 -0.7213  0.0693
  190SAPI   C2221927   4.657   0.651   5.961 -0.0640  0.6860  0.3254
  190SAPI   H2R21928   4.711   0.652   5.863 -1.8318 -1.4991 -0.7662
  190SAPI   H2S21929   4.622   0.547   5.970 -0.0811  0.3425 -2.6632
  190SAPI    C321930   5.029   0.713   6.193  0.8278  0.6426 -0.5406
  190SAPI    HX21931   5.096   0.693   6.279 -0.5107  0.8374  0.5835
  190SAPI    HY21932   4.963   0.799   6.217  3.7673  3.1211 -0.7301
  190SAPI   O3121933   5.107   0.742   6.074 -0.6800  0.4148 -0.8028
  190SAPI   C3121934   5.060   0.826   5.986  0.7423  0.0055  0.1312
  190SAPI   O3221935   4.947   0.871   5.979 -0.0170 -0.1510 -0.1322
  190SAPI   C3221936   5.156   0.837   5.880  0.1440 -0.1692 -0.5402
  190SAPI   H2X21937   5.256   0.858   5.924  0.9653 -0.2922 -2.2964
  190SAPI   H2Y21938   5.142   0.931   5.822 -0.5835 -0.4832 -0.8791
  190SAPI   C2321939   4.543   0.761   5.968 -0.4107 -0.2306 -0.0317
  190SAPI   H3R21940   4.595   0.859   5.969  1.2692 -1.0425 -1.6812
  190SAPI   H3S21941   4.494   0.747   6.067 -0.4985  2.0666  0.3114
  190SAPI   C2421942   4.447   0.760   5.848  0.6267  0.2112 -0.5492
  190SAPI   H4R21943   4.349   0.801   5.880 -0.4596 -0.5626 -2.6944
  190SAPI   H4S21944   4.415   0.654   5.836 -0.2522  0.5715 -1.5704
  190SAPI   C2521945   4.505   0.812   5.721  0.1343  0.1514  0.1614
  190SAPI   H5R21946   4.534   0.917   5.736 -1.4271  0.3806  1.9088
  190SAPI   C2621947   4.502   0.765   5.596  0.1198 -0.1763  0.3112
  190SAPI   H6R21948   4.559   0.811   5.514  0.4202 -0.2768  0.4622
  190SAPI   C2721949   4.442   0.633   5.561 -0.2116  1.1586 -0.1761
  190SAPI   H7R21950   4.365   0.605   5.636 -0.7121 -1.7832 -1.6357
  190SAPI   H7S21951   4.513   0.547   5.564 -1.6793 -0.1152 -0.6502
  190SAPI   C2821952   4.359   0.623   5.435 -0.4192  0.3786  0.4249
  190SAPI   H8R21953   4.288   0.707   5.423  2.5225  2.9025 -0.5709
  190SAPI   C2921954   4.377   0.539   5.332  0.1536 -0.1540 -0.3941
  190SAPI   H9R21955   4.305   0.549   5.250 -0.4823  0.5588  0.2322
  190SAPI  C21021956   4.467   0.413   5.332 -0.2405 -0.6987  0.0810
  190SAPI  H10R21957   4.505   0.389   5.434 -1.2170  0.2859  0.6866
  190SAPI  H10S21958   4.560   0.440   5.277 -0.7567  0.0384 -0.4347
  190SAPI  C21121959   4.392   0.293   5.279 -0.9125  0.2983 -0.6965
  190SAPI  H11R21960   4.326   0.249   5.355 -1.3169 -1.1205 -1.8018
  190SAPI  C21221961   4.400   0.246   5.156 -0.3074 -0.3397  1.0349
  190SAPI  H12R21962   4.319   0.182   5.119 -0.9979  0.3210  1.3704
  190SAPI  C21321963   4.484   0.310   5.043 -0.3145 -0.2814 -0.2918
  190SAPI  H13R21964   4.591   0.320   5.068 -0.3025 -0.5025 -0.2538
  190SAPI  H13S21965   4.471   0.420   5.038  0.3426 -0.0658  1.6415
  190SAPI  C21421966   4.460   0.257   4.905  0.1092 -0.0272  0.0056
  190SAPI  H14R21967   4.449   0.147   4.909  3.2889 -0.4441 -0.0682
  190SAPI  C21521968   4.436   0.322   4.787 -0.1897  0.9917 -0.1267
  190SAPI  H15R21969   4.452   0.262   4.697 -1.6002 -0.3253  0.4492
  190SAPI  C21621970   4.436   0.471   4.769 -0.0336  0.5642  0.6526
  190SAPI  H16R21971   4.497   0.504   4.682  1.3983 -0.3811  1.2529
  190SAPI  H16S21972   4.481   0.526   4.854 -2.2108  1.0638  1.5302
  190SAPI  C21721973   4.291   0.525   4.746 -0.7075 -0.2962  0.9001
  190SAPI  H17R21974   4.230   0.514   4.839 -2.8670  0.8555 -0.2906
  190SAPI  H17S21975   4.251   0.459   4.666  1.4709 -0.0918 -0.4199
  190SAPI  C21821976   4.280   0.662   4.697 -0.1159  0.2167  0.5626
  190SAPI  H18R21977   4.306   0.743   4.769 -1.8000  0.5428  0.8483
  190SAPI  H18S21978   4.174   0.682   4.675 -0.2917 -0.3406  0.8693
  190SAPI  C21921979   4.358   0.697   4.564  0.2273 -0.9763  0.8691
  190SAPI  H19R21980   4.467   0.678   4.576  0.5568 -0.9435 -1.5603
  190SAPI  H19S21981   4.354   0.808   4.557 -3.5950 -0.8944  1.8460
  190SAPI  C22021982   4.296   0.648   4.431 -0.3451 -0.4764 -0.6168
  190SAPI  H20R21983   4.303   0.538   4.438  0.3705 -0.3423  2.4301
  190SAPI  H20S21984   4.354   0.696   4.349 -0.0034  0.6660  0.2504
  190SAPI  H20T21985   4.191   0.683   4.421 -0.0721  0.5274 -0.1926
  190SAPI   C3321986   5.152   0.734   5.771  0.1062  0.0336  0.4336
  190SAPI   H3X21987   5.158   0.636   5.824 -0.1051 -0.5868 -0.6635
  190SAPI   H3Y21988   5.236   0.744   5.699 -0.4881  1.6063 -0.0676
  190SAPI   C3421989   5.025   0.729   5.686 -0.0602  0.5016 -0.0086
  190SAPI   H4X21990   4.963   0.819   5.701  0.5268  0.5945  2.1715
  190SAPI   H4Y21991   4.971   0.640   5.724  1.4358 -0.0360  0.9747
  190SAPI   C3521992   5.050   0.707   5.530  0.0303  0.3606 -0.5154
  190SAPI   H5X21993   5.132   0.763   5.482 -0.0752  0.4916 -0.5418
  190SAPI   H5Y21994   4.963   0.746   5.474 -1.6903  0.4191  2.0348
  190SAPI   C3621995   5.084   0.560   5.516 -0.5661  0.4362 -0.8199
  190SAPI   H6X21996   4.992   0.501   5.538  0.9481 -1.4625  0.8971
  190SAPI   H6Y21997   5.162   0.526   5.587 -1.5841 -0.9581 -0.3258
  190SAPI   C3721998   5.132   0.521   5.373 -0.3528  0.1958 -0.3635
  190SAPI   H7X21999   5.168   0.416   5.376  0.9277  0.6023 -0.9485
  190SAPI   H7Y22000   5.220   0.582   5.346  1.1997 -1.2261  1.2217
  190SAPI   C3822001   5.017   0.526   5.269 -0.5306  0.5104  0.4436
  190SAPI   H8X22002   4.981   0.631   5.260  1.5014  1.4318  2.2162
  190SAPI   H8Y22003   4.930   0.465   5.301  0.3094 -1.0477 -0.1651
  190SAPI   C3922004   5.057   0.491   5.124 -0.0936 -0.0581  0.7051
  190SAPI   H9X22005   5.079   0.382   5.131 -1.5356 -0.2824  2.4948
  190SAPI   H9Y22006   5.149   0.552   5.114 -1.8506  2.9399  1.7232
  190SAPI  C31022007   4.949   0.519   5.023  0.4692  0.2730 -0.3133
  190SAPI  H10X22008   4.926   0.627   5.038 -0.2969  0.1450 -0.4865
  190SAPI  H10Y22009   4.855   0.463   5.045  0.0643  1.8641  2.4584
  190SAPI  C31122010   4.994   0.514   4.882  0.1952  0.2300 -0.2621
  190SAPI  H11X22011   5.072   0.436   4.864  0.5499  0.3480  0.6716
  190SAPI  H11Y22012   5.044   0.609   4.853  0.3705  0.6041  1.1808
  190SAPI  C31222013   4.880   0.471   4.791  0.0028 -0.1646  0.0406
  190SAPI  H12X22014   4.804   0.550   4.813  0.2863  0.9905 -2.7796
  190SAPI  H12Y22015   4.837   0.374   4.825 -2.2666  1.2328  1.4411
  190SAPI  C31322016   4.909   0.475   4.639  0.6319  0.4034 -0.8288
  190SAPI  H13X22017   4.961   0.384   4.603 -1.1109  0.5073 -3.9673
  190SAPI  H13Y22018   4.982   0.557   4.621 -0.4626  1.2788 -1.3736
  190SAPI  C31422019   4.784   0.503   4.556 -0.0628  0.1523 -0.1992
  190SAPI  H14X22020   4.730   0.584   4.610 -1.4139 -2.3484  2.4857
  190SAPI  H14Y22021   4.705   0.425   4.545  0.0766 -0.2930  1.6225
  190SAPI  C31522022   4.820   0.546   4.409 -0.7181 -0.7470 -0.3502
  190SAPI  H15X22023   4.863   0.465   4.345  2.4652  1.6343 -1.4763
  190SAPI  H15Y22024   4.896   0.625   4.425 -1.6057 -0.0745  0.6688
  190SAPI  C31622025   4.691   0.610   4.354 -0.9764 -0.3465  0.0523
  190SAPI  H16X22026   4.634   0.652   4.439 -0.9367 -1.0623  0.4398
  190SAPI  H16Y22027   4.635   0.522   4.316  0.1890 -0.1750 -2.2733
  190SAPI  C31722028   4.706   0.730   4.258 -0.9746  0.0423  0.1020
  190SAPI  H17X22029   4.622   0.723   4.186  0.9117 -0.6419 -2.1549
  190SAPI  H17Y22030   4.784   0.696   4.186 -1.5299 -1.7343  0.2863
  190SAPI  C31822031   4.728   0.860   4.334 -0.3457  0.7715  0.0281
  190SAPI  H18X22032   4.639   0.886   4.395 -0.4541  0.2987  0.0729
  190SAPI  H18Y22033   4.740   0.948   4.267  2.8135 -0.8037 -1.7149
  190SAPI  H18Z22034   4.817   0.854   4.401 -0.1340 -1.8542 -0.3756
  191SAPI   C1222035   1.343   6.010   1.517 -0.0358  0.1570 -0.1041
  191SAPI    H222036   1.301   6.086   1.587 -0.8331  1.7204 -2.1333
  191SAPI    O222037   1.257   5.893   1.518 -0.5554  0.4963  0.1284
  191SAPI   HO222038   1.274   5.850   1.602  2.0293  0.6720 -0.2058
  191SAPI   C1322039   1.366   6.068   1.381  1.0020 -0.4063  0.1458
  191SAPI    H322040   1.414   6.168   1.390 -0.1508  0.3019 -1.1604
  191SAPI    O322041   1.235   6.099   1.332  0.2209 -0.3569 -0.6862
  191SAPI   HO322042   1.185   6.027   1.294 -2.3459  0.9097  0.0719
  191SAPI   C1422043   1.435   5.975   1.292  0.0023  0.3296  0.0402
  191SAPI    H422044   1.374   5.882   1.292  2.2138 -1.2943  2.5493
  191SAPI    O422045   1.429   6.012   1.156 -0.3728  0.4268 -0.1471
  191SAPI   HO422046   1.499   6.072   1.131  0.8436 -1.5493 -1.8210
  191SAPI   C1522047   1.568   5.931   1.347  0.0004  0.3360  0.3378
  191SAPI    H522048   1.631   6.022   1.343 -1.4083  1.4755  2.3267
  191SAPI    O522049   1.632   5.836   1.259 -0.3000 -0.0632  0.0409
  191SAPI   HO522050   1.724   5.861   1.255 -0.5476  1.2748  1.4967
  191SAPI   C1622051   1.560   5.881   1.483  0.3655  0.0853  0.6025
  191SAPI    H622052   1.515   5.780   1.489 -0.9323  0.6157  0.1127
  191SAPI    O622053   1.698   5.867   1.528  0.5229  0.3757 -0.3277
  191SAPI   HO622054   1.731   5.957   1.532 -1.2495  1.0884 -0.9104
  191SAPI   C1122055   1.489   5.979   1.573  0.0071  0.2749 -0.5696
  191SAPI    H122056   1.551   6.071   1.566  0.7583 -0.2358 -0.7504
  191SAPI     P22057   1.548   6.002   1.837  0.0475  0.1002  0.2834
  191SAPI   O1322058   1.667   6.073   1.791  0.1524  0.3293 -0.5273
  191SAPI   O1422059   1.553   5.909   1.953 -0.4163 -0.2959 -0.8004
  191SAPI   O1222060   1.480   5.922   1.707 -0.0415  0.3956 -0.3095
  191SAPI   O1122061   1.435   6.113   1.852  0.1690 -0.3346  0.1653
  191SAPI    C122062   1.299   6.079   1.887  0.5573 -0.0953 -0.3924
  191SAPI    HA22063   1.235   6.102   1.799  2.2535 -1.0899 -1.9402
  191SAPI    HB22064   1.277   5.975   1.916  0.7896 -0.3933 -1.2513
  191SAPI    C222065   1.261   6.177   1.999 -0.4379 -0.6164  0.3504
  191SAPI    HS22066   1.242   6.277   1.955 -0.3086 -0.8937 -0.3459
  191SAPI   O2122067   1.369   6.191   2.104 -0.1527  0.1139 -0.0306
  191SAPI   C2122068   1.335   6.287   2.189 -0.4457  0.0752 -0.3783
  191SAPI   O2222069   1.243   6.366   2.173  0.1912  0.0621  0.3669
  191SAPI   C2222070   1.444   6.290   2.301  0.2068  0.4152  0.4743
  191SAPI   H2R22071   1.494   6.192   2.310 -0.0548  0.1881 -0.4286
  191SAPI   H2S22072   1.524   6.356   2.261 -1.4194  1.1527 -1.8017
  191SAPI    C322073   1.128   6.119   2.054  0.2544 -0.2302 -0.3509
  191SAPI    HX22074   1.070   6.095   1.963  0.5966 -3.1570  0.1263
  191SAPI    HY22075   1.069   6.189   2.117 -1.7815 -2.4265  0.3352
  191SAPI   O3122076   1.143   6.003   2.135 -0.0964  0.4500  0.5803
  191SAPI   C3122077   1.073   5.896   2.099  1.0769 -0.1389 -0.0549
  191SAPI   O3222078   1.012   5.884   1.995 -0.3248 -0.4208  0.5124
  191SAPI   C3222079   1.048   5.805   2.208 -0.0956  0.2200  0.1511
  191SAPI   H2X22080   1.051   5.703   2.163  1.0504 -0.2678  1.2435
  191SAPI   H2Y22081   0.947   5.815   2.253 -0.1103  0.2488  0.1116
  191SAPI   C2322082   1.390   6.335   2.436  0.5874 -0.0725 -0.2436
  191SAPI   H3R22083   1.318   6.416   2.412 -0.4860 -1.2153 -1.0311
  191SAPI   H3S22084   1.477   6.373   2.494  1.3521  0.3700 -1.6320
  191SAPI   C2422085   1.322   6.230   2.529  0.0774  0.2600  1.0821
  191SAPI   H4R22086   1.390   6.148   2.559  1.6824  1.0628 -0.1945
  191SAPI   H4S22087   1.233   6.181   2.485  1.8119 -0.7790 -1.5076
  191SAPI   C2522088   1.278   6.314   2.648  0.0655 -0.0666 -0.5200
  191SAPI   H5R22089   1.198   6.390   2.641 -1.2978 -1.2645  1.1696
  191SAPI   C2622090   1.330   6.302   2.776 -0.5077 -0.1831 -0.4490
  191SAPI   H6R22091   1.290   6.371   2.852  0.0078 -0.0162 -0.3272
  191SAPI   C2722092   1.442   6.208   2.815 -0.4553  1.1670  0.1803
  191SAPI   H7R22093   1.533   6.224   2.753 -0.6602 -0.2518 -0.5034
  191SAPI   H7S22094   1.414   6.103   2.797  0.3480  0.8897  0.4841
  191SAPI   C2822095   1.478   6.236   2.965  0.1956 -0.2020 -0.6259
  191SAPI   H8R22096   1.552   6.315   2.981 -1.4717  1.3189 -0.2031
  191SAPI   C2922097   1.414   6.186   3.074 -0.1213  0.1462 -0.0947
  191SAPI   H9R22098   1.447   6.205   3.177  1.6112  2.3267 -0.9667
  191SAPI  C21022099   1.312   6.083   3.050  0.1642 -0.4308 -0.5718
  191SAPI  H10R22100   1.297   6.033   3.148 -1.4748 -1.7504 -1.4323
  191SAPI  H10S22101   1.341   5.995   2.989 -0.8479 -1.1334 -0.0793
  191SAPI  C21122102   1.182   6.128   3.013 -0.2191  0.0883 -0.6208
  191SAPI  H11R22103   1.165   6.111   2.906  0.8937 -2.9528 -0.3924
  191SAPI  C21222104   1.089   6.187   3.086 -0.7075 -0.7786  0.1249
  191SAPI  H12R22105   0.995   6.225   3.044 -0.3596 -1.3172 -1.1927
  191SAPI  C21322106   1.107   6.224   3.235 -0.1389  0.2098  0.7222
  191SAPI  H13R22107   1.070   6.328   3.239  0.0916  0.4008 -1.1419
  191SAPI  H13S22108   1.212   6.243   3.265  1.1359 -0.8554 -2.6024
  191SAPI  C21422109   1.043   6.134   3.334 -1.0274 -0.0899 -0.5358
  191SAPI  H14R22110   1.009   6.038   3.293  0.2729 -1.3777  1.2285
  191SAPI  C21522111   1.025   6.167   3.466  0.2743 -0.5665 -0.6003
  191SAPI  H15R22112   0.975   6.104   3.542  1.4812  0.2510  0.9469
  191SAPI  C21622113   1.080   6.287   3.535 -0.2630  0.5937 -0.1828
  191SAPI  H16R22114   1.005   6.370   3.530  0.3345  1.2319  0.9836
  191SAPI  H16S22115   1.178   6.322   3.497  0.5579  0.4433  1.6476
  191SAPI  C21722116   1.117   6.249   3.680 -0.0087 -0.1589  0.5953
  191SAPI  H17R22117   1.030   6.211   3.737 -1.2337 -1.0090 -1.7523
  191SAPI  H17S22118   1.155   6.338   3.736 -2.3387  1.2180  0.1079
  191SAPI  C21822119   1.243   6.157   3.686 -0.7193 -0.4286 -0.4349
  191SAPI  H18R22120   1.325   6.199   3.623 -0.7645 -0.0137 -0.2201
  191SAPI  H18S22121   1.219   6.066   3.627  0.0127  0.5780 -2.3935
  191SAPI  C21922122   1.280   6.105   3.825 -0.2255  0.4160 -0.2283
  191SAPI  H19R22123   1.185   6.087   3.880 -1.1933  3.0429 -0.8625
  191SAPI  H19S22124   1.316   6.195   3.880  2.5586 -0.4471 -0.4837
  191SAPI  C22022125   1.387   5.996   3.832 -0.0609 -0.2412  0.1814
  191SAPI  H20R22126   1.347   5.901   3.789  1.1395 -0.9858  0.6620
  191SAPI  H20S22127   1.394   5.982   3.942 -3.8588  1.7178  0.8427
  191SAPI  H20T22128   1.484   6.030   3.791 -0.5875 -0.1363 -1.0387
  191SAPI   C3322129   1.170   5.795   2.313 -0.5177 -0.2449  0.4801
  191SAPI   H3X22130   1.268   5.813   2.264  1.7009 -1.8032  3.9836
  191SAPI   H3Y22131   1.163   5.706   2.379  2.2478  0.1746  1.4724
  191SAPI   C3422132   1.160   5.896   2.423 -0.5132  0.1011  0.3280
  191SAPI   H4X22133   1.073   5.886   2.492 -0.0584  0.5335  0.9762
  191SAPI   H4Y22134   1.155   5.998   2.379  0.0748 -0.2239 -0.4999
  191SAPI   C3522135   1.285   5.881   2.509  0.4807 -0.2673  0.8115
  191SAPI   H5X22136   1.297   5.975   2.567  0.3262  0.9093 -1.0086
  191SAPI   H5Y22137   1.371   5.861   2.442 -2.2643 -2.0316 -2.4676
  191SAPI   C3622138   1.279   5.768   2.612 -0.4789 -0.5441 -0.6142
  191SAPI   H6X22139   1.301   5.676   2.554 -1.2476 -2.0662  1.4033
  191SAPI   H6Y22140   1.179   5.754   2.658  0.3428  0.4843  1.6448
  191SAPI   C3722141   1.386   5.791   2.722  0.5126 -0.2448  0.2651
  191SAPI   H7X22142   1.380   5.703   2.789  0.4099  0.7520  1.5915
  191SAPI   H7Y22143   1.357   5.883   2.777  0.2783 -2.2622  3.7842
  191SAPI   C3822144   1.527   5.806   2.666  0.2099 -0.1837 -0.1464
  191SAPI   H8X22145   1.545   5.913   2.641 -2.7304  0.7773  1.4222
  191SAPI   H8Y22146   1.537   5.749   2.571  2.3356  0.7332 -0.5444
  191SAPI   C3922147   1.636   5.767   2.769 -0.1156 -0.3137 -0.5881
  191SAPI   H9X22148   1.733   5.757   2.716 -0.6609  0.4244 -1.7773
  191SAPI   H9Y22149   1.620   5.667   2.813 -0.9407 -0.5662 -1.4380
  191SAPI  C31022150   1.644   5.870   2.887 -0.1993  0.2412 -0.0147
  191SAPI  H10X22151   1.546   5.877   2.939 -0.3533 -2.6990  0.2809
  191SAPI  H10Y22152   1.675   5.969   2.849 -1.8467  0.8639  0.1961
  191SAPI  C31122153   1.737   5.819   2.997 -0.2047 -0.5084 -0.1203
  191SAPI  H11X22154   1.839   5.827   2.954 -0.2255 -0.4797 -0.1644
  191SAPI  H11Y22155   1.707   5.715   3.019  0.1496  0.0894  3.7977
  191SAPI  C31222156   1.733   5.904   3.126  1.1513  0.2256  0.4051
  191SAPI  H12X22157   1.628   5.918   3.158  0.6719  0.0790 -1.0122
  191SAPI  H12Y22158   1.778   6.002   3.099 -3.2706  1.4682 -3.8217
  191SAPI  C31322159   1.802   5.840   3.248 -0.0162  0.5526  0.3796
  191SAPI  H13X22160   1.894   5.799   3.201  0.0436 -1.4281  2.0605
  191SAPI  H13Y22161   1.746   5.747   3.270  1.6267 -0.5785 -0.0357
  191SAPI  C31422162   1.816   5.922   3.370 -0.1634  0.0572 -0.4738
  191SAPI  H14X22163   1.881   6.011   3.357 -1.0853  1.1231  1.7008
  191SAPI  H14Y22164   1.861   5.862   3.452  1.8968 -0.1235 -1.6727
  191SAPI  C31522165   1.669   5.962   3.414  0.3218  0.1602 -0.4585
  191SAPI  H15X22166   1.617   5.866   3.433 -2.0147  1.8362  2.3385
  191SAPI  H15Y22167   1.615   6.028   3.344  2.3510 -0.6293 -2.9576
  191SAPI  C31622168   1.672   6.039   3.545 -0.1651 -0.8630  0.4777
  191SAPI  H16X22169   1.751   6.010   3.617 -0.5573 -1.6125  0.6142
  191SAPI  H16Y22170   1.574   6.009   3.589  0.3365 -0.4285  1.9591
  191SAPI  C31722171   1.677   6.195   3.521 -0.5341 -0.2267  1.2288
  191SAPI  H17X22172   1.610   6.224   3.437 -1.2414  1.5695  2.3574
  191SAPI  H17Y22173   1.783   6.222   3.500 -0.6227  0.0456  1.1304
  191SAPI  C31822174   1.635   6.283   3.638  0.8824 -0.2684 -0.2140
  191SAPI  H18X22175   1.721   6.295   3.706 -0.6453 -1.3258  2.0273
  191SAPI  H18Y22176   1.545   6.252   3.696 -0.5931 -0.7775 -2.5944
  191SAPI  H18Z22177   1.599   6.382   3.601 -1.8753 -1.3158 -0.6457
  192SAPI   C1222178   2.694   6.778   1.564 -0.3458  0.0921  0.5033
  192SAPI    H222179   2.766   6.862   1.554 -1.9654  1.2201 -3.2625
  192SAPI    O222180   2.572   6.833   1.511 -0.1346  0.2707 -0.6793
  192SAPI   HO222181   2.527   6.883   1.580 -0.5494  1.2226 -1.6050
  192SAPI   C1322182   2.754   6.664   1.484  0.7822  0.5692 -0.2969
  192SAPI    H322183   2.852   6.631   1.525  0.2089 -0.3478  0.3827
  192SAPI    O322184   2.779   6.703   1.349  0.3178  0.1983  0.2896
  192SAPI   HO322185   2.847   6.645   1.314  1.0308 -0.5935  2.7917
  192SAPI   C1422186   2.655   6.546   1.492 -0.3204 -0.2510  0.2550
  192SAPI    H422187   2.558   6.583   1.452 -0.1300 -0.9201 -0.8872
  192SAPI    O422188   2.702   6.441   1.403  1.2869  0.3326  0.1128
  192SAPI   HO422189   2.660   6.358   1.424  0.6939  1.2303  2.9528
  192SAPI   C1522190   2.647   6.499   1.634 -0.2689  0.0838 -0.3175
  192SAPI    H522191   2.749   6.463   1.659 -0.6894 -2.1869 -1.6105
  192SAPI    O522192   2.561   6.384   1.647  0.2298  0.2049 -0.6957
  192SAPI   HO522193   2.573   6.350   1.736 -2.1897  1.3871  0.1756
  192SAPI   C1622194   2.609   6.607   1.738 -0.9197 -0.6219 -0.0941
  192SAPI    H622195   2.501   6.628   1.730 -0.7049  1.4615  1.6128
  192SAPI    O622196   2.625   6.561   1.874 -0.2341 -0.1461  0.0131
  192SAPI   HO622197   2.590   6.473   1.892 -1.2759  0.3719  0.5839
  192SAPI   C1122198   2.690   6.736   1.712 -0.0348 -0.0723  0.3913
  192SAPI    H122199   2.793   6.706   1.743 -0.5726 -1.3789  0.9600
  192SAPI     P22200   2.775   6.959   1.838 -0.0387 -0.0189  0.0730
  192SAPI   O1322201   2.721   7.099   1.834 -0.7266 -0.3120  0.4689
  192SAPI   O1422202   2.911   6.945   1.773  0.7710 -0.1267 -0.0309
  192SAPI   O1222203   2.659   6.853   1.788 -0.5673 -0.5677  0.0596
  192SAPI   O1122204   2.787   6.918   1.991 -0.6729  1.0242 -0.2261
  192SAPI    C122205   2.693   6.935   2.095  0.6437  0.6761 -0.0425
  192SAPI    HA22206   2.666   7.043   2.101  1.6018  1.2298 -3.4876
  192SAPI    HB22207   2.597   6.881   2.081  0.2456  1.3000  0.2204
  192SAPI    C222208   2.753   6.892   2.231 -0.2009 -0.4920  0.1307
  192SAPI    HS22209   2.670   6.870   2.302 -0.2715  0.2582  0.2964
  192SAPI   O2122210   2.833   7.002   2.286  0.0017 -0.0193 -0.7201
  192SAPI   C2122211   2.828   7.025   2.420  0.0946  0.1081  0.3097
  192SAPI   O2222212   2.757   6.964   2.496 -0.3642 -0.1615 -0.6216
  192SAPI   C2222213   2.940   7.126   2.454 -1.1388  0.5809 -0.2387
  192SAPI   H2R22214   3.002   7.082   2.535 -3.2061 -1.3640  0.3783
  192SAPI   H2S22215   3.015   7.130   2.371 -0.0076  0.6783  0.7607
  192SAPI    C322216   2.841   6.766   2.219 -0.0158  0.6343  0.0124
  192SAPI    HX22217   2.933   6.792   2.162 -0.0110 -0.6978 -0.6284
  192SAPI    HY22218   2.784   6.694   2.157 -1.0911  1.1165  0.4054
  192SAPI   O3122219   2.893   6.713   2.343 -0.0310 -0.2124 -0.0920
  192SAPI   C3122220   2.823   6.632   2.409  0.0217  0.7189 -0.3720
  192SAPI   O3222221   2.735   6.563   2.364  0.1460  0.1860  0.3989
  192SAPI   C3222222   2.861   6.627   2.559 -0.3497  0.1232 -0.2820
  192SAPI   H2X22223   2.914   6.722   2.579 -0.3239  0.0703 -0.0925
  192SAPI   H2Y22224   2.916   6.532   2.577  2.9155  1.8379 -0.4913
  192SAPI   C2322225   2.891   7.265   2.497 -0.2013 -0.4294  0.0105
  192SAPI   H3R22226   2.821   7.304   2.420 -2.0145 -1.8099  0.8775
  192SAPI   H3S22227   2.983   7.326   2.508 -1.1760  1.1522 -0.4034
  192SAPI   C2422228   2.813   7.269   2.634  0.5606  0.3418 -0.2394
  192SAPI   H4R22229   2.709   7.238   2.613  0.3721  1.7058 -1.4509
  192SAPI   H4S22230   2.815   7.374   2.669 -2.4335  0.7715 -1.0941
  192SAPI   C2522231   2.863   7.169   2.736  1.0013  0.2032 -0.8209
  192SAPI   H5R22232   2.862   7.063   2.706  2.4162 -0.4840  1.3819
  192SAPI   C2622233   2.891   7.193   2.869  0.7943 -0.2307 -0.0054
  192SAPI   H6R22234   2.932   7.104   2.919  0.8909  0.6295  1.4991
  192SAPI   C2722235   2.865   7.324   2.938  0.2897 -0.1479 -0.0547
  192SAPI   H7R22236   2.813   7.397   2.873  1.3571  0.4829 -0.2195
  192SAPI   H7S22237   2.967   7.364   2.956  0.3196 -1.1058  2.3449
  192SAPI   C2822238   2.799   7.315   3.079 -0.2827 -0.3448  0.5302
  192SAPI   H8R22239   2.690   7.303   3.069 -0.5481  1.7167  0.4014
  192SAPI   C2922240   2.851   7.315   3.199 -0.0534  0.0414 -0.2461
  192SAPI   H9R22241   2.781   7.314   3.284 -0.8815 -0.1593 -0.9163
  192SAPI  C21022242   2.990   7.323   3.249 -0.0318  0.7502 -0.4432
  192SAPI  H10R22243   3.048   7.261   3.178 -0.5708 -0.3585  0.0616
  192SAPI  H10S22244   2.994   7.257   3.339 -2.2222  1.1387  0.0060
  192SAPI  C21122245   3.053   7.449   3.286  0.2374 -0.7169  0.1376
  192SAPI  H11R22246   3.036   7.531   3.216 -0.3000  0.8020  1.9665
  192SAPI  C21222247   3.142   7.471   3.385  0.2066  0.3358  0.6114
  192SAPI  H12R22248   3.187   7.571   3.381  1.3115 -0.1823 -0.4759
  192SAPI  C21322249   3.204   7.376   3.478 -0.3562  0.3740 -0.0800
  192SAPI  H13R22250   3.231   7.280   3.430  0.2621  1.2080 -1.4474
  192SAPI  H13S22251   3.120   7.337   3.539  1.4159  0.7277  2.7936
  192SAPI  C21422252   3.290   7.427   3.592 -0.2852 -0.5821  0.2872
  192SAPI  H14R22253   3.317   7.532   3.574  0.2684 -0.6696  0.5718
  192SAPI  C21522254   3.334   7.363   3.703  0.3938  0.8502  0.4459
  192SAPI  H15R22255   3.396   7.411   3.780  1.3461 -2.1614  1.7223
  192SAPI  C21622256   3.311   7.226   3.736 -0.0760 -0.2451 -0.0448
  192SAPI  H16R22257   3.334   7.169   3.643 -0.0922  1.3313 -1.0603
  192SAPI  H16S22258   3.204   7.218   3.762  0.2398 -0.6910  1.1485
  192SAPI  C21722259   3.400   7.169   3.843 -0.8456 -0.1823 -0.2796
  192SAPI  H17R22260   3.379   7.219   3.941 -0.8271 -1.5552  0.4533
  192SAPI  H17S22261   3.505   7.190   3.814 -0.5485 -1.5008 -0.2055
  192SAPI  C21822262   3.381   7.019   3.884  0.1389 -0.6243  0.3666
  192SAPI  H18R22263   3.390   6.955   3.794  3.6135 -2.7707  2.0049
  192SAPI  H18S22264   3.286   7.005   3.939  1.6472 -0.8056  3.1273
  192SAPI  C21922265   3.504   6.975   3.967 -0.3645  0.7946 -0.3333
  192SAPI  H19R22266   3.523   7.051   4.046 -2.0547  0.0487  0.8500
  192SAPI  H19S22267   3.589   6.965   3.897  0.2963 -1.9923  0.7540
  192SAPI  C22022268   3.478   6.837   4.036  0.4461  0.3285  0.5419
  192SAPI  H20R22269   3.573   6.801   4.081  0.8880  1.2060  0.3382
  192SAPI  H20S22270   3.437   6.768   3.959 -2.0268  0.3137  1.7767
  192SAPI  H20T22271   3.401   6.837   4.117  0.5150 -2.2788  0.7145
  192SAPI   C3322272   2.737   6.634   2.651 -0.8896 -0.6320 -0.3421
  192SAPI   H3X22273   2.704   6.528   2.654  0.0106 -0.9102  2.1604
  192SAPI   H3Y22274   2.659   6.701   2.608 -0.2997 -0.0127 -0.4697
  192SAPI   C3422275   2.755   6.674   2.799  0.5089 -0.4916 -0.1898
  192SAPI   H4X22276   2.653   6.708   2.830  1.1366  0.5169  0.8315
  192SAPI   H4Y22277   2.820   6.763   2.793  1.1010 -0.9879 -1.8810
  192SAPI   C3522278   2.802   6.567   2.890 -0.2070 -0.3625 -0.7494
  192SAPI   H5X22279   2.905   6.534   2.866  0.6985  1.0019  1.0657
  192SAPI   H5Y22280   2.729   6.487   2.864 -0.1582 -0.0024 -2.1041
  192SAPI   C3622281   2.788   6.598   3.042 -0.6847  0.4132 -0.7652
  192SAPI   H6X22282   2.687   6.643   3.056 -0.6194  0.1155  0.8809
  192SAPI   H6Y22283   2.855   6.680   3.077 -1.3506  1.3557 -1.6330
  192SAPI   C3722284   2.810   6.475   3.133 -0.2696 -0.0560 -0.5438
  192SAPI   H7X22285   2.907   6.422   3.117  0.6813  0.9008  1.6833
  192SAPI   H7Y22286   2.736   6.399   3.100 -0.3832 -0.4329  0.5493
  192SAPI   C3822287   2.807   6.518   3.280 -0.3689 -0.2629 -0.1691
  192SAPI   H8X22288   2.713   6.569   3.311  0.6535  1.5140  0.1456
  192SAPI   H8Y22289   2.874   6.607   3.282  1.3682 -1.5249  0.9628
  192SAPI   C3922290   2.857   6.408   3.380 -1.1368  0.0457  0.0496
  192SAPI   H9X22291   2.940   6.350   3.334  0.1098  1.1332  0.8881
  192SAPI   H9Y22292   2.779   6.328   3.378 -0.6209 -0.4610 -0.6099
  192SAPI  C31022293   2.887   6.463   3.516  0.3498  0.2385  0.2299
  192SAPI  H10X22294   2.805   6.532   3.546 -1.3390 -1.2373 -0.8368
  192SAPI  H10Y22295   2.980   6.522   3.526  1.0617 -1.0221  1.3227
  192SAPI  C31122296   2.894   6.334   3.607  0.2719  0.3844 -0.1593
  192SAPI  H11X22297   2.989   6.283   3.580  1.9776  2.4195  1.6677
  192SAPI  H11Y22298   2.801   6.275   3.593  0.0875  0.5385  0.3948
  192SAPI  C31222299   2.908   6.373   3.756  0.3558  0.0558 -0.3491
  192SAPI  H12X22300   2.900   6.279   3.816  1.6976 -0.7870 -1.4407
  192SAPI  H12Y22301   2.830   6.446   3.786  0.3346  0.7933 -2.0816
  192SAPI  C31322302   3.049   6.435   3.779 -0.5658 -0.0534  0.2439
  192SAPI  H13X22303   3.052   6.525   3.714 -2.9427 -0.1907 -0.1461
  192SAPI  H13Y22304   3.125   6.362   3.745 -1.4382 -0.1742 -1.5159
  192SAPI  C31422305   3.079   6.479   3.924  0.1823  0.3609 -0.6991
  192SAPI  H14X22306   2.988   6.536   3.953  0.2949  0.8157 -1.2236
  192SAPI  H14Y22307   3.166   6.546   3.937 -0.4196  0.6967  2.3354
  192SAPI  C31522308   3.101   6.357   4.019  0.3615  0.3071  0.2330
  192SAPI  H15X22309   3.179   6.290   3.977 -1.9371 -2.6675  0.3892
  192SAPI  H15Y22310   3.015   6.288   4.025 -0.0328  0.9159  2.4038
  192SAPI  C31622311   3.118   6.395   4.163  0.0590 -0.3812 -0.0273
  192SAPI  H16X22312   3.027   6.445   4.203  0.2648  0.4264 -0.5487
  192SAPI  H16Y22313   3.206   6.460   4.177 -0.3067  0.0106  0.4724
  192SAPI  C31722314   3.137   6.279   4.270 -0.5439 -0.3850  0.5785
  192SAPI  H17X22315   3.180   6.329   4.360 -1.7506  1.1409  0.3518
  192SAPI  H17Y22316   3.217   6.219   4.221 -0.9167  1.0402 -1.9143
  192SAPI  C31822317   3.019   6.186   4.304 -0.0366  0.0927  0.6478
  192SAPI  H18X22318   2.921   6.237   4.321 -0.1593 -0.4731  1.7132
  192SAPI  H18Y22319   3.045   6.112   4.382  0.0180 -1.6945 -0.9852
  192SAPI  H18Z22320   3.000   6.124   4.213  1.1116  0.3331  0.2314
  193SOD    SOD22321   2.950   2.228   7.586 -0.0617 -0.2566 -0.6552
  194SOD    SOD22322   1.541   4.187   1.031  0.5143 -0.2925  0.2566
  195SOD    SOD22323   6.433   4.321   0.684  0.2989  0.1303 -0.3821
  196SOD    SOD22324   4.326   4.460   5.821  0.1340  0.2447  0.0002
  197SOD    SOD22325   4.333   5.910   1.663 -0.5276 -0.1113 -0.0690
  198SOD    SOD22326   2.322   3.357   2.046  0.1883 -0.2058 -0.1822
  199SOD    SOD22327   1.832   4.483   0.681 -0.0868 -0.0200 -0.1200
  200SOD    SOD22328   1.753   0.840   0.167  0.0408  0.0834  0.0783
  201SOD    SOD22329   3.363   3.144   7.862  0.3275  0.1669 -0.1833
  202SOD    SOD22330   1.170   2.848   2.221  0.2232 -0.1417  0.2340
  203SOD    SOD22331   4.930   1.295   7.699  0.0883  0.5774 -0.0660
  204SOD    SOD22332   2.851   6.976   1.133  0.2917 -0.5129  0.1051
  205SOD    SOD22333   1.699   4.795   6.601  0.0701  0.1801 -0.1090
  206SOD    SOD22334   4.376   4.591   6.867  0.0786 -0.0520 -0.1092
  207SOD    SOD22335   4.514   3.861   7.207  0.4171  0.1540 -0.2491
  208SOD    SOD22336   6.043   6.731   5.935  0.3703  0.0764  0.0629
  209SOD    SOD22337   0.673   0.017   7.985 -0.6401 -0.0286  0.1729
  210SOD    SOD22338   3.351   7.113   7.768 -0.0281 -0.0906  0.0716
  211SOD    SOD22339   4.007   3.258   0.365  0.4329 -0.0877  0.4761
  212SOD    SOD22340   3.653   6.346   7.968  0.1010  0.3724  0.3687
  213SOD    SOD22341   6.258   1.987   0.994  0.7116  0.5413 -0.2424
  214SOD    SOD22342   0.339   4.251   7.906 -0.6600 -0.3496  0.2877
  215SOD    SOD22343   3.621   0.612   6.091  0.5110  0.3458 -0.0123
  216SOD    SOD22344   6.011   0.340   1.494 -0.1948  0.0293  0.1881
  217SOD    SOD22345   6.944   6.268   1.700  0.6289 -0.3848  0.4077
  218SOD    SOD22346   4.328   4.013   1.404  0.6220  0.0553  0.1491
  219SOD    SOD22347   5.800   1.837   1.625 -0.0774  0.0703 -0.2916
  220SOD    SOD22348   0.299   2.947   7.202 -0.2782  0.1208 -0.6447
  221SOD    SOD22349   2.644   1.713   7.345 -0.0410  0.3650  0.3049
  222SOD    SOD22350   2.095   6.919   6.900 -0.2106 -0.1720 -0.1710
  223SOD    SOD22351   1.430   2.009   6.801  0.3439  0.0149  0.4512
  224SOD    SOD22352   1.165   6.570   2.111 -0.3446 -0.5445  0.0126
  225SOD    SOD22353   6.941   5.550   5.987 -0.3581 -0.0776  0.1126
  226SOD    SOD22354   6.706   5.336   6.438 -0.1489 -0.2559 -0.1725
  227SOD    SOD22355   2.174   3.132   7.158  0.2922  0.1502 -0.2886
  228SOD    SOD22356   2.321   6.092   7.212 -0.0407 -0.2291  0.3069
  229SOD    SOD22357   5.111   5.919   6.893 -0.4888  0.1693  0.4179
  230CLA    CLA22358   6.408   0.937   1.035  0.2194 -0.3679  0.0280
  231CLA    CLA22359   6.763   4.905   7.335 -0.3012 -0.0713 -0.0854
  232CLA    CLA22360   6.300   2.505   1.507  0.3634  0.0008  0.1331
  233CLA    CLA22361   5.444   5.115   0.402  0.2541 -0.1595  0.1191
  234CLA    CLA22362   3.878   3.537   7.891  0.0822  0.5111 -0.3038
  235CLA    CLA22363   2.011   2.645   7.172 -0.0414 -0.2469  0.0889
  236CLA    CLA22364   3.276   0.823   0.460 -0.3805 -0.4173 -0.4024
  237CLA    CLA22365   2.818   5.284   0.122 -0.1816  0.3599 -0.2136
  238CLA    CLA22366   0.566   1.539   6.735  0.6127 -0.1000 -0.4788
  239CLA    CLA22367   3.488   3.938   7.636 -0.4024 -0.1926 -0.1521
  240CLA    CLA22368   4.114   2.064   1.282 -0.1410 -0.1766 -0.1057
  241CLA    CLA22369   5.412   2.717   0.442  0.1560 -0.4524  0.3712
  242CLA    CLA22370   3.537   5.994   1.491 -0.1682  0.2168 -0.2429
  243CLA    CLA22371   3.888   5.868   7.998 -0.1000  0.0142 -0.2802
  244CLA    CLA22372   0.361   4.118   0.016 -0.0672 -0.6444  0.2303
  245CLA    CLA22373   2.123   2.694   7.993 -0.3298  0.1589 -0.3055
  246CLA    CLA22374   2.823   5.715   0.921  0.5241  0.0908  0.1369
  247TIP3   OH222375   6.761   6.485   6.984  0.4015 -0.0893 -0.9722
  247TIP3    H122376   6.843   6.440   6.963  0.3296 -0.5055 -0.3992
  247TIP3    H222377   6.747   6.468   7.077 -1.0985 -1.2971 -1.3680
  248TIP3   OH222378   4.594   4.675   1.159  0.3297  0.2297 -0.1514
  248TIP3    H122379   4.580   4.749   1.218  1.1728  0.3580 -0.0974
  248TIP3    H222380   4.600   4.714   1.072 -2.3177 -0.0882 -0.5563
  249TIP3   OH222381   2.389   0.951   1.511 -0.3240 -0.4889 -0.4745
  249TIP3    H122382   2.314   0.907   1.551 -0.1653  0.0675  0.4600
  249TIP3    H222383   2.459   0.941   1.576  0.4943 -1.1977 -1.4216
  250TIP3   OH222384   0.047   0.720   6.085  0.2754 -0.3270  0.2766
  250TIP3    H122385   0.081   0.760   6.004  0.7923  0.9735  1.1112
  250TIP3    H222386   0.082   0.631   6.083  1.3717  0.0912 -0.3206
  251TIP3   OH222387   2.941   1.704   7.691 -0.1350 -0.2660 -0.0807
  251TIP3    H122388   2.859   1.750   7.707 -1.2044 -2.1779  0.3342
  251TIP3    H222389   2.994   1.721   7.769  0.1779  1.5210 -0.6395
  252TIP3   OH222390   2.489   1.244   7.361 -0.2179  0.4482 -0.1125
  252TIP3    H122391   2.489   1.223   7.455 -1.0488  1.5496  0.1585
  252TIP3    H222392   2.396   1.247   7.337 -0.0122  0.2196 -0.9658
  253TIP3   OH222393   0.317   6.975   0.176 -0.0061 -0.1546 -0.2289
  253TIP3    H122394   0.315   7.064   0.210  0.1252 -0.3035  0.1695
  253TIP3    H222395   0.255   6.976   0.103  0.1634  0.3193 -0.3693
  254TIP3   OH222396   4.546   5.053   7.931 -0.2501 -0.3505  0.5060
  254TIP3    H122397   4.543   5.087   8.020 -0.5357 -0.5224  0.5619
  254TIP3    H222398   4.456   5.028   7.911 -0.2341 -0.0895  0.0824
  255TIP3   OH222399   4.286   6.749   5.732  0.0524  0.2870  0.0210
  255TIP3    H122400   4.213   6.803   5.763 -0.0087  0.2384 -0.0369
  255TIP3    H222401   4.362   6.784   5.778 -0.0335  0.2299  0.2081
  256TIP3   OH222402   5.201   6.357   8.110  0.2410 -0.0034 -0.2384
  256TIP3    H122403   5.147   6.372   8.188 -0.1875  0.3524 -0.6018
  256TIP3    H222404   5.176   6.426   8.050 -0.9596 -1.4893 -1.5265
  257TIP3   OH222405   0.935   3.290   6.594  0.0331 -0.5861  0.2956
  257TIP3    H122406   0.983   3.370   6.615 -0.6944  0.4732 -1.8600
  257TIP3    H222407   0.998   3.235   6.548 -0.3985  0.2942 -1.4331
  258TIP3   OH222408   2.922   5.050   0.391 -0.2204  0.7054 -0.3135
  258TIP3    H122409   2.974   5.123   0.357 -1.7051  1.3699 -1.2524
  258TIP3    H222410   2.834   5.064   0.356 -0.7338 -1.1314  0.1017
  259TIP3   OH222411   0.074   2.149   1.237 -0.3215 -0.1171  0.4869
  259TIP3    H122412   0.065   2.243   1.223 -1.3030 -0.4727 -1.6952
  259TIP3    H222413   0.054   2.137   1.330 -3.1181  1.5255  0.2038
  260TIP3   OH222414   3.933   1.951   0.155  0.3421 -0.1552  0.3373
  260TIP3    H122415   4.017   1.980   0.189  1.0030 -1.0228 -0.5181
  260TIP3    H222416   3.894   1.901   0.227  1.5420 -1.6113  0.0400
  261TIP3   OH222417   1.454   3.772   0.767 -0.9846 -0.1865  0.1550
  261TIP3    H122418   1.421   3.800   0.682  2.2660  0.8598 -0.9156
  261TIP3    H222419   1.467   3.678   0.758 -1.3319 -0.1972 -0.2578
  262TIP3   OH222420   3.801   0.530   5.936  0.1470 -0.1315 -0.3463
  262TIP3    H122421   3.867   0.540   5.866 -1.6096 -0.3444 -2.1073
  262TIP3    H222422   3.803   0.437   5.958  0.9382 -0.0074  0.1811
  263TIP3   OH222423   6.086   5.161   7.115  0.0890  0.0389  0.5932
  263TIP3    H122424   6.083   5.164   7.211  0.4524 -1.7302  0.6844
  263TIP3    H222425   6.165   5.210   7.092 -1.5613  3.1077  0.9658
  264TIP3   OH222426   5.790   5.847   5.988  0.3415 -0.8750 -0.3953
  264TIP3    H122427   5.734   5.880   5.917 -1.4571  0.9979  1.7661
  264TIP3    H222428   5.866   5.905   5.987  0.5648 -1.1658 -1.0652
  265TIP3   OH222429   4.479   1.011   6.512 -0.1386  0.3516 -0.1468
  265TIP3    H122430   4.447   0.946   6.450  0.3096  1.5651 -1.7477
  265TIP3    H222431   4.570   0.986   6.528  0.1312  0.7232 -1.0120
  266TIP3   OH222432   0.320   4.002   1.330  0.2348  0.5857 -0.4300
  266TIP3    H122433   0.352   4.035   1.246  1.4418  0.7111  0.0559
  266TIP3    H222434   0.301   3.910   1.314  0.5900  0.5733 -0.8100
  267TIP3   OH222435   5.302   3.895   7.172 -0.8297 -0.0327 -0.4890
  267TIP3    H122436   5.287   3.810   7.130 -1.3198  0.2024 -0.8043
  267TIP3    H222437   5.214   3.925   7.196 -0.8787  1.2279 -2.0789
  268TIP3   OH222438   6.196   4.942   7.445 -0.0889 -0.3363  0.1682
  268TIP3    H122439   6.214   4.856   7.407 -0.8034  0.2002 -1.4839
  268TIP3    H222440   6.228   4.935   7.535  3.4948 -1.0930 -0.9827
  269TIP3   OH222441   1.656   0.223   5.858  0.1000 -0.2530 -0.8212
  269TIP3    H122442   1.610   0.203   5.939  0.3278  1.0997 -0.3276
  269TIP3    H222443   1.717   0.293   5.881 -0.5571  0.8967 -2.3422
  270TIP3   OH222444   2.590   1.349   1.351  0.1366  0.2573 -0.2243
  270TIP3    H122445   2.602   1.312   1.263 -2.3907  1.3773 -1.1406
  270TIP3    H222446   2.503   1.320   1.378 -0.0825  1.8210  0.8837
  271TIP3   OH222447   1.547   3.911   0.087  0.1835 -0.0218  0.2504
  271TIP3    H122448   1.632   3.919   0.130  0.7596 -1.6902 -0.5096
  271TIP3    H222449   1.563   3.935  -0.004  0.4445 -2.5621 -0.4601
  272TIP3   OH222450   4.689   6.556   1.704  0.6504  0.0016  0.6705
  272TIP3    H122451   4.699   6.484   1.767  1.5172  0.3811  0.9731
  272TIP3    H222452   4.748   6.532   1.632 -0.2623 -0.3801  0.0294
  273TIP3   OH222453   3.568   3.417   7.187 -0.2849  0.7539 -0.2269
  273TIP3    H122454   3.551   3.324   7.171 -0.5726  0.9724 -1.2694
  273TIP3    H222455   3.656   3.419   7.223  0.0307  0.1327 -0.9337
  274TIP3   OH222456   2.525   3.057   7.824  0.4311  0.1872 -0.3587
  274TIP3    H122457   2.510   3.148   7.799 -0.2667 -0.3348 -1.9669
  274TIP3    H222458   2.608   3.059   7.873  1.7001  1.4005 -2.3890
  275TIP3   OH222459   3.663   3.119   0.250  0.5258  0.0000  0.5638
  275TIP3    H122460   3.726   3.088   0.186 -0.9265  0.4542 -1.1572
  275TIP3    H222461   3.619   3.040   0.282 -0.2059 -0.0809 -0.6083
  276TIP3   OH222462   5.116   6.457   6.489  0.3616 -0.6050  0.1826
  276TIP3    H122463   5.170   6.513   6.433 -0.7316  0.1602 -0.1524
  276TIP3    H222464   5.117   6.371   6.447  0.4004 -0.3012 -0.4421
  277TIP3   OH222465   2.581   4.736   5.674 -0.2253 -0.2294  0.5382
  277TIP3    H122466   2.552   4.787   5.749 -0.6044  0.6230 -0.1621
  277TIP3    H222467   2.509   4.676   5.656 -0.1837 -0.3514  0.7860
  278TIP3   OH222468   2.849   1.600   7.317 -0.0025 -0.3449 -0.0908
  278TIP3    H122469   2.866   1.548   7.239  0.5978  1.8068 -1.4746
  278TIP3    H222470   2.900   1.557   7.386  0.1152 -1.8172 -1.0532
  279TIP3   OH222471   2.650   5.122   1.162 -0.1614  0.1124  0.3193
  279TIP3    H122472   2.721   5.084   1.111 -1.1476  0.8552 -1.6964
  279TIP3    H222473   2.622   5.051   1.220  1.3944 -0.5673  0.2836
  280TIP3   OH222474   0.357   3.094   0.373 -0.1908  0.3771  0.3840
  280TIP3    H122475   0.376   3.050   0.455  2.3806  0.9209  0.1611
  280TIP3    H222476   0.381   3.186   0.389 -1.0386  0.7780 -0.5474
  281TIP3   OH222477   1.667   6.672   1.304 -0.1565 -0.3655  1.0135
  281TIP3    H122478   1.590   6.639   1.351 -0.9704  2.4932  1.9574
  281TIP3    H222479   1.630   6.728   1.236  1.0322  1.3654  1.7214
  282TIP3   OH222480   0.275   3.524   6.348 -0.0116 -0.2386  0.0144
  282TIP3    H122481   0.196   3.575   6.365  0.2728  0.5489 -0.9571
  282TIP3    H222482   0.335   3.548   6.418 -1.0300 -1.8072  1.5356
  283TIP3   OH222483   1.142   4.866   6.574  0.1946  0.0958 -0.3780
  283TIP3    H122484   1.101   4.905   6.496 -0.5100 -0.6778 -0.4170
  283TIP3    H222485   1.135   4.934   6.641  0.4650  0.6305 -0.8818
  284TIP3   OH222486   7.005   1.060   7.767 -0.3807 -0.1300 -0.5852
  284TIP3    H122487   7.039   0.993   7.708 -0.2019  0.4687 -1.1680
  284TIP3    H222488   6.911   1.043   7.771 -0.3720 -0.2587 -0.9294
  285TIP3   OH222489   3.616   7.046   6.224 -0.2882  0.2938  0.1858
  285TIP3    H122490   3.580   7.084   6.144  1.4616  0.4880 -0.5703
  285TIP3    H222491   3.664   6.969   6.194 -2.6384 -1.8491  1.5274
  286TIP3   OH222492   0.011   5.357   7.036 -0.3949  0.1357 -0.4470
  286TIP3    H122493   0.006   5.262   7.050  0.3964  0.1583  0.0510
  286TIP3    H222494  -0.080   5.384   7.027 -0.6397 -0.6575 -0.4661
  287TIP3   OH222495   4.045   2.411   2.200 -0.1639  0.6141  0.7527
  287TIP3    H122496   4.117   2.428   2.261 -0.9513  0.9868  1.6023
  287TIP3    H222497   4.078   2.342   2.142  0.3811 -0.2395  2.0226
  288TIP3   OH222498   6.246   1.613   6.232 -0.2707  0.2006 -0.2720
  288TIP3    H122499   6.294   1.689   6.264 -0.6985  0.6646 -0.7119
  288TIP3    H222500   6.154   1.633   6.249 -0.3501 -0.4556  0.1009
  289TIP3   OH222501   1.986   6.645   8.025  0.4822 -0.1903  0.0976
  289TIP3    H122502   2.049   6.600   8.081 -0.7710 -0.5767  1.2356
  289TIP3    H222503   1.942   6.707   8.083 -1.9331 -1.6893 -0.0197
  290TIP3   OH222504   2.395   4.762   7.424  0.2408 -0.1187  0.5356
  290TIP3    H122505   2.316   4.714   7.400  0.5191 -0.6692  0.7004
  290TIP3    H222506   2.449   4.758   7.345 -0.0120  0.5137  0.3225
  291TIP3   OH222507   5.423   5.878   0.907 -0.1403  0.3591  0.8273
  291TIP3    H122508   5.353   5.814   0.918 -0.4901  0.6830  0.4898
  291TIP3    H222509   5.496   5.842   0.957 -0.3902 -0.2162  0.7825
  292TIP3   OH222510   2.330   6.547   0.223 -0.2894  0.3432 -0.7708
  292TIP3    H122511   2.344   6.467   0.172 -0.9789 -0.1995 -0.1349
  292TIP3    H222512   2.418   6.577   0.246  0.0703 -2.5219  2.4430
  293TIP3   OH222513   3.084   4.333   2.242  0.0918  0.0978 -0.1045
  293TIP3    H122514   3.143   4.395   2.284  1.0570  0.0029 -1.2818
  293TIP3    H222515   3.075   4.261   2.305  2.1492 -0.4229 -0.3551
  294TIP3   OH222516   1.883   3.312   5.937 -0.0215 -0.5140  0.1430
  294TIP3    H122517   1.900   3.342   5.848  1.8003 -1.4243  0.1402
  294TIP3    H222518   1.831   3.232   5.925 -1.6567  0.5260  0.0177
  295TIP3   OH222519   3.269   3.479   7.733  0.4428  0.5338 -0.1466
  295TIP3    H122520   3.210   3.461   7.806  1.7374  0.2839  0.8837
  295TIP3    H222521   3.213   3.515   7.664 -0.7348  1.2707  1.1528
  296TIP3   OH222522   0.493   3.731   8.042  0.0166  0.1569  0.3742
  296TIP3    H122523   0.412   3.781   8.047 -0.4234 -0.3148 -1.2054
  296TIP3    H222524   0.560   3.790   8.075 -0.5955  1.5322 -0.7351
  297TIP3   OH222525   1.369   1.411   8.049 -0.0874 -0.1358  0.3823
  297TIP3    H122526   1.417   1.362   7.982 -0.2470  1.1981 -0.7395
  297TIP3    H222527   1.362   1.499   8.014 -4.0105 -0.3867  0.1197
  298TIP3   OH222528   3.735   1.232   0.442  0.2202  0.8210 -0.1403
  298TIP3    H122529   3.642   1.245   0.461  0.4658  0.1053  1.8022
  298TIP3    H222530   3.780   1.266   0.520  1.5448  0.4561 -0.7205
  299TIP3   OH222531   3.563   2.453   7.628 -0.2458  0.0294 -0.1130
  299TIP3    H122532   3.624   2.402   7.574 -0.6263  0.3155 -0.8293
  299TIP3    H222533   3.617   2.521   7.667 -0.2656  0.8729 -1.5168
  300TIP3   OH222534   0.735   3.441   7.302  0.9964  0.1030 -0.2397
  300TIP3    H122535   0.712   3.376   7.235  1.2954 -0.1953 -0.0572
  300TIP3    H222536   0.820   3.475   7.273  0.7631  0.5408 -0.4257
  301TIP3   OH222537   0.818   5.062   0.692 -0.0152  0.9216  0.2415
  301TIP3    H122538   0.743   5.038   0.745  0.5887 -0.4988  0.5118
  301TIP3    H222539   0.858   5.136   0.738 -0.8236  1.2250  0.4713
  302TIP3   OH222540   4.133   5.914   5.977  0.0292 -0.5493 -0.3983
  302TIP3    H122541   4.191   5.942   5.906  0.6244  0.5975  0.5108
  302TIP3    H222542   4.094   5.996   6.009  0.9782 -0.8467  1.6198
  303TIP3   OH222543   3.031   0.123   5.905  0.4510 -0.0619  0.1196
  303TIP3    H122544   3.075   0.140   5.822 -0.7161  0.1069 -0.4851
  303TIP3    H222545   2.952   0.074   5.881 -0.4667  0.9357  0.9916
  304TIP3   OH222546   4.144   3.819   6.535 -0.1432 -0.2177  0.1795
  304TIP3    H122547   4.185   3.842   6.451 -0.1639 -0.0771  0.2080
  304TIP3    H222548   4.059   3.783   6.511  0.2432 -1.0932  0.0823
  305TIP3   OH222549   4.760   3.799   6.047 -0.1292 -0.6195 -0.6962
  305TIP3    H122550   4.761   3.795   6.142  0.2854  0.3941 -0.6574
  305TIP3    H222551   4.713   3.719   6.021 -0.2707 -0.8904  0.3467
  306TIP3   OH222552   2.149   3.214   5.747 -0.4340 -0.1765  0.1708
  306TIP3    H122553   2.083   3.283   5.737 -1.2255 -1.1172 -1.4090
  306TIP3    H222554   2.098   3.133   5.752  0.4021 -0.6352  3.2036
  307TIP3   OH222555   5.848   3.677   0.090  0.3374  0.4839  0.4127
  307TIP3    H122556   5.763   3.707   0.056  0.4406  0.2912 -0.0215
  307TIP3    H222557   5.856   3.721   0.174 -0.7311 -0.4145  1.0156
  308TIP3   OH222558   5.496   2.397   7.431  0.3398  0.3577 -0.4478
  308TIP3    H122559   5.406   2.403   7.399  0.0680 -1.5514 -0.1877
  308TIP3    H222560   5.550   2.397   7.352 -0.0469 -0.3775 -0.7261
  309TIP3   OH222561   0.013   1.613   6.856  0.3211 -0.2045 -0.0038
  309TIP3    H122562   0.024   1.669   6.933  0.4643  0.8447 -0.7780
  309TIP3    H222563  -0.018   1.671   6.787  2.2045 -0.6776 -1.3347
  310TIP3   OH222564   6.334   1.340   0.748 -0.2900 -0.2680 -0.1251
  310TIP3    H122565   6.268   1.408   0.761  0.7091  1.1153 -1.7835
  310TIP3    H222566   6.370   1.358   0.662  0.4154 -2.6221 -0.3939
  311TIP3   OH222567   5.159   2.472   5.756  0.5209 -0.0934  0.2913
  311TIP3    H122568   5.198   2.448   5.840  1.3348  2.6508  0.8229
  311TIP3    H222569   5.231   2.514   5.707 -0.2814 -0.3885 -1.2156
  312TIP3   OH222570   4.147   5.234   0.125 -0.7121  0.7149 -0.5790
  312TIP3    H122571   4.140   5.180   0.047  1.6079 -2.7746  1.3673
  312TIP3    H222572   4.058   5.264   0.142 -1.9599 -1.7265 -2.3454
  313TIP3   OH222573   2.941   3.680   7.424  0.3338  0.0168 -0.0476
  313TIP3    H122574   3.001   3.743   7.465 -1.1348  1.1077  0.5476
  313TIP3    H222575   2.991   3.599   7.417  1.6260  0.6818  1.1009
  314TIP3   OH222576   6.021   0.813   1.679 -0.6515  0.0057  0.0121
  314TIP3    H122577   5.931   0.840   1.662 -0.2674  1.9668  0.9032
  314TIP3    H222578   6.065   0.822   1.594 -1.0676 -0.0604 -0.2153
  315TIP3   OH222579   5.783   2.291   1.654  0.2607 -0.0460 -0.8055
  315TIP3    H122580   5.762   2.342   1.732 -3.1555  0.5634 -1.9651
  315TIP3    H222581   5.862   2.332   1.620  0.2363  1.4800  0.8085
  316TIP3   OH222582   5.516   3.971   1.547 -0.4299  0.2904  0.3150
  316TIP3    H122583   5.470   4.013   1.619 -0.8567 -1.1467  0.9053
  316TIP3    H222584   5.578   3.911   1.589  0.8345  0.9710 -0.4946
  317TIP3   OH222585   1.985   1.082   7.368 -0.5133 -0.0895 -0.5146
  317TIP3    H122586   1.978   1.159   7.311  0.9933  1.1687  0.9115
  317TIP3    H222587   2.069   1.044   7.346 -0.1308  0.1344  0.5192
  318TIP3   OH222588   6.015   5.882   6.724  0.3590 -0.8254 -0.3272
  318TIP3    H122589   5.930   5.839   6.715  0.3408 -0.6925 -0.7848
  318TIP3    H222590   6.046   5.854   6.810 -1.0176  0.6483  0.7163
  319TIP3   OH222591   4.469   6.449   0.004 -0.1230  0.2236  0.1030
  319TIP3    H122592   4.527   6.523  -0.011 -0.6664  0.7267  0.4247
  319TIP3    H222593   4.402   6.457  -0.065 -1.4032  1.3010  1.3983
  320TIP3   OH222594   6.222   3.575   1.370  0.2089  0.2353 -0.2745
  320TIP3    H122595   6.142   3.555   1.320  0.4208 -3.5811  0.5588
  320TIP3    H222596   6.198   3.650   1.425 -2.9705 -0.9198  0.1289
  321TIP3   OH222597   6.193   2.103   1.547  0.0112  0.1015 -0.0812
  321TIP3    H122598   6.218   2.153   1.625  1.1102 -0.7392  0.1323
  321TIP3    H222599   6.250   2.026   1.548 -2.9766 -2.3443  0.7843
  322TIP3   OH222600   4.028   3.246   1.728  0.1714 -0.0540 -0.0870
  322TIP3    H122601   4.107   3.202   1.696 -0.0322 -0.7465  0.3390
  322TIP3    H222602   4.028   3.230   1.822 -0.2518  0.3107 -0.0220
  323TIP3   OH222603   1.079   1.435   1.530  0.3551 -0.6010 -0.1651
  323TIP3    H122604   1.066   1.364   1.594  1.1186  1.3123  2.2603
  323TIP3    H222605   1.042   1.512   1.572  0.7846  0.7571 -2.1380
  324TIP3   OH222606   1.476   0.164   7.869 -0.0517  0.2683  0.3004
  324TIP3    H122607   1.401   0.165   7.810  1.1447  0.6588 -1.2800
  324TIP3    H222608   1.437   0.160   7.956 -1.9295  1.1198 -0.4276
  325TIP3   OH222609   6.663   5.367   0.722  0.8079  0.0804 -0.1765
  325TIP3    H122610   6.595   5.303   0.706  2.3902 -1.0978 -2.8446
  325TIP3    H222611   6.641   5.442   0.667  0.5082  0.6672  0.7092
  326TIP3   OH222612   6.566   5.601   7.320 -0.1692  0.2195  0.0461
  326TIP3    H122613   6.481   5.579   7.282  1.0446 -1.0715 -2.0917
  326TIP3    H222614   6.610   5.653   7.252  1.1751 -0.0730  0.6617
  327TIP3   OH222615   5.025   6.072   7.064  0.2394 -0.3930 -0.2222
  327TIP3    H122616   5.004   6.043   7.153 -0.3328 -1.8123 -0.7798
  327TIP3    H222617   5.039   6.166   7.072 -0.5906 -0.3569  1.2405
  328TIP3   OH222618   5.013   5.593   0.211  0.3044 -0.9266 -0.0832
  328TIP3    H122619   4.992   5.625   0.123 -1.2860 -0.3766  0.4761
  328TIP3    H222620   4.973   5.506   0.215 -0.0458 -0.7480  0.2697
  329TIP3   OH222621   1.122   6.133   0.819  0.7734  0.7870  0.1743
  329TIP3    H122622   1.144   6.176   0.902  0.1090 -0.2271  0.8879
  329TIP3    H222623   1.175   6.053   0.819 -0.6582 -0.1920  0.5385
  330TIP3   OH222624   5.607   0.501   1.167 -0.2378  0.3152 -0.0327
  330TIP3    H122625   5.555   0.422   1.182  1.4241 -1.0434 -0.9649
  330TIP3    H222626   5.573   0.565   1.229 -1.4212 -1.2481  1.0035
  331TIP3   OH222627   2.151   2.436   6.724  0.4429  0.7565  0.3059
  331TIP3    H122628   2.222   2.374   6.740  2.5849  3.2818  1.4125
  331TIP3    H222629   2.095   2.430   6.801  0.0605 -0.4075 -0.0387
  332TIP3   OH222630   2.182   0.142   7.504 -0.0981  0.2584  0.2188
  332TIP3    H122631   2.260   0.156   7.450 -1.6743  1.0920 -2.0048
  332TIP3    H222632   2.170   0.226   7.550 -1.2741  1.2425 -1.7461
  333TIP3   OH222633   5.052   1.044   0.598  0.1158 -0.2959  0.1050
  333TIP3    H122634   5.017   1.110   0.539 -0.1078 -2.0117 -1.8186
  333TIP3    H222635   5.145   1.063   0.603  0.1586 -0.1472 -0.9101
  334TIP3   OH222636   6.675   4.126   6.551  0.3418  0.0492 -0.1582
  334TIP3    H122637   6.642   4.106   6.463 -0.4559 -0.6263  0.2833
  334TIP3    H222638   6.686   4.221   6.551 -2.5776  0.4604 -0.0139
  335TIP3   OH222639   1.165   6.204   7.701 -0.0975 -0.3090  0.3077
  335TIP3    H122640   1.100   6.249   7.755  1.1636  3.5891 -1.1310
  335TIP3    H222641   1.114   6.148   7.643 -1.9921  0.8380  0.8015
  336TIP3   OH222642   4.915   1.861   1.851 -0.0122 -0.0131 -0.2329
  336TIP3    H122643   4.859   1.909   1.912  0.3884 -1.0157  0.9821
  336TIP3    H222644   5.004   1.892   1.870  0.2249 -1.0289  0.4103
  337TIP3   OH222645   6.940   1.030   1.354  0.1988 -0.4543 -0.0827
  337TIP3    H122646   6.901   1.113   1.328  0.1665 -0.7118 -0.9002
  337TIP3    H222647   6.871   0.965   1.339  0.9143 -0.9239 -1.5846
  338TIP3   OH222648   3.945   6.190   1.300  0.0890  0.1022 -0.9973
  338TIP3    H122649   3.875   6.125   1.294 -0.0228  0.0087  0.6695
  338TIP3    H222650   3.947   6.215   1.393  3.0632 -0.8118 -0.6881
  339TIP3   OH222651   0.821   1.687   6.795  0.1788 -0.1946 -0.2443
  339TIP3    H122652   0.793   1.631   6.868 -2.5064  2.2151  0.7608
  339TIP3    H222653   0.757   1.669   6.726  0.2108  0.5380 -0.4669
  340TIP3   OH222654   1.997   4.694   6.189  0.7920  0.4101  0.0614
  340TIP3    H122655   1.960   4.736   6.112  1.6305  1.1507  0.0388
  340TIP3    H222656   2.077   4.744   6.207  0.1157  0.8814  2.0007
  341TIP3   OH222657   1.660   3.868   6.893 -0.1390 -0.4940 -0.0525
  341TIP3    H122658   1.752   3.862   6.920 -0.4146 -0.9782  0.8470
  341TIP3    H222659   1.661   3.920   6.813  0.7419  0.9016  0.8393
  342TIP3   OH222660   5.626   4.943   6.589 -0.3072  0.5191 -0.0044
  342TIP3    H122661   5.706   4.977   6.630 -0.0930  0.3829 -0.3086
  342TIP3    H222662   5.570   4.919   6.663  0.8172 -1.5196  0.2497
  343TIP3   OH222663   2.405   4.580   5.982 -0.0977  0.3992 -0.0375
  343TIP3    H122664   2.500   4.579   5.982 -0.0575  0.8189  1.8210
  343TIP3    H222665   2.380   4.488   5.971  0.5408  0.1454  0.5866
  344TIP3   OH222666   0.708   5.566   0.365 -0.1350 -0.1205 -0.0670
  344TIP3    H122667   0.783   5.521   0.404 -0.8180 -2.5494 -1.3864
  344TIP3    H222668   0.688   5.516   0.286 -3.0075  0.6098  0.1021
  345TIP3   OH222669   4.110   5.673   7.893 -0.3301  0.3063  0.2350
  345TIP3    H122670   4.047   5.744   7.904 -1.6159 -0.6580 -0.5687
  345TIP3    H222671   4.104   5.623   7.974 -0.2357  0.4891  0.3558
  346TIP3   OH222672   2.408   4.372   1.203  0.0562  0.4525 -0.8314
  346TIP3    H122673   2.328   4.331   1.170  0.6441  0.3624 -2.2015
  346TIP3    H222674   2.377   4.452   1.247 -0.8429  0.0305 -0.6770
  347TIP3   OH222675   2.091   1.421   0.814  0.4279 -0.3763  0.4020
  347TIP3    H122676   2.153   1.448   0.746  0.2720  0.1621  0.4666
  347TIP3    H222677   2.042   1.501   0.833 -0.5773 -0.8968  0.0464
  348TIP3   OH222678   4.956   6.175   0.710  0.1087 -0.0281 -0.0044
  348TIP3    H122679   4.964   6.265   0.680  1.2307 -0.0825  0.0969
  348TIP3    H222680   5.038   6.134   0.686  0.3171 -0.5575  1.4789
  349TIP3   OH222681   2.806   2.158   7.759  0.0673  0.5047 -0.2988
  349TIP3    H122682   2.712   2.176   7.767 -0.2659 -1.0696 -0.4784
  349TIP3    H222683   2.841   2.173   7.846 -0.3448  1.0254 -0.2134
  350TIP3   OH222684   4.590   2.516   7.992  0.2273 -0.4745 -0.1310
  350TIP3    H122685   4.565   2.431   7.957 -0.3810 -0.3122 -0.0968
  350TIP3    H222686   4.657   2.495   8.058  0.0854 -0.9233 -0.1235
  351TIP3   OH222687   5.597   5.829   7.869  0.2394 -0.3501 -0.3053
  351TIP3    H122688   5.688   5.839   7.897  0.4345 -1.3935 -0.5270
  351TIP3    H222689   5.579   5.908   7.818  1.0639 -0.1932 -0.3696
  352TIP3   OH222690   3.972   3.845   7.965 -0.0963 -0.1499 -0.5189
  352TIP3    H122691   3.896   3.859   7.908  2.6047  0.3185 -4.3942
  352TIP3    H222692   3.999   3.755   7.947  0.8602  0.0311 -0.0331
  353TIP3   OH222693   1.244   4.762   6.259 -0.2335  0.3724  0.1563
  353TIP3    H122694   1.247   4.757   6.163 -1.3876  0.1233  0.1192
  353TIP3    H222695   1.161   4.720   6.282  0.2954 -0.0598  1.3077
  354TIP3   OH222696   5.001   2.314   0.034 -0.2349 -0.6920 -0.6937
  354TIP3    H122697   4.918   2.346   0.070 -0.7061 -2.6538  0.1014
  354TIP3    H222698   5.045   2.393   0.003 -0.5246  0.9788  2.6650
  355TIP3   OH222699   6.128   5.931   7.195  0.3355  0.1869 -0.5146
  355TIP3    H122700   6.118   5.873   7.271 -0.8458  0.1387 -0.6777
  355TIP3    H222701   6.145   6.017   7.233  1.4615 -0.1427 -0.2526
  356TIP3   OH222702   5.198   1.754   1.221 -0.2799  0.0554 -0.0478
  356TIP3    H122703   5.172   1.726   1.309  0.2208  0.3339  0.1963
  356TIP3    H222704   5.134   1.714   1.163 -1.3044  0.8253  0.5388
  357TIP3   OH222705   3.882   5.347   0.133  0.0032 -0.7482 -0.2032
  357TIP3    H122706   3.801   5.307   0.166 -0.7256 -0.8859 -2.0517
  357TIP3    H222707   3.857   5.437   0.111  1.4715  0.7095  3.2932
  358TIP3   OH222708   4.363   3.387   6.578 -0.0505 -0.4263 -0.2258
  358TIP3    H122709   4.341   3.394   6.671 -2.5961  0.4055 -0.8149
  358TIP3    H222710   4.433   3.322   6.575 -2.0998 -3.0386  2.0306
  359TIP3   OH222711   4.305   0.526   1.322  0.7278 -0.4396 -0.1626
  359TIP3    H122712   4.377   0.581   1.291  0.1366 -0.4995 -1.7801
  359TIP3    H222713   4.346   0.442   1.343  1.0435 -0.8912 -2.2798
  360TIP3   OH222714   3.706   4.762   1.205 -0.1892  0.5545 -0.2850
  360TIP3    H122715   3.652   4.783   1.281  0.9871  1.1485  0.4258
  360TIP3    H222716   3.688   4.832   1.142 -0.2843  0.7196 -0.0741
  361TIP3   OH222717   2.011   5.926   5.905 -0.0086 -0.0776  0.3531
  361TIP3    H122718   1.970   5.967   5.982 -1.2458  1.2859 -0.9534
  361TIP3    H222719   1.973   5.974   5.831  1.5750 -0.9757 -1.0774
  362TIP3   OH222720   6.908   7.111   7.175 -0.5812 -0.2243 -0.0659
  362TIP3    H122721   6.997   7.080   7.156 -0.8186  0.2347 -2.1396
  362TIP3    H222722   6.853   7.034   7.164 -0.6088 -0.1723 -0.2954
  363TIP3   OH222723   5.133   4.668   7.707 -0.2573 -0.0028  0.4441
  363TIP3    H122724   5.197   4.670   7.635  0.0635  1.0192  0.7464
  363TIP3    H222725   5.157   4.742   7.762 -1.8129  0.5069  0.4759
  364TIP3   OH222726   1.472   2.042   7.830  0.3924 -0.2499  0.6005
  364TIP3    H122727   1.444   2.031   7.921  0.9064  0.0297  0.7992
  364TIP3    H222728   1.511   2.130   7.828  1.0658 -0.5445  0.2969
  365TIP3   OH222729   1.091   0.941   7.768  0.0366  0.0417  0.2126
  365TIP3    H122730   1.124   0.963   7.681  0.3630 -0.7132  0.1371
  365TIP3    H222731   1.004   0.903   7.753  0.6969 -1.5035  0.0503
  366TIP3   OH222732   3.580   2.177   0.077  0.3035 -0.4365  0.3142
  366TIP3    H122733   3.570   2.082   0.080 -0.3466 -0.4362 -1.1918
  366TIP3    H222734   3.630   2.198   0.157 -1.0194 -1.8225  1.5680
  367TIP3   OH222735   3.580   1.968   1.079 -0.2480 -0.2185  0.1255
  367TIP3    H122736   3.639   1.929   1.143  0.5521  1.0550  0.2034
  367TIP3    H222737   3.553   2.051   1.119 -0.1769  0.3350 -0.9408
  368TIP3   OH222738   4.206   5.712   6.176  0.9171  0.7162  0.1370
  368TIP3    H122739   4.224   5.783   6.115  0.3554  0.0614 -0.8298
  368TIP3    H222740   4.152   5.650   6.125 -1.3462  1.1119  1.8885
  369TIP3   OH222741   3.015   5.942   5.840 -0.2922 -0.4931  0.0782
  369TIP3    H122742   2.927   5.961   5.808 -0.7368 -3.2805 -0.6093
  369TIP3    H222743   3.001   5.877   5.910  1.2371 -2.0518 -0.9891
  370TIP3   OH222744   2.462   4.800   1.951 -0.1797  0.0979  0.2132
  370TIP3    H122745   2.438   4.761   2.035  0.6082 -0.1743  0.3156
  370TIP3    H222746   2.550   4.836   1.965  0.2502 -0.5590 -0.6872
  371TIP3   OH222747   6.330   2.784   2.024  0.0174  0.1599 -0.3908
  371TIP3    H122748   6.302   2.796   2.115  0.8652 -1.0716  0.0484
  371TIP3    H222749   6.339   2.873   1.990  0.5912  0.6641  1.0122
  372TIP3   OH222750   1.880   3.831   8.010  0.3446 -0.1236  0.0501
  372TIP3    H122751   1.858   3.912   7.964  0.8713  1.1565  1.9311
  372TIP3    H222752   1.795   3.794   8.034  0.0931 -0.2979 -1.0276
  373TIP3   OH222753   6.574   2.280   6.032  0.1173 -0.4539  0.5657
  373TIP3    H122754   6.605   2.362   5.993 -0.0140  0.1766  1.7328
  373TIP3    H222755   6.481   2.276   6.009  0.2006 -0.4520  0.2196
  374TIP3   OH222756   2.561   3.290   0.966  0.2218  0.9179  0.3550
  374TIP3    H122757   2.465   3.295   0.961  0.0884 -1.4710 -0.8302
  374TIP3    H222758   2.588   3.270   0.877  1.9928  2.8182  0.4009
  375TIP3   OH222759   2.770   4.577   1.331  0.1699  0.2777  0.0714
  375TIP3    H122760   2.865   4.575   1.340  0.1568 -0.2270  0.1563
  375TIP3    H222761   2.748   4.670   1.327  0.6986  0.3896 -0.3382
  376TIP3   OH222762   6.313   2.214   5.950  0.6962 -0.6085 -0.0136
  376TIP3    H122763   6.296   2.292   6.001 -0.1154 -0.4905 -0.4392
  376TIP3    H222764   6.245   2.152   5.977  0.1565 -0.4901 -1.0353
  377TIP3   OH222765   4.796   5.378   7.916 -0.5744  0.1761 -0.4149
  377TIP3    H122766   4.827   5.468   7.903  2.3346 -0.1374  2.8751
  377TIP3    H222767   4.856   5.324   7.866 -0.0211 -0.0700  0.4863
  378TIP3   OH222768   3.096   2.719   7.776  0.0985  0.2707  0.6520
  378TIP3    H122769   3.141   2.668   7.843  1.1311 -1.0455 -0.9668
  378TIP3    H222770   3.134   2.690   7.694 -1.8058  1.1224 -0.6134
  379TIP3   OH222771   6.801   5.117   6.373  0.2346  0.2903  1.2680
  379TIP3    H122772   6.738   5.046   6.361  0.6383  0.1030  0.1342
  379TIP3    H222773   6.868   5.102   6.307 -0.0978  2.1960  0.4207
  380TIP3   OH222774   5.484   0.155   6.209  0.1739  0.2684 -0.3297
  380TIP3    H122775   5.494   0.100   6.286 -0.8176  0.9834  0.3295
  380TIP3    H222776   5.566   0.144   6.161  0.1223 -1.5251 -0.0666
  381TIP3   OH222777   1.812   1.393   7.570 -0.3131  0.4004 -0.5125
  381TIP3    H122778   1.854   1.460   7.625 -0.3949 -0.5439  0.7339
  381TIP3    H222779   1.883   1.358   7.516 -0.3659  1.8434 -1.6056
  382TIP3   OH222780   2.612   5.209   1.590 -0.6208  0.5049  0.0965
  382TIP3    H122781   2.545   5.188   1.525 -1.5418 -1.4457  1.5960
  382TIP3    H222782   2.563   5.228   1.670  0.3086  5.3086 -0.1505
  383TIP3   OH222783   6.249   5.808   0.098 -0.0656  0.0598  0.2722
  383TIP3    H122784   6.279   5.739   0.156 -2.7023 -0.8595  0.6796
  383TIP3    H222785   6.245   5.886   0.153  0.8796  0.0479  0.3649
  384TIP3   OH222786   6.825   5.172   8.043  0.1910  0.0209 -0.1356
  384TIP3    H122787   6.797   5.108   8.109  0.1097  1.0115  0.8284
  384TIP3    H222788   6.907   5.136   8.009 -0.1547 -0.8841 -0.0379
  385TIP3   OH222789   3.734   6.210   2.034  0.0802 -0.1665 -0.4055
  385TIP3    H122790   3.691   6.171   1.957  0.9966  2.2368 -2.2394
  385TIP3    H222791   3.689   6.294   2.046  1.4870  0.5118  0.2369
  386TIP3   OH222792   5.517   6.364   0.008 -0.0755  0.4318 -0.5489
  386TIP3    H122793   5.562   6.280   0.018  1.7924  1.1775 -2.0931
  386TIP3    H222794   5.426   6.344   0.029  0.5804 -1.6049  0.7259
  387TIP3   OH222795   0.508   3.735   0.247  0.2986  0.0816  0.5845
  387TIP3    H122796   0.469   3.809   0.293 -0.9966  0.0013 -0.3489
  387TIP3    H222797   0.448   3.716   0.176  2.0475 -0.0483 -0.9262
  388TIP3   OH222798   1.807   2.543   0.544 -0.6085 -1.1603  0.4155
  388TIP3    H122799   1.834   2.505   0.461  2.6318 -1.6123  1.5259
  388TIP3    H222800   1.846   2.631   0.544  0.0612 -1.4306  1.7116
  389TIP3   OH222801   6.557   3.714   0.777 -0.5265  0.5653  0.4463
  389TIP3    H122802   6.462   3.726   0.774 -0.6053 -0.1735 -1.1093
  389TIP3    H222803   6.569   3.620   0.791  0.0055  0.7867  1.6032
  390TIP3   OH222804   0.893   6.310   0.318  0.1232 -0.3227 -0.1298
  390TIP3    H122805   0.818   6.354   0.358  0.6076  0.9209 -0.5374
  390TIP3    H222806   0.862   6.222   0.300 -1.5762  0.4542 -1.2074
  391TIP3   OH222807   6.933   4.844   7.864 -0.3150 -0.3666  0.0432
  391TIP3    H122808   6.839   4.843   7.846 -0.5132  1.8039  0.7072
  391TIP3    H222809   6.971   4.891   7.790 -0.2903  2.2133  1.5631
  392TIP3   OH222810   5.346   1.663   1.994  1.0158  0.1992  0.7488
  392TIP3    H122811   5.356   1.600   2.065 -1.4448 -0.0108  0.9868
  392TIP3    H222812   5.322   1.745   2.037 -0.6504  0.0352  0.1975
  393TIP3   OH222813   6.969   6.350   7.577  0.2847  0.1527 -0.4699
  393TIP3    H122814   7.047   6.383   7.622  1.7545 -1.1089 -1.9379
  393TIP3    H222815   7.002   6.281   7.520 -2.1112 -1.2644 -0.2744
  394TIP3   OH222816   2.524   0.157   1.881  0.2150  0.5291  0.2856
  394TIP3    H122817   2.601   0.107   1.852  0.3257  1.1092 -0.4505
  394TIP3    H222818   2.454   0.092   1.888  0.0642  0.4116 -1.7526
  395TIP3   OH222819   0.445   2.334   2.261  0.1854  0.0625  0.3696
  395TIP3    H122820   0.457   2.392   2.186 -0.2461  0.2069  0.4098
  395TIP3    H222821   0.472   2.248   2.228  0.0603  0.1352  0.0680
  396TIP3   OH222822   5.878   2.288   7.612 -0.2438 -0.4203 -0.5232
  396TIP3    H122823   5.960   2.332   7.588 -0.0040 -0.5538  0.0179
  396TIP3    H222824   5.813   2.358   7.613 -0.2127 -0.3694 -1.2903
  397TIP3   OH222825   0.088   2.088   7.016 -0.2778  0.0505 -0.6770
  397TIP3    H122826   0.167   2.050   6.978 -0.5168  0.7521 -1.9304
  397TIP3    H222827   0.057   2.021   7.077 -0.5290 -1.7032 -2.5830
  398TIP3   OH222828   4.716   1.623   0.567  0.6833 -0.0385 -0.8390
  398TIP3    H122829   4.625   1.627   0.596  0.4337  0.5299 -1.6610
  398TIP3    H222830   4.722   1.540   0.519  0.0249  0.8855 -2.5839
  399TIP3   OH222831   0.375   3.056   7.020 -0.3485 -0.0290  0.4592
  399TIP3    H122832   0.450   3.081   6.967 -0.2489 -2.4578 -0.6676
  399TIP3    H222833   0.299   3.078   6.966 -0.3786  0.4823  0.7048
  400TIP3   OH222834   5.897   6.528   0.227  0.3654  0.0867  0.7104
  400TIP3    H122835   5.973   6.516   0.170 -1.1976  0.1590 -1.4757
  400TIP3    H222836   5.886   6.623   0.232 -0.5904  0.0424 -0.3976
  401TIP3   OH222837   5.891   6.052   7.649 -0.3093 -0.0306  0.1402
  401TIP3    H122838   5.952   5.996   7.696 -0.8618 -0.8114 -0.0616
  401TIP3    H222839   5.817   5.995   7.628 -0.5964  0.6116 -0.6249
  402TIP3   OH222840   3.647   5.632   0.675 -0.3557 -0.1594  0.4941
  402TIP3    H122841   3.723   5.651   0.730 -1.2268  0.6668  1.4774
  402TIP3    H222842   3.627   5.540   0.693 -0.8879  0.2085  1.9676
  403TIP3   OH222843   3.257   6.569   7.310 -0.0805  0.1894  0.3424
  403TIP3    H122844   3.248   6.474   7.322  0.1342  0.2225  0.8145
  403TIP3    H222845   3.277   6.580   7.217 -0.8243 -0.1754  0.1354
  404TIP3   OH222846   4.954   5.409   6.622 -0.0656  1.0129  0.0304
  404TIP3    H122847   4.960   5.436   6.714  0.6810  0.6384  0.0976
  404TIP3    H222848   4.869   5.442   6.593 -1.9314 -1.7012  1.8082
  405TIP3   OH222849   2.467   4.111   0.423  0.3166  0.2880 -0.4397
  405TIP3    H122850   2.491   4.050   0.493 -0.0851  0.8656  0.2133
  405TIP3    H222851   2.550   4.148   0.394  0.6720 -1.3585 -1.5909
  406TIP3   OH222852   1.264   1.576   1.735 -0.0678 -0.0751 -0.9499
  406TIP3    H122853   1.172   1.600   1.724 -0.4870 -1.2732 -0.1746
  406TIP3    H222854   1.263   1.482   1.752  1.1797  0.1533  0.6313
  407TIP3   OH222855   2.275   3.924   1.766  0.2407  0.1254  0.0022
  407TIP3    H122856   2.364   3.928   1.799  0.2158 -1.0846  0.2515
  407TIP3    H222857   2.224   3.885   1.837 -0.9926  3.0115  0.8204
  408TIP3   OH222858   4.216   3.334   8.083  0.5670 -0.1769 -0.1472
  408TIP3    H122859   4.131   3.307   8.049  1.2208 -2.3069 -0.2137
  408TIP3    H222860   4.195   3.398   8.151 -1.1908 -1.6695  0.8017
  409TIP3   OH222861   5.513   5.574   7.809  0.0160 -0.7019 -0.0228
  409TIP3    H122862   5.538   5.662   7.836  0.9607 -1.1251  0.5387
  409TIP3    H222863   5.510   5.523   7.890 -0.6508 -1.1645 -0.3206
  410TIP3   OH222864   0.178   6.132   7.575  0.5846 -0.1721 -0.4303
  410TIP3    H122865   0.236   6.056   7.561  0.5099 -0.4437  0.6844
  410TIP3    H222866   0.094   6.105   7.537 -0.2767 -1.7887  2.3333
  411TIP3   OH222867   1.021   1.133   8.006  0.5321  0.1477  0.3060
  411TIP3    H122868   0.928   1.139   7.983  0.3630 -0.1677  0.8753
  411TIP3    H222869   1.067   1.156   7.925 -0.0143 -2.2348 -0.7649
  412TIP3   OH222870   0.811   4.953   0.011  0.3043  0.2916  0.7485
  412TIP3    H122871   0.781   4.911   0.091 -0.4384  0.4543  0.5633
  412TIP3    H222872   0.771   5.039   0.012  2.0770  1.1540  1.2829
  413TIP3   OH222873   1.164   6.933   0.762  0.5994 -0.5182 -0.1329
  413TIP3    H122874   1.168   6.845   0.725  0.4655 -0.6223  0.0974
  413TIP3    H222875   1.082   6.935   0.811  0.5848 -0.2536 -0.1638
  414TIP3   OH222876   4.428   5.439   0.819 -0.0258  0.0872  0.3982
  414TIP3    H122877   4.351   5.407   0.866 -0.1247 -1.3151 -0.6665
  414TIP3    H222878   4.436   5.530   0.846 -0.7620 -0.3484  2.2165
  415TIP3   OH222879   4.396   1.941   1.209  0.2027 -0.0450 -0.0800
  415TIP3    H122880   4.367   1.853   1.232  0.6112 -0.3414 -0.6629
  415TIP3    H222881   4.319   1.996   1.223  0.4398 -0.1658  2.0371
  416TIP3   OH222882   6.627   1.218   0.878  0.0765 -0.4864 -0.0807
  416TIP3    H122883   6.652   1.145   0.935  2.1257 -0.4762 -0.8974
  416TIP3    H222884   6.623   1.179   0.790 -1.6330 -0.1856 -0.1758
  417TIP3   OH222885   2.227   2.764   2.106  0.0579 -0.1236  0.3792
  417TIP3    H122886   2.315   2.778   2.141  0.4684 -1.0175 -0.2311
  417TIP3    H222887   2.168   2.802   2.171  0.6555 -3.1540  2.9638
  418TIP3   OH222888   6.567   6.723   6.538 -0.9759  0.5365  0.6558
  418TIP3    H122889   6.560   6.804   6.589 -0.2164  0.7910  0.3810
  418TIP3    H222890   6.477   6.696   6.523 -1.2616  1.6433  0.2783
  419TIP3   OH222891   2.421   7.109   6.598 -0.1742  0.3433 -0.6837
  419TIP3    H122892   2.426   7.083   6.506 -1.3531  0.7984 -0.8870
  419TIP3    H222893   2.504   7.154   6.614 -0.1147  0.6045 -1.6376
  420TIP3   OH222894   0.245   6.769   5.439  0.0070  0.1283 -0.2315
  420TIP3    H122895   0.161   6.726   5.427  0.3034 -0.6757  0.5159
  420TIP3    H222896   0.308   6.697   5.447  0.6480  0.7119  0.0710
  421TIP3   OH222897   1.427   6.397   6.313  0.2420  0.6993  0.4550
  421TIP3    H122898   1.483   6.397   6.390 -1.2518  2.1637  1.6043
  421TIP3    H222899   1.394   6.308   6.307  0.9917  0.3692  1.0108
  422TIP3   OH222900   2.763   0.068   5.817  0.3882 -0.2355  0.2129
  422TIP3    H122901   2.704   0.113   5.878  1.1667  0.5535  0.3987
  422TIP3    H222902   2.705   0.013   5.765 -0.2735 -1.1493  1.8327
  423TIP3   OH222903   2.453   4.732   1.104  0.2550  0.5538 -0.5201
  423TIP3    H122904   2.442   4.656   1.161  3.0474  1.0462  0.8303
  423TIP3    H222905   2.370   4.780   1.112  0.2019  0.1362  2.4340
  424TIP3   OH222906   0.938   6.257   7.861  0.3762 -0.0858  0.5980
  424TIP3    H122907   0.930   6.305   7.943 -0.0225  0.9531 -0.0206
  424TIP3    H222908   0.901   6.171   7.880  0.4355  0.0863  1.5477
  425TIP3   OH222909   6.025   3.014   7.329 -0.2003  0.0457  0.1293
  425TIP3    H122910   5.993   3.100   7.357 -1.2422  0.4358 -1.9963
  425TIP3    H222911   6.110   3.033   7.289 -0.6369  0.2014 -0.7593
  426TIP3   OH222912   5.841   2.151   7.827 -0.3897 -0.1422  0.5569
  426TIP3    H122913   5.804   2.074   7.784  1.3790 -0.1972 -1.0064
  426TIP3    H222914   5.870   2.207   7.755  1.5281  0.3733  1.6531
  427TIP3   OH222915   3.316   0.109   0.119  0.0163  0.0272 -0.5074
  427TIP3    H122916   3.401   0.079   0.153  0.0630  0.1098 -0.5493
  427TIP3    H222917   3.272   0.147   0.195  0.2817  0.5685 -0.6181
  428TIP3   OH222918   3.861   0.806   6.607 -0.0217 -0.0742  0.5611
  428TIP3    H122919   3.935   0.827   6.664 -1.2500 -0.0334  2.2266
  428TIP3    H222920   3.898   0.750   6.539  1.6028  0.2675  1.1286
  429TIP3   OH222921   6.306   5.507   7.268  0.5005  0.3938 -0.3138
  429TIP3    H122922   6.361   5.429   7.257  3.1905  1.9664  1.0062
  429TIP3    H222923   6.295   5.516   7.362 -2.1424  0.1784 -0.5080
  430TIP3   OH222924   4.093   4.348   1.134 -0.3222  0.8952  0.1158
  430TIP3    H122925   4.037   4.370   1.059 -0.1353 -0.8241 -0.5849
  430TIP3    H222926   4.169   4.405   1.124 -0.6961  1.3115 -0.4979
  431TIP3   OH222927   2.988   3.843   2.440 -0.0136 -0.1795 -0.1041
  431TIP3    H122928   2.964   3.767   2.494  1.0310  0.1739  0.9016
  431TIP3    H222929   3.045   3.807   2.373  0.0254 -0.3804  0.0344
  432TIP3   OH222930   3.222   4.433   1.600 -0.0176 -0.0168  0.2930
  432TIP3    H122931   3.240   4.509   1.657 -1.2834  0.7637 -0.3169
  432TIP3    H222932   3.147   4.390   1.641 -0.8194  0.4432 -0.6695
  433TIP3   OH222933   3.468   1.623   0.652 -0.5792  0.2318 -0.0093
  433TIP3    H122934   3.463   1.653   0.743 -0.7104  0.0434  0.0478
  433TIP3    H222935   3.528   1.684   0.610 -1.7054  1.2819 -0.1758
  434TIP3   OH222936   1.224   3.482   0.845 -0.4810 -0.4235 -0.1497
  434TIP3    H122937   1.292   3.465   0.911  0.1873 -0.2114 -0.7646
  434TIP3    H222938   1.196   3.395   0.817  0.3786 -0.5376 -0.7206
  435TIP3   OH222939   1.554   3.399   1.321  0.1141 -0.1127 -0.0158
  435TIP3    H122940   1.520   3.478   1.363  0.8879 -1.1324  2.6878
  435TIP3    H222941   1.479   3.364   1.273 -0.2542  2.1710 -1.2373
  436TIP3   OH222942   2.239   3.034   0.142 -0.2886  0.0138  0.0224
  436TIP3    H122943   2.317   3.077   0.108 -0.9647  0.1621 -1.4045
  436TIP3    H222944   2.269   2.947   0.167  0.3350  0.0679 -0.5111
  437TIP3   OH222945   5.711   4.420   1.367  0.6579  0.4608 -0.3855
  437TIP3    H122946   5.626   4.378   1.379  1.0909 -0.7687 -1.4478
  437TIP3    H222947   5.767   4.378   1.432  1.1705 -0.8984 -1.6579
  438TIP3   OH222948   2.513   5.847   0.438  0.1707  0.1677 -0.6436
  438TIP3    H122949   2.529   5.845   0.532 -2.2576  0.1503 -0.1572
  438TIP3    H222950   2.557   5.768   0.404 -0.3363 -0.7572  0.7510
  439TIP3   OH222951   0.439   2.857   1.547 -0.2163 -0.1361 -0.2601
  439TIP3    H122952   0.363   2.890   1.499  0.3962  1.6831 -0.0643
  439TIP3    H222953   0.415   2.866   1.639 -0.5402 -1.5390 -0.1895
  440TIP3   OH222954   2.178   1.596   1.367  0.1402  0.0663 -0.4845
  440TIP3    H122955   2.149   1.594   1.458  0.3977  1.3882 -0.3467
  440TIP3    H222956   2.118   1.538   1.321 -0.1727 -0.3900  0.4767
  441TIP3   OH222957   1.234   6.903   1.091 -0.4064  0.0666  0.3303
  441TIP3    H122958   1.139   6.906   1.074 -0.1705  1.2625 -0.9717
  441TIP3    H222959   1.261   6.995   1.087  1.2091 -0.4428 -1.8109
  442TIP3   OH222960   4.342   4.617   6.389  0.3331 -0.5033 -0.1183
  442TIP3    H122961   4.318   4.530   6.356  0.3217  0.0205 -1.5487
  442TIP3    H222962   4.264   4.670   6.375  0.5056 -0.1361  0.3087
  443TIP3   OH222963   6.178   6.214   0.072 -0.0429  0.0084 -0.0928
  443TIP3    H122964   6.110   6.211   0.005  0.5020 -2.1193 -0.6391
  443TIP3    H222965   6.131   6.220   0.155 -0.8420 -0.0425 -0.5318
  444TIP3   OH222966   3.959   3.102   7.842  0.4668 -0.0287 -0.7137
  444TIP3    H122967   3.992   3.185   7.806  0.7424 -1.0065 -2.8800
  444TIP3    H222968   4.019   3.036   7.809 -0.2108 -1.1951  0.3212
  445TIP3   OH222969   2.792   5.128   6.711  0.5173 -0.5046 -0.1212
  445TIP3    H122970   2.836   5.050   6.746 -0.7931 -0.2365  2.3599
  445TIP3    H222971   2.821   5.199   6.768  1.0297  0.7363 -1.8325
  446TIP3   OH222972   0.567   3.635   7.281 -0.5582  0.2733  0.1730
  446TIP3    H122973   0.635   3.571   7.299 -0.2558  0.0799 -1.4776
  446TIP3    H222974   0.579   3.657   7.188 -2.1710  0.8969  0.0806
  447TIP3   OH222975   4.289   0.356   0.857  0.7047 -0.1477 -0.0759
  447TIP3    H122976   4.229   0.398   0.795  1.6616  0.4785 -0.6043
  447TIP3    H222977   4.271   0.399   0.940  0.0545 -0.3435 -0.1039
  448TIP3   OH222978   5.560   1.306   6.244 -0.5266  0.0443  0.5686
  448TIP3    H122979   5.574   1.217   6.210 -1.3223 -0.0111  0.3706
  448TIP3    H222980   5.648   1.343   6.250 -0.1965 -0.7074  0.5129
  449TIP3   OH222981   6.733   6.677   8.030 -0.0398  0.0190  0.4427
  449TIP3    H122982   6.758   6.725   8.108  0.7034  0.1152  0.1558
  449TIP3    H222983   6.798   6.703   7.964 -1.0997  0.5210 -0.4231
  450TIP3   OH222984   5.970   7.042   7.197 -0.0324  0.5507  0.4523
  450TIP3    H122985   5.963   7.121   7.250 -1.9231  0.5466  0.2924
  450TIP3    H222986   6.053   7.051   7.151 -0.1577  2.4096  0.5059
  451TIP3   OH222987   4.253   6.010   0.954 -0.1581 -0.0198  0.4052
  451TIP3    H122988   4.310   6.040   0.883  0.8581  0.2891  1.3237
  451TIP3    H222989   4.166   6.039   0.929  0.1942  0.1469 -0.6763
  452TIP3   OH222990   2.018   1.298   0.479 -0.4088  0.2424 -0.1891
  452TIP3    H122991   2.001   1.283   0.572  0.7187  2.4099  0.4284
  452TIP3    H222992   1.931   1.315   0.442 -0.8456 -0.4155  0.4898
  453TIP3   OH222993   6.028   6.312   7.277  0.5927  0.2605 -0.2837
  453TIP3    H122994   6.048   6.327   7.184  3.1908  1.1045  0.3124
  453TIP3    H222995   5.945   6.356   7.291  0.1806  0.1890 -2.1845
  454TIP3   OH222996   5.361   4.454   6.412 -0.0822 -0.1109  0.1176
  454TIP3    H122997   5.401   4.444   6.325  1.8991 -0.8047  1.0347
  454TIP3    H222998   5.406   4.530   6.450 -1.7158  0.8692  0.1646
  455TIP3   OH222999   2.824   2.975   6.399  0.2428 -0.3461  0.1463
  455TIP3    H123000   2.774   2.926   6.334 -0.3127  0.1296  0.2080
  455TIP3    H223001   2.763   3.041   6.432  0.2640 -1.0965  1.7412
  456TIP3   OH223002   5.047   4.040   6.817  0.3392  0.1792  0.3292
  456TIP3    H123003   4.969   4.022   6.766  0.9976  1.8440 -1.3827
  456TIP3    H223004   5.014   4.065   6.904 -0.8787 -1.1436  0.2772
  457TIP3   OH223005   3.751   0.416   1.330  0.3544 -0.2665  0.3898
  457TIP3    H123006   3.845   0.429   1.315  0.3538  0.9971  1.2602
  457TIP3    H223007   3.731   0.334   1.286  1.6445 -0.0243 -0.7470
  458TIP3   OH223008   2.115   1.339   1.065  0.3365 -0.2278 -0.4402
  458TIP3    H123009   2.080   1.351   0.977 -2.6118 -2.2921  0.3036
  458TIP3    H223010   2.071   1.405   1.118  2.6245  1.4839 -0.4973
  459TIP3   OH223011   5.511   0.251   0.264 -0.1841  0.4072 -0.3422
  459TIP3    H123012   5.451   0.179   0.288 -1.7237  1.5771 -0.5275
  459TIP3    H223013   5.572   0.211   0.202 -0.4197 -0.9769  0.2775
  460TIP3   OH223014   3.724   5.413   1.855  0.5621 -1.1668  0.2568
  460TIP3    H123015   3.638   5.445   1.885  0.8710 -0.2454  0.1934
  460TIP3    H223016   3.760   5.367   1.930  1.1132  0.6919  1.1952
  461TIP3   OH223017   6.482   2.538   6.705  0.1965  0.0167  0.6574
  461TIP3    H123018   6.495   2.590   6.625  1.5979  0.8653  1.3965
  461TIP3    H223019   6.546   2.468   6.698 -1.1956 -1.2528  0.0166
  462TIP3   OH223020   5.901   6.904   2.007 -0.0534  0.5706  1.1084
  462TIP3    H123021   5.893   6.808   2.003  1.5683  0.4009  1.4316
  462TIP3    H223022   5.954   6.920   2.085  0.9092  1.6587  0.2499
  463TIP3   OH223023   2.673   3.468   0.375  0.1417 -0.1610  0.1274
  463TIP3    H123024   2.637   3.545   0.330  0.1938 -0.5010 -0.5044
  463TIP3    H223025   2.625   3.465   0.457 -1.6549 -0.8661 -0.8794
  464TIP3   OH223026   6.208   5.042   0.995  0.3155 -0.3808 -0.7858
  464TIP3    H123027   6.171   5.038   1.083  1.8766  2.7557  0.1936
  464TIP3    H223028   6.153   5.105   0.948  0.7887 -0.3620 -1.3335
  465TIP3   OH223029   2.379   4.780   7.830  0.0303 -0.2361  0.3468
  465TIP3    H123030   2.413   4.746   7.912 -0.0749  0.0774  0.5243
  465TIP3    H223031   2.304   4.833   7.856  0.7269  0.8775  0.1762
  466TIP3   OH223032   5.619   0.238   6.483 -0.0386 -0.0367  0.4173
  466TIP3    H123033   5.628   0.148   6.516  2.0358  0.5685  1.7098
  466TIP3    H223034   5.707   0.261   6.454 -0.6832  1.3713 -0.5247
  467TIP3   OH223035   5.898   2.637   7.565 -0.3545  0.4660 -0.2750
  467TIP3    H123036   5.952   2.564   7.537 -2.5975 -0.5915 -2.1581
  467TIP3    H223037   5.812   2.599   7.582 -0.8667  2.2377  1.5578
  468TIP3   OH223038   0.387   6.736   7.869 -0.1144 -0.0807 -0.6206
  468TIP3    H123039   0.408   6.644   7.881 -1.2089 -0.2529  0.1801
  468TIP3    H223040   0.305   6.737   7.821 -0.5409  0.4431  0.0893
  469TIP3   OH223041   0.744   4.267   1.031  0.0333  0.6057  0.0525
  469TIP3    H123042   0.746   4.213   1.109  1.1775 -1.3675 -1.2673
  469TIP3    H223043   0.670   4.327   1.045 -0.5312 -0.4801  2.0815
  470TIP3   OH223044   6.504   2.743   1.124 -0.3487 -0.2714 -0.1389
  470TIP3    H123045   6.593   2.725   1.095 -0.5577 -0.2272 -0.8156
  470TIP3    H223046   6.487   2.676   1.191  0.6193  0.4829  0.8914
  471TIP3   OH223047   1.575   2.999   7.431 -0.2011 -0.3137 -0.3551
  471TIP3    H123048   1.650   2.959   7.387  0.2901 -0.3377  0.4865
  471TIP3    H223049   1.541   2.930   7.487  1.3489  0.7176  1.9836
  472TIP3   OH223050   3.056   3.194   8.127 -0.7912  0.2912  0.1017
  472TIP3    H123051   3.062   3.266   8.189  0.4751  1.0442 -0.8532
  472TIP3    H223052   3.100   3.121   8.172  1.1419  1.1461 -0.2891
  473TIP3   OH223053   6.838   6.150   6.211 -0.4000 -0.2557 -0.3457
  473TIP3    H123054   6.815   6.175   6.122 -1.1184 -0.2124 -0.1482
  473TIP3    H223055   6.768   6.091   6.239 -1.0079  0.9494  0.7369
  474TIP3   OH223056   1.084   3.923   7.016 -0.4266 -0.1863 -0.4375
  474TIP3    H123057   1.099   4.010   7.054  0.8091 -0.8662  0.7379
  474TIP3    H223058   1.171   3.884   7.012 -0.7188 -0.7253 -2.6608
  475TIP3   OH223059   3.790   0.013   5.872  0.1194 -0.4367 -0.0199
  475TIP3    H123060   3.728  -0.053   5.841 -0.5298 -0.4563  1.2528
  475TIP3    H223061   3.865  -0.038   5.903  0.2019 -0.4952 -0.3148
  476TIP3   OH223062   2.974   7.060   7.518  0.3731 -0.1026 -0.1153
  476TIP3    H123063   2.973   7.089   7.426  1.1770 -0.6247 -0.2958
  476TIP3    H223064   3.066   7.056   7.541  0.2446 -1.4158  0.2542
  477TIP3   OH223065   5.729   2.697   1.358  0.1185 -0.5072 -0.0810
  477TIP3    H123066   5.712   2.778   1.310 -1.0249  0.7191  2.2101
  477TIP3    H223067   5.781   2.724   1.433 -1.1370 -1.6967  1.2707
  478TIP3   OH223068   2.541   6.088   7.331  0.5958 -0.1312 -0.1930
  478TIP3    H123069   2.541   6.076   7.426 -0.4463 -0.4050 -0.2118
  478TIP3    H223070   2.578   6.175   7.317 -0.5989  0.5129  0.5616
  479TIP3   OH223071   3.488   0.024   1.056  0.6563 -0.0164  0.4691
  479TIP3    H123072   3.555   0.052   0.994  0.5215 -0.4983  0.0984
  479TIP3    H223073   3.536  -0.026   1.122  0.5616 -1.1269 -0.2751
  480TIP3   OH223074   5.517   1.572   0.258 -0.2645  0.2736  0.1949
  480TIP3    H123075   5.574   1.523   0.316  1.2572 -1.3590 -2.4531
  480TIP3    H223076   5.543   1.663   0.269  0.4007 -0.0523  1.5465
  481TIP3   OH223077   2.264   5.636   6.841  0.2459  0.0560  0.5412
  481TIP3    H123078   2.332   5.639   6.774  0.3470  0.0727  0.6427
  481TIP3    H223079   2.277   5.552   6.885 -1.6403 -1.3189 -1.3229
  482TIP3   OH223080   2.321   3.321   1.831  0.2149  0.3388 -0.0842
  482TIP3    H123081   2.323   3.257   1.761 -0.7057  1.2399 -0.9895
  482TIP3    H223082   2.303   3.404   1.787  0.1336  1.0181  1.1643
  483TIP3   OH223083   1.430   5.162   0.761  0.2046  0.3131  0.6675
  483TIP3    H123084   1.389   5.225   0.821 -1.5853 -0.5907  0.4803
  483TIP3    H223085   1.524   5.175   0.773 -0.1057  2.0205  1.6675
  484TIP3   OH223086   3.211   7.119   6.077  0.8894  0.0279 -0.4881
  484TIP3    H123087   3.194   7.026   6.092  0.2633  0.2919  0.5722
  484TIP3    H223088   3.149   7.145   6.009 -0.5663  0.1692  0.8414
  485TIP3   OH223089   3.708   6.631   6.848 -0.1994  0.1165  0.1690
  485TIP3    H123090   3.785   6.591   6.808 -0.4117  0.5868 -0.7254
  485TIP3    H223091   3.725   6.725   6.843 -0.5601  0.2028  0.5319
  486TIP3   OH223092   0.713   3.522   6.772  0.3602 -0.1704 -0.1362
  486TIP3    H123093   0.770   3.587   6.731 -0.9269  0.3309 -1.2068
  486TIP3    H223094   0.698   3.457   6.704  0.6569 -0.9807  0.5489
  487TIP3   OH223095   1.005   4.801   7.359 -0.5377 -1.1548 -0.0288
  487TIP3    H123096   1.052   4.869   7.310 -2.7176 -0.7957 -1.8548
  487TIP3    H223097   0.949   4.850   7.419 -1.1844 -1.3508 -0.4535
  488TIP3   OH223098   3.653   2.062   1.368  0.5870 -0.9182 -0.1994
  488TIP3    H123099   3.618   1.980   1.402  1.9170 -0.5159  2.4341
  488TIP3    H223100   3.748   2.047   1.365  0.8381  0.4372  0.2032
  489TIP3   OH223101   5.667   6.779   1.149  0.6786 -0.5272  0.7362
  489TIP3    H123102   5.573   6.794   1.157  0.5584 -0.0217 -1.0777
  489TIP3    H223103   5.705   6.823   1.225 -0.3645  1.8452 -0.0078
  490TIP3   OH223104   6.187   1.138   7.537 -0.3226 -0.7640 -0.3485
  490TIP3    H123105   6.252   1.098   7.596 -0.7798  1.0049  1.4555
  490TIP3    H223106   6.120   1.173   7.596  0.6678  3.7986 -1.5841
  491TIP3   OH223107   4.187   0.209   1.349 -0.0853  0.1216 -0.2915
  491TIP3    H123108   4.141   0.138   1.394 -2.1759  0.7281 -1.3224
  491TIP3    H223109   4.231   0.166   1.276 -0.7383 -0.2412 -0.4844
  492TIP3   OH223110   2.467   0.573   2.122  0.1890  0.0125 -0.0908
  492TIP3    H123111   2.449   0.488   2.162 -1.4793 -0.2543 -1.3205
  492TIP3    H223112   2.549   0.601   2.162  0.1304 -1.5955  1.2630
  493TIP3   OH223113   1.500   0.660   1.185  0.3872 -0.1749 -0.1369
  493TIP3    H123114   1.460   0.628   1.104 -1.2338 -0.5078  0.7588
  493TIP3    H223115   1.588   0.689   1.158 -0.3382  0.3533 -2.1405
  494TIP3   OH223116   2.127   5.496   7.893  0.0713 -0.0627  0.4223
  494TIP3    H123117   2.039   5.469   7.867  0.5398 -1.5808  0.3254
  494TIP3    H223118   2.115   5.581   7.935 -1.1017  1.0542 -1.9496
  495TIP3   OH223119   5.058   3.435   1.822 -0.3221 -0.1458 -0.3970
  495TIP3    H123120   5.036   3.342   1.818 -2.0851  0.2665 -1.1301
  495TIP3    H223121   5.009   3.469   1.897  1.3096 -0.0027  0.6728
  496TIP3   OH223122   1.991   0.316   7.376 -0.3983 -0.5342  0.5823
  496TIP3    H123123   1.962   0.249   7.437  1.5794 -1.4546  0.5724
  496TIP3    H223124   1.999   0.271   7.292 -0.2451  0.0262  0.2886
  497TIP3   OH223125   3.805   5.072   1.527  0.6796 -0.0631 -0.2499
  497TIP3    H123126   3.716   5.098   1.549  1.1589  1.3474  0.1563
  497TIP3    H223127   3.847   5.153   1.496  0.7394 -1.4125 -4.2904
  498TIP3   OH223128   1.371   2.258   6.753  0.4907 -0.6112  0.8670
  498TIP3    H123129   1.310   2.264   6.680  1.6545  1.1811 -0.0228
  498TIP3    H223130   1.333   2.313   6.822  0.3710 -0.7218  0.8907
  499TIP3   OH223131   0.958   6.786   0.842 -0.4534  0.1760  0.3185
  499TIP3    H123132   0.980   6.702   0.884 -1.0562 -0.1123  0.0689
  499TIP3    H223133   0.911   6.761   0.762  2.6892  0.6225 -1.8350
  500TIP3   OH223134   3.873   3.729   7.454  0.0573 -0.7046  0.4284
  500TIP3    H123135   3.933   3.661   7.423  0.3981  0.6244 -1.9939
  500TIP3    H223136   3.803   3.731   7.389  0.4478  1.7661  0.0177
  501TIP3   OH223137   6.589   0.679   1.071  0.1216 -0.1673 -0.3654
  501TIP3    H123138   6.551   0.629   0.998  0.3162  0.5509 -0.9743
  501TIP3    H223139   6.552   0.767   1.061  1.2420  0.3202 -0.4583
  502TIP3   OH223140   4.268   6.573   0.356  0.1442  0.3939 -0.0447
  502TIP3    H123141   4.283   6.479   0.348 -2.4525 -0.1648  0.6966
  502TIP3    H223142   4.225   6.583   0.441 -0.6346  2.0980 -0.5981
  503TIP3   OH223143   3.863   2.432   7.867  0.3541 -0.2279  0.6372
  503TIP3    H123144   3.903   2.416   7.782  0.9532  1.5106  0.5424
  503TIP3    H223145   3.895   2.361   7.922  0.1281 -1.2525 -0.5168
  504TIP3   OH223146   4.897   5.410   7.470  0.5424  0.3831 -0.2505
  504TIP3    H123147   4.965   5.438   7.532  0.2592  0.7251 -0.0921
  504TIP3    H223148   4.842   5.350   7.520 -0.9811  2.3326  0.5210
  505TIP3   OH223149   3.706   1.563   1.030 -0.5735  0.0019 -0.3301
  505TIP3    H123150   3.771   1.572   0.960 -0.7970  0.5623 -0.4699
  505TIP3    H223151   3.742   1.495   1.087 -0.9334 -1.2869 -1.5978
  506TIP3   OH223152   2.109   4.431   0.023  0.2406  0.2140 -0.5717
  506TIP3    H123153   2.139   4.435   0.113 -0.5808  1.2971 -0.3142
  506TIP3    H223154   2.114   4.339  -0.001  2.2862  0.1486 -0.0678
  507TIP3   OH223155   3.337   6.367   5.518  0.4752 -0.5636  0.7282
  507TIP3    H123156   3.250   6.374   5.479  0.6428 -0.4035  0.3774
  507TIP3    H223157   3.342   6.276   5.549  1.1700 -1.4208 -1.6630
  508TIP3   OH223158   1.568   5.260   6.468 -0.3996 -0.3661  0.3942
  508TIP3    H123159   1.487   5.249   6.419 -0.3556 -0.8198  0.4147
  508TIP3    H223160   1.633   5.285   6.403 -1.0357  2.3815  0.7019
  509TIP3   OH223161   6.838   5.719   5.888  0.1084  0.2189 -0.0380
  509TIP3    H123162   6.796   5.796   5.926 -2.0704 -0.9843  0.1679
  509TIP3    H223163   6.770   5.681   5.831  0.7319 -2.1151  0.6793
  510TIP3   OH223164   3.315   1.805   7.508 -0.2142 -0.1881 -0.0532
  510TIP3    H123165   3.224   1.777   7.500 -0.4033  0.1559  0.7501
  510TIP3    H223166   3.320   1.887   7.459 -0.5006  0.1273  0.4386
  511TIP3   OH223167   2.573   6.701   7.260  0.2872 -0.2964  0.2128
  511TIP3    H123168   2.589   6.777   7.203  0.2582 -1.0072 -0.7673
  511TIP3    H223169   2.632   6.634   7.227  0.0855 -0.8057  0.8720
  512TIP3   OH223170   2.328   4.599   1.321 -0.0946  0.5226  0.4065
  512TIP3    H123171   2.362   4.665   1.381 -0.1292  0.1643  0.8273
  512TIP3    H223172   2.246   4.570   1.361 -0.3035  0.5391 -0.0001
  513TIP3   OH223173   5.231   1.373   6.832  0.3732  0.2901  0.6898
  513TIP3    H123174   5.263   1.326   6.756  1.0196  0.8645  0.5973
  513TIP3    H223175   5.224   1.464   6.804  0.4644  0.4834  1.2636
  514TIP3   OH223176   3.475   3.596   0.690 -0.0821  0.2214 -0.4116
  514TIP3    H123177   3.531   3.613   0.614  1.1845  1.2065  0.6913
  514TIP3    H223178   3.408   3.664   0.686 -1.0396 -0.7438 -1.5383
  515TIP3   OH223179   4.489   4.133   7.030 -0.2584  0.1684 -0.3100
  515TIP3    H123180   4.537   4.124   6.947  0.3606 -3.7096  0.2904
  515TIP3    H223181   4.557   4.153   7.094 -0.6720  2.6506 -0.5428
  516TIP3   OH223182   1.957   2.541   1.191  0.8805  0.0475 -0.1293
  516TIP3    H123183   1.935   2.471   1.254 -1.5202  0.9488  0.1587
  516TIP3    H223184   1.942   2.501   1.105  2.1360 -0.5654 -0.0785
  517TIP3   OH223185   6.840   5.097   6.683 -0.0816  0.9733  0.1746
  517TIP3    H123186   6.825   5.048   6.603  2.5512  0.0258  0.1674
  517TIP3    H223187   6.874   5.033   6.745  3.3386  2.6114  0.2227
  518TIP3   OH223188   3.812   1.730   0.333 -0.0025 -0.0461 -0.6039
  518TIP3    H123189   3.794   1.659   0.270  0.9273  0.0219 -0.9640
  518TIP3    H223190   3.881   1.694   0.389  0.5155  0.5982 -0.8263
  519TIP3   OH223191   4.720   2.896   6.173  0.1951 -0.4071  0.0218
  519TIP3    H123192   4.668   2.897   6.254  0.6354 -0.9936  0.3236
  519TIP3    H223193   4.804   2.936   6.198  0.2255 -0.3262 -0.2128
  520TIP3   OH223194   6.112   0.427   1.309  0.4702 -0.0181 -0.7590
  520TIP3    H123195   6.175   0.498   1.301  0.5204 -0.1300 -1.4225
  520TIP3    H223196   6.110   0.387   1.222 -0.5805  0.0395 -0.7719
  521TIP3   OH223197   6.062   5.702   7.383 -0.7829  0.6010 -0.5333
  521TIP3    H123198   6.015   5.631   7.339 -1.0212  1.2044 -1.2725
  521TIP3    H223199   6.042   5.691   7.476 -0.0698 -0.8506 -0.5250
  522TIP3   OH223200   4.803   4.634   1.666  0.1976 -0.3226 -0.0146
  522TIP3    H123201   4.765   4.613   1.751  1.3442  0.3820  0.7018
  522TIP3    H223202   4.757   4.577   1.604  0.4001 -1.9514  1.2688
  523TIP3   OH223203   5.900   3.734   1.805 -0.2090 -0.3078 -0.3079
  523TIP3    H123204   5.879   3.828   1.810  1.8673  0.2824 -1.2467
  523TIP3    H223205   5.873   3.699   1.889 -1.3918  1.0623 -0.0737
  524TIP3   OH223206   4.124   1.671   6.702 -0.0787  0.9197  0.1535
  524TIP3    H123207   4.067   1.704   6.771 -0.1561  0.8968  0.1007
  524TIP3    H223208   4.213   1.682   6.737 -0.1604 -0.4653  0.8591
  525TIP3   OH223209   1.377   0.609   1.532  0.6624  0.8724  0.6049
  525TIP3    H123210   1.454   0.600   1.589  0.4187  1.5296  1.0535
  525TIP3    H223211   1.412   0.645   1.450  1.1904 -1.1947 -0.1223
  526TIP3   OH223212   1.126   5.942   7.211 -0.3438 -0.5423  0.4066
  526TIP3    H123213   1.182   5.868   7.236  1.3574  0.3697 -0.5273
  526TIP3    H223214   1.104   5.924   7.120  0.8146  0.4844 -0.1100
  527TIP3   OH223215   5.338   0.791   0.810  0.1641  0.3493 -0.2477
  527TIP3    H123216   5.392   0.716   0.784  1.3698  0.2551  2.2813
  527TIP3    H223217   5.400   0.863   0.816 -0.4321  0.8183  0.3228
  528TIP3   OH223218   3.278   1.362   6.001  0.4203 -0.3702 -0.0585
  528TIP3    H123219   3.210   1.329   5.942  1.6626 -0.3073 -1.5840
  528TIP3    H223220   3.346   1.295   6.000 -0.1418 -1.0874  2.5294
  529TIP3   OH223221   4.655   2.766   0.092  0.7103  0.0130  0.9003
  529TIP3    H123222   4.602   2.819   0.151  0.7556 -1.2588  2.1360
  529TIP3    H223223   4.653   2.678   0.130  1.6971 -0.6003 -0.3749
  530TIP3   OH223224   0.974   2.743   2.157 -0.2050 -0.4562 -0.0118
  530TIP3    H123225   0.972   2.656   2.197  0.5637 -0.7505 -0.5866
  530TIP3    H223226   0.926   2.732   2.074 -0.3611 -0.2544  0.0502
  531TIP3   OH223227   2.690   6.524   7.071 -0.4370 -0.0213 -0.1267
  531TIP3    H123228   2.756   6.499   7.007 -1.0156 -0.8288 -0.4203
  531TIP3    H223229   2.614   6.551   7.019 -0.9414 -0.7693  0.2061
  532TIP3   OH223230   3.005   0.315   7.738 -0.2109 -0.4560  0.2687
  532TIP3    H123231   3.063   0.351   7.671 -0.3970  2.4561  1.4796
  532TIP3    H223232   2.916   0.329   7.704 -0.2938  0.6264  0.8812
  533TIP3   OH223233   0.300   4.867   7.047 -0.0058 -0.1553  0.1066
  533TIP3    H123234   0.348   4.840   6.969  1.4058 -0.5339  1.0665
  533TIP3    H223235   0.229   4.804   7.056  0.4982 -0.7743 -0.2387
  534TIP3   OH223236   7.005   3.044   0.982 -0.3030  0.5003 -0.2210
  534TIP3    H123237   7.016   3.083   1.069 -1.6479  0.0502  0.1757
  534TIP3    H223238   7.021   2.951   0.996 -0.2505  0.4649 -0.5193
  535TIP3   OH223239   6.453   2.638   6.407 -0.0192 -0.3445  0.5418
  535TIP3    H123240   6.545   2.620   6.428 -0.3584 -1.1904  1.3962
  535TIP3    H223241   6.445   2.622   6.313  0.6013 -0.7374  0.5529
  536TIP3   OH223242   2.599   4.889   1.291  0.2509  0.4483 -0.1818
  536TIP3    H123243   2.548   4.873   1.371  0.9545  1.2907  0.4529
  536TIP3    H223244   2.549   4.845   1.222 -0.7221  0.2740  0.6033
  537TIP3   OH223245   3.641   0.987   1.322  0.0142 -0.8104  0.4736
  537TIP3    H123246   3.696   1.025   1.390  1.4978  0.5101 -1.3368
  537TIP3    H223247   3.693   0.916   1.285 -0.7533 -1.4927  0.6818
  538TIP3   OH223248   6.834   0.532   2.142 -0.2618 -0.0405  0.6710
  538TIP3    H123249   6.751   0.511   2.184 -0.8261 -2.2112 -1.2732
  538TIP3    H223250   6.851   0.456   2.086  2.0577  1.2264 -0.4545
  539TIP3   OH223251   2.721   2.938   1.477 -0.0453 -0.0572  0.0855
  539TIP3    H123252   2.814   2.917   1.471 -0.3486 -1.0958 -1.4467
  539TIP3    H223253   2.691   2.889   1.554  0.8187  1.0078  1.1500
  540TIP3   OH223254   4.882   5.909   6.835  0.3765 -0.1283  0.4676
  540TIP3    H123255   4.816   5.937   6.899  0.7806 -2.1225  1.8560
  540TIP3    H223256   4.846   5.936   6.751 -1.7346 -0.2554  1.2586
  541TIP3   OH223257   4.818   4.868   1.983 -0.0181 -0.0041  0.0110
  541TIP3    H123258   4.780   4.942   2.031 -1.1003  0.7684 -1.9174
  541TIP3    H223259   4.832   4.902   1.895  2.0053 -1.3314 -0.2478
  542TIP3   OH223260   3.976   2.200   8.096  0.5154  0.2139 -0.0378
  542TIP3    H123261   4.056   2.159   8.062 -0.4732 -1.9168  0.0076
  542TIP3    H223262   3.942   2.137   8.159 -0.9362  1.3001  0.3224
  543TIP3   OH223263   4.507   4.756   0.346 -0.0922  0.0571 -0.8912
  543TIP3    H123264   4.580   4.779   0.289  0.5696  0.4742  0.0912
  543TIP3    H223265   4.490   4.664   0.328  2.3309 -0.7814  0.5734
  544TIP3   OH223266   4.834   1.735   2.147  0.5574  0.2501  0.2842
  544TIP3    H123267   4.751   1.692   2.124  0.1475  0.2857  1.6061
  544TIP3    H223268   4.824   1.824   2.114  0.1401  0.2024  0.2686
  545TIP3   OH223269   6.648   5.046   0.131  0.7508 -0.0426 -0.4881
  545TIP3    H123270   6.716   5.088   0.184  1.5942 -2.0496  0.1366
  545TIP3    H223271   6.567   5.063   0.179  1.3407 -0.7622  0.8270
  546TIP3   OH223272   1.677   3.790   7.744  0.1902 -0.6482  0.0600
  546TIP3    H123273   1.600   3.733   7.741  0.9592 -1.6789 -0.4336
  546TIP3    H223274   1.651   3.868   7.694  0.0129 -1.6803 -1.5303
  547TIP3   OH223275   4.793   1.084   7.265  0.0027 -0.8032 -0.3792
  547TIP3    H123276   4.854   1.011   7.273  0.7044 -0.3657 -1.3744
  547TIP3    H223277   4.790   1.102   7.171  0.3490  0.8410 -0.1105
  548TIP3   OH223278   1.414   4.344   7.349  0.1610 -0.1713  0.1548
  548TIP3    H123279   1.433   4.347   7.256  1.6067  1.2427  0.4529
  548TIP3    H223280   1.323   4.317   7.354  1.0699 -4.1626 -1.4990
  549TIP3   OH223281   6.921   5.971   0.839  0.2839  0.2995  0.0069
  549TIP3    H123282   7.016   5.984   0.829  0.0173  0.8408 -2.5805
  549TIP3    H223283   6.883   6.051   0.801 -1.2145 -0.7944 -0.8663
  550TIP3   OH223284   6.584   2.931   7.944 -0.2403  0.0400 -0.0582
  550TIP3    H123285   6.667   2.979   7.936  0.0706 -0.5188 -0.2376
  550TIP3    H223286   6.559   2.943   8.036  1.5319 -2.1382  0.8216
  551TIP3   OH223287   4.838   3.899   1.074 -0.2175  0.5185  0.4897
  551TIP3    H123288   4.881   3.912   1.159 -0.1538 -0.0848  0.5575
  551TIP3    H223289   4.895   3.838   1.027  0.7266  2.2965 -0.7432
  552TIP3   OH223290   4.176   5.986   7.389  0.3604 -0.0897 -0.1659
  552TIP3    H123291   4.163   5.989   7.484 -0.6750 -0.1847 -0.2906
  552TIP3    H223292   4.098   5.940   7.356  0.7029 -0.0363 -1.0603
  553TIP3   OH223293   1.578   3.689   5.890 -0.0112  0.1884  0.1707
  553TIP3    H123294   1.671   3.686   5.911  0.3814 -1.8724 -1.5307
  553TIP3    H223295   1.563   3.779   5.859  1.9002 -0.0175 -1.5140
  554TIP3   OH223296   6.124   1.035   1.804 -1.0479  0.1138  0.1785
  554TIP3    H123297   6.089   0.964   1.751 -3.0210  0.8016  0.4931
  554TIP3    H223298   6.070   1.035   1.884 -2.1162  2.8501 -0.4395
  555TIP3   OH223299   5.515   5.591   0.644 -0.1274  0.4788  0.1747
  555TIP3    H123300   5.603   5.617   0.671  0.1927  0.9172 -1.1914
  555TIP3    H223301   5.528   5.507   0.600 -0.6778 -0.3724  1.5830
  556TIP3   OH223302   1.355   3.599   6.642 -0.8922 -0.5693 -0.6523
  556TIP3    H123303   1.329   3.685   6.677 -1.0598 -0.5149 -0.9120
  556TIP3    H223304   1.385   3.617   6.554 -1.0098 -0.7901 -0.7382
  557TIP3   OH223305   1.835   2.883   6.730 -0.2262  0.3028  0.1195
  557TIP3    H123306   1.802   2.808   6.779 -2.4609  1.5821  0.6747
  557TIP3    H223307   1.800   2.960   6.775 -0.1183  1.6268 -1.8848
  558TIP3   OH223308   3.642   1.592   7.208  0.0441  0.5560  0.0584
  558TIP3    H123309   3.567   1.642   7.242 -1.0969  0.5271 -2.2019
  558TIP3    H223310   3.695   1.658   7.162 -0.5321  0.0296 -1.4153
  559TIP3   OH223311   6.644   2.750   0.308 -0.3928 -0.0696  0.3904
  559TIP3    H123312   6.659   2.771   0.400 -1.1579 -0.1335  0.5342
  559TIP3    H223313   6.549   2.751   0.298 -0.2872  1.4734 -0.7672
  560TIP3   OH223314   0.088   5.901   0.459 -0.2572  0.8527 -0.0152
  560TIP3    H123315   0.062   5.863   0.543  1.9370 -1.7695 -0.3890
  560TIP3    H223316   0.012   5.886   0.402 -0.6049 -0.2336  0.6937
  561TIP3   OH223317   5.967   4.929   0.726 -0.0432  0.3976 -0.4638
  561TIP3    H123318   5.940   4.873   0.654 -1.4359  2.3579 -1.5680
  561TIP3    H223319   5.995   5.010   0.684 -2.2909  2.1546  1.1749
  562TIP3   OH223320   4.239   2.226   7.744  0.3112 -0.6776 -0.0555
  562TIP3    H123321   4.332   2.210   7.730  0.3473 -0.9001  0.3965
  562TIP3    H223322   4.198   2.141   7.731  0.3771 -0.9560  1.3193
  563TIP3   OH223323   3.707   0.268   7.880  0.1848 -0.1477 -0.2731
  563TIP3    H123324   3.792   0.261   7.837  0.5473 -0.7088  0.5117
  563TIP3    H223325   3.715   0.215   7.959 -0.4794  0.8176  0.4733
  564TIP3   OH223326   3.868   1.729   1.361  0.1160  0.3780  0.0094
  564TIP3    H123327   3.846   1.782   1.285  0.5846  2.0872  1.0199
  564TIP3    H223328   3.959   1.753   1.382 -0.2389  0.5032  1.5261
  565TIP3   OH223329   6.456   2.916   6.457  0.0447 -0.5614  0.0806
  565TIP3    H123330   6.470   2.821   6.449  1.3718 -0.4113  0.3297
  565TIP3    H223331   6.428   2.943   6.369  4.4048 -0.5220 -1.5839
  566TIP3   OH223332   0.394   6.856   0.579  0.3422  0.6804  0.1513
  566TIP3    H123333   0.410   6.778   0.632  2.0496  0.4075 -0.6867
  566TIP3    H223334   0.327   6.830   0.517  0.4822  0.0496  0.2563
  567TIP3   OH223335   1.039   1.479   7.041  0.0033 -0.2610 -0.0085
  567TIP3    H123336   1.058   1.403   7.097 -0.8329 -0.2172  0.3546
  567TIP3    H223337   0.998   1.442   6.963 -2.8099 -0.0505  1.2648
  568TIP3   OH223338   5.942   0.125   0.122 -0.2413  0.0623  0.4509
  568TIP3    H123339   5.959   0.093   0.033  0.7199 -2.0256  1.3152
  568TIP3    H223340   5.899   0.210   0.109 -1.9172 -1.0318 -2.0485
  569TIP3   OH223341   4.063   6.397   7.452  0.0196 -0.5901 -0.3255
  569TIP3    H123342   4.050   6.486   7.420 -0.8323 -1.0039 -1.2073
  569TIP3    H223343   4.146   6.400   7.500  0.3537  0.5114 -0.9374
  570TIP3   OH223344   6.678   5.493   0.467  0.4586 -0.6332  0.6911
  570TIP3    H123345   6.710   5.466   0.381  0.3440  1.8093 -0.1932
  570TIP3    H223346   6.757   5.515   0.516  0.4292  0.3129  0.3362
  571TIP3   OH223347   3.395   4.667   6.357  0.5915  0.3360 -0.0013
  571TIP3    H123348   3.348   4.584   6.365 -0.3531  0.8944  0.5276
  571TIP3    H223349   3.480   4.644   6.322  0.4689 -0.8987  0.4816
  572TIP3   OH223350   2.434   1.651   7.834  0.5413 -0.3058 -0.4465
  572TIP3    H123351   2.346   1.662   7.869  0.5490  0.7688 -0.7374
  572TIP3    H223352   2.489   1.708   7.888  0.8729 -0.1383 -0.9504
  573TIP3   OH223353   4.175   4.077   1.238  0.5237 -0.2041 -0.0327
  573TIP3    H123354   4.133   4.020   1.173 -1.2824  0.1571  0.7636
  573TIP3    H223355   4.156   4.166   1.209  1.6205  0.0013 -0.1787
  574TIP3   OH223356   3.660   4.404   0.316  0.7823 -0.0416 -0.5083
  574TIP3    H123357   3.567   4.386   0.329  1.1228 -0.7403  1.2671
  574TIP3    H223358   3.676   4.382   0.224 -1.0525  1.3419 -1.2052
  575TIP3   OH223359   4.819   1.117   6.997  0.6536  0.3521  0.1095
  575TIP3    H123360   4.807   1.208   6.968  1.7198  0.7273  0.7822
  575TIP3    H223361   4.761   1.066   6.941 -0.3741  1.5028  0.0684
  576TIP3   OH223362   6.908   1.546   6.188  0.0792  0.4177 -0.0625
  576TIP3    H123363   6.883   1.453   6.183  0.5381  0.2616  0.4587
  576TIP3    H223364   6.932   1.570   6.099 -0.2232  0.0884 -0.2353
  577TIP3   OH223365   0.592   6.249   6.876 -0.8550  0.2549  0.4168
  577TIP3    H123366   0.639   6.249   6.960 -0.7052  1.1551  0.3409
  577TIP3    H223367   0.659   6.272   6.811 -1.4705  2.0222  0.3672
  578TIP3   OH223368   4.652   2.065   1.231 -0.4221  0.0678 -0.4655
  578TIP3    H123369   4.729   2.021   1.267 -1.2474 -0.2483  1.0367
  578TIP3    H223370   4.583   1.998   1.232 -1.2440  0.8789  0.2405
  579TIP3   OH223371   2.450   7.046   6.319 -0.3385 -0.4508  0.7037
  579TIP3    H123372   2.465   6.968   6.265  0.6011  0.1388  0.0904
  579TIP3    H223373   2.438   7.117   6.255 -1.9486 -0.1942  1.2332
  580TIP3   OH223374   0.688   4.647   7.476  0.1643 -0.2426 -0.4503
  580TIP3    H123375   0.718   4.738   7.478 -1.0570  0.1729 -0.3061
  580TIP3    H223376   0.595   4.652   7.496  0.0742 -1.5317 -0.4674
  581TIP3   OH223377   3.298   0.982   6.907  0.4152  0.0659  0.0198
  581TIP3    H123378   3.209   1.015   6.894 -0.6426 -2.5850 -0.2602
  581TIP3    H223379   3.302   0.962   7.001  1.3337  1.6541  0.3518
  582TIP3   OH223380   2.132   1.672   7.891 -0.8891  0.5022 -0.4513
  582TIP3    H123381   2.078   1.728   7.947  0.8082 -0.0431  1.8411
  582TIP3    H223382   2.157   1.598   7.946  2.7080  1.0361 -1.1031
  583TIP3   OH223383   1.980   0.493   7.593  0.3646 -0.3130  0.3486
  583TIP3    H123384   1.973   0.449   7.509 -1.6197 -2.6899  1.6207
  583TIP3    H223385   2.052   0.449   7.638  0.1287 -0.4089  0.6344
  584TIP3   OH223386   4.308   3.810   7.703 -1.0019  0.2925  0.1428
  584TIP3    H123387   4.234   3.764   7.664  0.5824  0.1205 -2.9401
  584TIP3    H223388   4.300   3.900   7.670  1.0042 -0.1305 -1.6694
  585TIP3   OH223389   6.447   5.203   0.648  0.4789  0.2769 -0.4852
  585TIP3    H123390   6.385   5.137   0.678  2.2694 -0.5462  1.6673
  585TIP3    H223391   6.486   5.166   0.569  0.7772 -0.8408  0.1685
  586TIP3   OH223392   1.048   2.529   7.456  0.3149  1.0219  0.1440
  586TIP3    H123393   1.066   2.463   7.389  1.0204  0.3858  0.9400
  586TIP3    H223394   0.963   2.566   7.431  0.3808  0.5238 -0.8772
  587TIP3   OH223395   2.710   0.694   0.131  0.8565 -0.3098  0.2132
  587TIP3    H123396   2.778   0.663   0.071  2.1571  0.3799  1.2747
  587TIP3    H223397   2.751   0.765   0.180 -0.5701 -0.0127  1.0573
  588TIP3   OH223398   0.322   5.090   1.934 -0.3004 -0.0471  0.6213
  588TIP3    H123399   0.369   5.009   1.913  0.0313 -0.4855  2.8350
  588TIP3    H223400   0.374   5.159   1.893  0.6036 -0.7726  0.4974
  589TIP3   OH223401   4.994   3.765   0.354 -0.6848 -0.4300  0.2277
  589TIP3    H123402   4.984   3.848   0.307 -1.6264 -0.0283  1.0972
  589TIP3    H223403   5.029   3.705   0.288 -0.7737  0.4339 -0.6429
  590TIP3   OH223404   4.011   0.748   6.392  0.0408  0.9778  0.6054
  590TIP3    H123405   4.053   0.673   6.350 -0.2849  0.6495  0.8565
  590TIP3    H223406   3.983   0.804   6.319 -1.6446 -0.1883  0.3026
  591TIP3   OH223407   0.941   3.753   7.992 -0.5422  0.1693 -0.5168
  591TIP3    H123408   0.862   3.722   7.948  0.3094  1.5575 -3.2466
  591TIP3    H223409   0.928   3.847   8.001  0.2813  0.2321  0.1532
  592TIP3   OH223410   6.108   4.072   6.177  0.5666  0.0826 -0.0082
  592TIP3    H123411   6.019   4.059   6.143  0.3657  1.0557  0.1390
  592TIP3    H223412   6.164   4.068   6.100  0.0572  2.9415 -0.6438
  593TIP3   OH223413   1.471   5.578   2.147  0.3407 -0.2365 -0.8862
  593TIP3    H123414   1.469   5.655   2.205 -1.0329  0.7461 -2.1644
  593TIP3    H223415   1.452   5.504   2.205 -1.3188  0.7442 -0.0969
  594TIP3   OH223416   1.062   1.855   1.078 -0.1541  0.0998  0.7802
  594TIP3    H123417   1.129   1.921   1.093  0.4035 -0.7240  2.1007
  594TIP3    H223418   0.986   1.886   1.128 -0.3516  0.4170  0.2872
  595TIP3   OH223419   6.308   0.616   0.302 -0.2186 -0.2977  0.2094
  595TIP3    H123420   6.303   0.572   0.386  0.7317  0.2162  0.5547
  595TIP3    H223421   6.356   0.555   0.245  0.0916 -0.1912  0.3557
  596TIP3   OH223422   0.629   0.479   1.305 -0.0556 -0.4710 -0.3701
  596TIP3    H123423   0.712   0.459   1.262  0.4767  0.1379  0.3405
  596TIP3    H223424   0.627   0.575   1.309 -0.3410 -0.5045  0.4494
  597TIP3   OH223425   5.942   5.882   1.564  0.3485 -0.0987 -0.0603
  597TIP3    H123426   5.942   5.793   1.529 -1.6338  0.2825 -1.1882
  597TIP3    H223427   5.849   5.903   1.575  0.8000  1.5993  0.8214
  598TIP3   OH223428   2.735   6.322   0.348 -0.0178 -0.2557  0.1152
  598TIP3    H123429   2.816   6.295   0.304  0.5938 -0.3638  1.2734
  598TIP3    H223430   2.667   6.266   0.310  0.9868 -2.4743  1.4136
  599TIP3   OH223431   1.358   0.252   6.639  0.5258 -0.1888 -0.0443
  599TIP3    H123432   1.298   0.216   6.573  1.0084 -1.0964  0.0022
  599TIP3    H223433   1.414   0.179   6.663  1.1471  0.4528  0.4920
  600TIP3   OH223434   6.975   6.370   7.253 -0.8341  0.3405  0.2169
  600TIP3    H123435   7.007   6.347   7.165  0.2763  0.1076  0.6643
  600TIP3    H223436   6.885   6.337   7.255 -0.2425 -1.4019 -0.1825
  601TIP3   OH223437   3.646   5.897   7.356  0.5213 -0.0190 -0.3506
  601TIP3    H123438   3.587   5.931   7.424  0.1775  0.7148 -1.0015
  601TIP3    H223439   3.589   5.882   7.281  0.9875 -0.3681 -0.6373
  602TIP3   OH223440   1.943   2.294   8.129  0.1702  0.3193 -0.5055
  602TIP3    H123441   1.916   2.356   8.197 -0.9216 -0.2613 -0.3773
  602TIP3    H223442   1.990   2.347   8.065 -1.0167  1.3622 -0.5614
  603TIP3   OH223443   1.709   5.918   6.549  0.1886  0.4269  0.6782
  603TIP3    H123444   1.650   5.857   6.505 -0.7209  2.9288 -1.9235
  603TIP3    H223445   1.651   5.968   6.607  0.0830  1.4368 -0.2547
  604TIP3   OH223446   5.916   5.352   6.744 -0.2819 -0.8862  0.3264
  604TIP3    H123447   5.924   5.360   6.649  0.6941  0.8381  0.5258
  604TIP3    H223448   5.822   5.342   6.760 -0.5930  0.2311 -0.7324
  605TIP3   OH223449   2.595   4.935   1.657 -0.3535  0.2216  0.2888
  605TIP3    H123450   2.652   5.011   1.643 -0.1421 -0.3470 -2.4819
  605TIP3    H223451   2.655   4.863   1.672 -0.4063  0.0565 -0.2591
  606TIP3   OH223452   2.197   5.004   7.524  0.1896  0.1208 -0.1320
  606TIP3    H123453   2.110   4.969   7.539 -0.1073  0.7100 -0.4470
  606TIP3    H223454   2.245   4.932   7.481 -1.0995  0.7825 -2.9349
  607TIP3   OH223455   3.126   2.244   6.424 -0.3490 -0.3852 -0.4247
  607TIP3    H123456   3.111   2.150   6.417 -2.4190 -0.1409  0.0303
  607TIP3    H223457   3.153   2.258   6.515  1.2758 -0.6553 -0.8369
  608TIP3   OH223458   4.539   6.093   0.969  0.0261 -0.0501  0.1161
  608TIP3    H123459   4.568   6.057   0.885  2.2019  1.5234  0.1046
  608TIP3    H223460   4.483   6.168   0.945  3.3541  2.5732 -0.1709
  609TIP3   OH223461   4.355   6.420   1.177  0.5031  0.1421 -0.6623
  609TIP3    H123462   4.415   6.389   1.245 -0.9738 -0.7710  0.2855
  609TIP3    H223463   4.268   6.399   1.211 -0.2655 -0.9206 -3.1013
  610TIP3   OH223464   4.822   0.299   5.957  0.0319 -0.0412 -0.1432
  610TIP3    H123465   4.867   0.338   6.032  3.2595 -1.9359 -0.8943
  610TIP3    H223466   4.741   0.262   5.995  1.2245 -0.3735  2.3122
  611TIP3   OH223467   1.591   5.513   1.416 -0.3256  0.1095  0.5677
  611TIP3    H123468   1.498   5.506   1.397 -0.5532 -3.0276  2.2803
  611TIP3    H223469   1.595   5.551   1.504 -0.2641 -2.8917  1.9621
  612TIP3   OH223470   4.330   5.128   1.132  0.5289  0.1092 -0.0206
  612TIP3    H123471   4.350   5.146   1.040  0.1457  0.7625  0.0200
  612TIP3    H223472   4.415   5.130   1.175  0.5631  1.3143 -0.1111
  613TIP3   OH223473   0.879   1.758   5.929 -0.1250  0.0963  0.5128
  613TIP3    H123474   0.968   1.723   5.937 -0.2094  0.1600  2.0910
  613TIP3    H223475   0.889   1.853   5.931 -0.2644  0.1022  1.4677
  614TIP3   OH223476   5.441   1.521   1.716  0.0241 -0.7218 -0.2226
  614TIP3    H123477   5.478   1.432   1.711  0.0905 -0.7310  0.4268
  614TIP3    H223478   5.444   1.543   1.809  1.3874  0.5445 -0.5387
  615TIP3   OH223479   5.507   0.056   1.363 -0.0286  0.5244  0.2284
  615TIP3    H123480   5.463   0.079   1.281 -0.0227 -0.6393 -0.1119
  615TIP3    H223481   5.501   0.136   1.416 -1.5978  0.7425 -0.2161
  616TIP3   OH223482   3.317   0.144   7.368  0.0912 -0.1196  0.3582
  616TIP3    H123483   3.365   0.227   7.376 -1.1863  1.0812 -2.7978
  616TIP3    H223484   3.316   0.125   7.275 -0.6652 -3.1512  0.8613
  617TIP3   OH223485   6.495   6.898   6.963  0.1012 -0.1606 -0.0256
  617TIP3    H123486   6.488   6.969   6.899 -0.3627 -0.0730  0.1202
  617TIP3    H223487   6.411   6.853   6.958 -0.4117  0.5933  1.3929
  618TIP3   OH223488   0.064   1.869   8.036 -0.3216  0.1025  0.5719
  618TIP3    H123489   0.016   1.924   8.098  1.0282  0.4735  1.3162
  618TIP3    H223490   0.114   1.809   8.090  0.6545  0.2372 -0.1390
  619TIP3   OH223491   3.596   3.364   1.300 -0.4030  0.2697  0.1794
  619TIP3    H123492   3.555   3.435   1.250 -0.1806  0.9631  0.9432
  619TIP3    H223493   3.690   3.374   1.282 -0.2848  0.7622  1.0076
  620TIP3   OH223494   4.968   1.097   6.566  0.4561 -0.0841 -0.6267
  620TIP3    H123495   4.969   1.107   6.471 -0.4491 -0.1611 -0.6547
  620TIP3    H223496   4.980   1.186   6.599  0.9073 -0.0756 -0.8110
  621TIP3   OH223497   1.073   6.097   7.447 -0.2773  0.3208 -0.5157
  621TIP3    H123498   1.165   6.103   7.473 -0.1979  1.7173 -1.0099
  621TIP3    H223499   1.075   6.072   7.355 -0.4812 -1.5815 -0.0559
  622TIP3   OH223500   1.292   2.692   2.071  0.1014 -0.1970  0.2459
  622TIP3    H123501   1.361   2.639   2.031  0.0852  1.2377 -1.8260
  622TIP3    H223502   1.211   2.643   2.053 -0.2426  1.4808 -3.8904
  623TIP3   OH223503   4.160   6.082   0.553 -0.2759  0.5218  0.2490
  623TIP3    H123504   4.244   6.061   0.594  1.1290  2.6728 -1.2948
  623TIP3    H223505   4.122   6.150   0.608 -0.7306 -0.0164  0.6077
  624TIP3   OH223506   1.717   5.902   7.700 -0.7046 -0.5914  0.3821
  624TIP3    H123507   1.767   5.977   7.665  0.3296 -0.0729  2.7753
  624TIP3    H223508   1.658   5.878   7.629  0.8307  0.7519 -1.4733
  625TIP3   OH223509   6.721   1.659   7.186 -0.3896 -0.1075  0.2556
  625TIP3    H123510   6.730   1.754   7.194  3.2654 -0.3435  1.0830
  625TIP3    H223511   6.738   1.642   7.094  0.1453  0.0060  0.3264
  626TIP3   OH223512   4.199   4.114   7.075  0.4955  0.1969 -0.4425
  626TIP3    H123513   4.201   4.179   7.005 -0.1124  0.2578 -0.4164
  626TIP3    H223514   4.290   4.096   7.095  0.7220 -0.7200 -2.0881
  627TIP3   OH223515   5.528   5.978   7.020  0.0772  0.0456 -0.1656
  627TIP3    H123516   5.472   6.016   6.952 -1.6593 -0.8752  0.6648
  627TIP3    H223517   5.612   6.021   7.009 -0.7548  1.4229 -1.5752
  628TIP3   OH223518   2.631   1.387   7.182 -0.4336  0.6261 -0.6012
  628TIP3    H123519   2.600   1.438   7.256 -1.0655 -0.4553 -0.0926
  628TIP3    H223520   2.582   1.305   7.187  0.0034  0.2590 -1.8232
  629TIP3   OH223521   2.768   4.437   1.088 -0.2891  0.3458 -0.5433
  629TIP3    H123522   2.777   4.480   1.173  0.6733 -1.7592  0.5086
  629TIP3    H223523   2.787   4.344   1.106 -0.8817 -0.3066 -2.9102
  630TIP3   OH223524   1.538   3.686   7.472  0.2622  0.4081  0.0525
  630TIP3    H123525   1.539   3.624   7.545 -0.2314  0.7174  0.3310
  630TIP3    H223526   1.613   3.661   7.419  0.5315  0.0697  0.5757
  631TIP3   OH223527   4.915   4.143   6.082 -0.5743 -0.3864  0.0259
  631TIP3    H123528   5.000   4.184   6.063 -0.4398 -0.2737  0.8686
  631TIP3    H223529   4.938   4.060   6.125 -0.8984 -0.2293  0.4980
  632TIP3   OH223530   6.171   6.072   6.552 -0.0057 -0.3227  0.4481
  632TIP3    H123531   6.259   6.094   6.582  0.1924 -0.4546 -0.0288
  632TIP3    H223532   6.144   6.000   6.609  1.4497 -2.4448 -1.4025
  633TIP3   OH223533   5.538   2.804   7.710  0.0747  0.0850 -0.0568
  633TIP3    H123534   5.568   2.828   7.622  2.9893 -2.1952  0.1680
  633TIP3    H223535   5.592   2.857   7.768  0.4936 -0.7812  0.3558
  634TIP3   OH223536   4.660   6.519   0.412  0.0349 -0.1751  0.4024
  634TIP3    H123537   4.755   6.509   0.403 -0.0971 -1.6008  0.3415
  634TIP3    H223538   4.624   6.451   0.355 -0.9946 -1.0000  1.9800
  635TIP3   OH223539   6.912   2.231   0.504 -0.3400 -0.1488  0.9362
  635TIP3    H123540   6.924   2.218   0.598  0.1231  0.3661  0.9529
  635TIP3    H223541   6.982   2.292   0.479 -0.4625 -0.2807  0.2593
  636TIP3   OH223542   0.458   2.515   5.989 -0.0154  0.1131  0.2275
  636TIP3    H123543   0.513   2.524   5.911  1.3361 -0.1760  1.1007
  636TIP3    H223544   0.493   2.579   6.050 -1.1838  0.4659  0.5451
  637TIP3   OH223545   1.013   2.130   0.255 -0.0235  0.0693  0.1604
  637TIP3    H123546   0.948   2.199   0.271 -0.3386 -0.1853 -0.0153
  637TIP3    H223547   1.062   2.161   0.178  0.3151  0.4393  0.5159
  638TIP3   OH223548   3.221   0.847   6.111 -0.4195 -0.3365  0.1217
  638TIP3    H123549   3.225   0.942   6.124 -2.1073  0.0241 -1.5595
  638TIP3    H223550   3.127   0.826   6.115 -0.2767 -1.5537 -1.7134
  639TIP3   OH223551   0.793   0.960   8.035  0.1013  0.0187  0.0576
  639TIP3    H123552   0.877   0.917   8.023  0.8668  1.3378  0.5277
  639TIP3    H223553   0.728   0.890   8.020  1.2227 -0.7815 -1.3254
  640TIP3   OH223554   0.484   2.941   7.350  0.1026  0.3160  0.0704
  640TIP3    H123555   0.512   2.881   7.419 -1.0184  0.5012  0.7151
  640TIP3    H223556   0.450   3.017   7.398  2.2511  1.8817 -0.7019
  641TIP3   OH223557   2.227   2.185   0.040 -0.7684 -0.4048 -0.5674
  641TIP3    H123558   2.316   2.207   0.014 -1.0011  1.5401  0.1296
  641TIP3    H223559   2.172   2.217  -0.031 -1.0498  0.3597 -0.0125
  642TIP3   OH223560   5.419   3.319   2.095  0.3496  0.0287 -0.0759
  642TIP3    H123561   5.348   3.260   2.119  0.5165 -1.1215 -2.1394
  642TIP3    H223562   5.496   3.284   2.141  0.0579 -0.1539  0.2765
  643TIP3   OH223563   4.474   6.197   7.644  0.3198  0.0854  0.4412
  643TIP3    H123564   4.480   6.167   7.734  1.6705 -0.4305  0.1947
  643TIP3    H223565   4.482   6.118   7.591  0.4583  0.4837 -0.1486
  644TIP3   OH223566   2.437   2.431   1.254 -0.2819  0.0840  0.3702
  644TIP3    H123567   2.411   2.451   1.344 -1.0157  0.1647  0.1457
  644TIP3    H223568   2.357   2.443   1.202  0.2991  0.7317 -0.3982
  645TIP3   OH223569   4.007   3.967   0.303  0.0977 -0.2895  0.0874
  645TIP3    H123570   3.925   4.015   0.297 -0.7602 -1.4228  1.8314
  645TIP3    H223571   4.044   3.971   0.215 -1.3742  1.0128 -0.5139
  646TIP3   OH223572   2.429   3.811   7.333  0.1788  0.0123 -0.1216
  646TIP3    H123573   2.520   3.827   7.360  0.0639  0.6567 -0.1020
  646TIP3    H223574   2.427   3.717   7.312  0.2812 -0.5327  2.0516
  647TIP3   OH223575   5.182   0.344   1.116 -0.1414  0.1204 -0.0508
  647TIP3    H123576   5.233   0.301   1.184  1.7594  0.5599 -1.1376
  647TIP3    H223577   5.242   0.407   1.075 -1.4962  0.5728 -1.4972
  648TIP3   OH223578   4.470   1.842   0.394  0.5850  0.7462 -0.2061
  648TIP3    H123579   4.481   1.935   0.417  1.4299  0.9100 -1.1852
  648TIP3    H223580   4.407   1.809   0.458 -0.4826  2.2235 -0.4414
  649TIP3   OH223581   5.272   1.063   6.482 -0.0971 -0.2939  0.0192
  649TIP3    H123582   5.304   1.071   6.572  0.8964 -0.3819 -0.3109
  649TIP3    H223583   5.205   0.995   6.486  1.9385 -2.3992  0.2210
  650TIP3   OH223584   3.210   4.334   0.779 -0.4705 -0.3898  0.4372
  650TIP3    H123585   3.182   4.291   0.698 -3.0920  1.4461  0.2494
  650TIP3    H223586   3.292   4.377   0.757  0.1758 -1.9974 -0.4624
  651TIP3   OH223587   4.970   7.007   7.137  0.6690 -0.4050  0.1336
  651TIP3    H123588   4.989   6.923   7.097  0.3317 -0.4359  0.0301
  651TIP3    H223589   4.963   6.989   7.231  0.0629 -0.5968  0.0575
  652TIP3   OH223590   2.365   1.138   6.468  0.1794  0.6041 -0.0963
  652TIP3    H123591   2.309   1.205   6.428  0.2892  0.1251 -1.1038
  652TIP3    H223592   2.432   1.121   6.401  1.2808  0.8525  0.9105
  653TIP3   OH223593   1.822   3.415   0.689  0.5097  0.8513 -0.3369
  653TIP3    H123594   1.916   3.431   0.693  0.2957  1.8468  1.9357
  653TIP3    H223595   1.799   3.430   0.597  2.2761  2.4227 -0.5765
  654TIP3   OH223596   6.125   2.674   1.242 -0.3469 -0.1493 -0.0649
  654TIP3    H123597   6.049   2.618   1.224  0.2547 -0.3403 -2.1922
  654TIP3    H223598   6.183   2.619   1.294 -1.4846 -0.1012  1.3354
  655TIP3   OH223599   1.323   1.118   7.105 -0.3691 -0.5608  0.3618
  655TIP3    H123600   1.297   1.028   7.084 -2.2821 -0.8048  3.2359
  655TIP3    H223601   1.241   1.163   7.126  0.5628  1.8802 -0.7944
  656TIP3   OH223602   3.556   5.406   7.968  0.0115 -0.5254  0.6721
  656TIP3    H123603   3.516   5.414   7.882 -2.7336  0.5508  1.9248
  656TIP3    H223604   3.507   5.336   8.011  1.7185 -1.4442  1.2079
  657TIP3   OH223605   5.098   6.737   7.545  0.1720 -0.5114  0.7411
  657TIP3    H123606   5.019   6.784   7.520  0.4801  0.1811  1.0412
  657TIP3    H223607   5.108   6.754   7.639  2.0049  1.4600  0.2652
  658TIP3   OH223608   0.216   0.821   0.074  0.0955 -0.0658  0.1454
  658TIP3    H123609   0.133   0.868   0.063 -0.8790 -1.9920 -1.5713
  658TIP3    H223610   0.278   0.867   0.017 -0.0161  0.8574  0.7559
  659TIP3   OH223611   3.368   5.575   7.086  0.0717  0.3840  0.2858
  659TIP3    H123612   3.348   5.644   7.149  0.1592  0.2916  0.4158
  659TIP3    H223613   3.435   5.612   7.028  0.7415  0.1198  0.8750
  660TIP3   OH223614   3.344   1.913   0.791  0.1706  0.1207 -0.0733
  660TIP3    H123615   3.395   1.841   0.826  1.7038  1.2384  0.0991
  660TIP3    H223616   3.298   1.950   0.867 -0.5208 -0.5716 -0.1429
  661TIP3   OH223617   6.561   5.066   6.786  0.2680  0.1707 -0.3659
  661TIP3    H123618   6.522   4.990   6.744  0.7259  0.3107 -1.0739
  661TIP3    H223619   6.655   5.055   6.773  0.3240  1.0510 -0.8467
  662TIP3   OH223620   6.317   3.627   7.160 -0.2821 -0.3768 -0.5450
  662TIP3    H123621   6.332   3.687   7.087  0.5519  0.8028  0.5506
  662TIP3    H223622   6.399   3.630   7.210 -0.8876 -1.0577  0.5056
  663TIP3   OH223623   2.300   3.081   6.656  0.2782 -0.2582  0.3116
  663TIP3    H123624   2.340   3.129   6.584  0.2763 -0.2749  0.2994
  663TIP3    H223625   2.370   3.028   6.693  0.5890  0.7132  1.1446
  664TIP3   OH223626   5.225   0.683   7.030 -0.0870 -0.3771 -0.4557
  664TIP3    H123627   5.317   0.704   7.041 -0.1124 -0.1541 -0.6680
  664TIP3    H223628   5.221   0.632   6.948  0.1747 -2.4907  0.7650
  665TIP3   OH223629   4.230   3.005   7.355 -0.3390 -0.5663  0.8056
  665TIP3    H123630   4.227   3.090   7.312 -1.5460 -0.8608  0.2634
  665TIP3    H223631   4.306   3.009   7.412  0.5254  0.3231 -0.3632
  666TIP3   OH223632   3.088   1.617   1.320 -0.2046  0.2245 -0.8605
  666TIP3    H123633   3.107   1.688   1.381 -1.4927  1.2297 -1.5820
  666TIP3    H223634   3.127   1.646   1.237 -2.2240  0.9665 -1.6108
  667TIP3   OH223635   1.649   2.906   0.638 -0.3099 -0.2445 -0.0108
  667TIP3    H123636   1.718   2.968   0.612  1.9030 -1.9986  1.3141
  667TIP3    H223637   1.582   2.960   0.679  0.5943  1.4767 -0.6956
  668TIP3   OH223638   4.693   6.059   0.732  0.6902  0.2880  0.0386
  668TIP3    H123639   4.771   6.107   0.706  0.4564  1.2625  1.0354
  668TIP3    H223640   4.649   6.038   0.650  1.4414  0.6784 -0.4742
  669TIP3   OH223641   5.328   2.835   8.027 -0.0804  0.2169  0.0595
  669TIP3    H123642   5.396   2.889   7.987 -1.7360  2.6951  0.4090
  669TIP3    H223643   5.331   2.856   8.120  0.1713 -1.4531  0.4717
  670TIP3   OH223644   2.224   5.646   6.497 -0.4511  0.5552  0.3699
  670TIP3    H123645   2.209   5.552   6.507  0.2075  0.5704  1.6508
  670TIP3    H223646   2.137   5.683   6.481 -0.4672 -0.5110 -2.6522
  671TIP3   OH223647   6.526   2.479   1.007 -0.3613  0.5313 -0.1576
  671TIP3    H123648   6.521   2.390   0.972 -1.5832  0.8227 -0.7816
  671TIP3    H223649   6.540   2.467   1.101  3.4424 -0.2572 -0.6587
  672TIP3   OH223650   1.192   3.839   6.655  0.2037 -0.0474  0.2215
  672TIP3    H123651   1.235   3.909   6.703 -2.6557  1.0845  1.3599
  672TIP3    H223652   1.105   3.832   6.694 -2.2750  0.7091 -4.4042
  673TIP3   OH223653   4.555   5.432   0.579 -0.0590  0.3532  0.6878
  673TIP3    H123654   4.620   5.502   0.585 -0.9746  1.2355  0.5047
  673TIP3    H223655   4.519   5.425   0.667 -0.3394  0.4794  0.5841
  674TIP3   OH223656   6.245   3.286   6.285  0.3592 -0.1397  0.4780
  674TIP3    H123657   6.231   3.320   6.197 -2.3134 -2.7962 -0.2598
  674TIP3    H223658   6.210   3.353   6.343  1.5643  1.3455 -0.4346
  675TIP3   OH223659   5.076   2.484   1.485 -0.7429  0.3736 -0.2157
  675TIP3    H123660   4.984   2.460   1.489 -0.2306 -1.7181  0.9018
  675TIP3    H223661   5.106   2.479   1.576  0.8359 -0.7921 -0.7433
  676TIP3   OH223662   0.065   2.534   1.523  0.4625  0.4251 -0.2476
  676TIP3    H123663   0.062   2.626   1.547  0.3883  0.5997 -0.9023
  676TIP3    H223664   0.098   2.489   1.601 -2.7469  0.5495  1.3272
  677TIP3   OH223665   5.019   2.425   0.695  0.6787  0.2759 -0.7534
  677TIP3    H123666   4.975   2.504   0.664 -0.8750  0.3476  1.4226
  677TIP3    H223667   5.082   2.456   0.760 -1.1530 -0.3194  1.4070
  678TIP3   OH223668   1.314   3.329   7.358 -0.3439  0.7636  0.0521
  678TIP3    H123669   1.381   3.388   7.323  0.3322  1.1663  1.9067
  678TIP3    H223670   1.241   3.387   7.380 -0.2243  0.7163  0.5807
  679TIP3   OH223671   2.279   4.136   7.910  0.7772 -0.1003  0.4045
  679TIP3    H123672   2.359   4.186   7.925  0.5505  0.3876  0.0139
  679TIP3    H223673   2.296   4.085   7.832  0.9030 -0.4133  0.6354
  680TIP3   OH223674   2.192   4.754   0.155 -0.1058 -0.1777  0.1706
  680TIP3    H123675   2.132   4.749   0.081  0.1288 -0.8782  0.0178
  680TIP3    H223676   2.135   4.751   0.232 -0.3295  0.2373  0.0260
  681TIP3   OH223677   1.386   5.521   1.738  0.5325  0.1123  0.4194
  681TIP3    H123678   1.451   5.471   1.689  0.2386 -0.3954  0.5443
  681TIP3    H223679   1.325   5.456   1.772  1.0086  0.4025  1.9095
  682TIP3   OH223680   2.138   0.722   6.575  0.2200 -0.0843 -0.4538
  682TIP3    H123681   2.179   0.667   6.642  0.7342  0.7846 -0.0475
  682TIP3    H223682   2.079   0.780   6.623  1.7661  1.6280 -0.5404
  683TIP3   OH223683   5.279   1.281   6.264 -0.1987  0.1707 -0.2498
  683TIP3    H123684   5.254   1.232   6.342  1.1483 -0.4675 -0.1882
  683TIP3    H223685   5.374   1.288   6.269  0.0159 -0.5165 -2.1864
  684TIP3   OH223686   1.612   1.211   0.110 -1.1057  0.1041  0.2964
  684TIP3    H123687   1.640   1.205   0.202 -0.2986 -0.2689  0.0386
  684TIP3    H223688   1.675   1.156   0.063 -0.5571  1.5157 -0.6869
  685TIP3   OH223689   3.604   4.557   1.579  0.1445 -0.0592  0.4374
  685TIP3    H123690   3.524   4.525   1.536  0.9140 -1.2363 -0.1515
  685TIP3    H223691   3.610   4.505   1.660  1.9941 -2.3590 -1.0501
  686TIP3   OH223692   1.735   2.104   0.594  0.4142  0.5535  0.5631
  686TIP3    H123693   1.664   2.042   0.610  0.6506  0.2585  0.4880
  686TIP3    H223694   1.725   2.171   0.662 -1.5478  1.9927 -1.0162
  687TIP3   OH223695   2.253   6.547   7.664 -0.3578 -0.5404  0.4241
  687TIP3    H123696   2.172   6.594   7.685 -1.1383 -1.1054 -1.1611
  687TIP3    H223697   2.298   6.604   7.601  0.8302  0.0680  1.7582
  688TIP3   OH223698   5.072   4.365   7.539 -0.2269  0.0242  0.0320
  688TIP3    H123699   5.136   4.309   7.582  1.2738  1.4233 -0.2861
  688TIP3    H223700   4.992   4.355   7.591  1.2047  0.7987  2.5182
  689TIP3   OH223701   4.320   1.190   1.625  0.0620 -0.9497  0.3664
  689TIP3    H123702   4.301   1.098   1.645  0.5189 -1.0724  0.2468
  689TIP3    H223703   4.303   1.199   1.531 -0.2704 -0.8356  0.4353
  690TIP3   OH223704   1.101   3.099   1.582  0.3958  0.3391 -0.2428
  690TIP3    H123705   1.085   3.004   1.583 -2.8241  0.7548 -0.4047
  690TIP3    H223706   1.114   3.122   1.674 -1.9594  0.0498  0.2498
  691TIP3   OH223707   3.994   6.267   1.564 -0.1414  0.1722  0.5398
  691TIP3    H123708   3.970   6.201   1.630  3.5020  0.4852  2.4388
  691TIP3    H223709   3.990   6.350   1.611 -0.4297  0.8024 -0.5750
  692TIP3   OH223710   0.813   2.320   0.491  0.2289  0.8380  0.6481
  692TIP3    H123711   0.736   2.374   0.475 -1.7593 -2.0395 -0.1809
  692TIP3    H223712   0.785   2.257   0.557  1.6149 -0.7356 -0.1977
  693TIP3   OH223713   0.689   1.217   0.819 -0.3421  0.2739 -0.0493
  693TIP3    H123714   0.631   1.157   0.867  1.2542 -0.5809  0.9028
  693TIP3    H223715   0.751   1.248   0.885 -0.2597  1.8840 -0.8522
  694TIP3   OH223716   6.502   3.194   6.525  0.1206 -0.5400 -0.0763
  694TIP3    H123717   6.438   3.140   6.479 -1.4710  1.1934 -0.0152
  694TIP3    H223718   6.485   3.283   6.494 -0.2046  0.5497  2.8726
  695TIP3   OH223719   6.671   6.862   0.140 -0.1653 -0.4049 -0.0634
  695TIP3    H123720   6.577   6.850   0.126 -0.2969  0.2507  0.2557
  695TIP3    H223721   6.701   6.778   0.174 -0.4129 -1.0090 -1.2741
  696TIP3   OH223722   4.935   0.506   6.883  0.2105  0.3705 -0.3513
  696TIP3    H123723   4.873   0.572   6.914 -0.2542 -0.3206  0.2185
  696TIP3    H223724   5.012   0.557   6.857 -0.8962  1.3384 -1.9516
  697TIP3   OH223725   6.366   0.985   7.696  0.0600  0.0367  0.1548
  697TIP3    H123726   6.324   0.955   7.777 -1.1291  1.0410 -0.0603
  697TIP3    H223727   6.384   0.905   7.648 -0.6822 -0.4811  0.7186
  698TIP3   OH223728   4.163   6.136   2.201  0.3631 -0.5439 -0.2553
  698TIP3    H123729   4.103   6.160   2.130  1.8933  0.8656 -1.1311
  698TIP3    H223730   4.187   6.219   2.242 -0.9549 -1.3583  2.4034
  699TIP3   OH223731   0.822   5.209   1.182  0.1550 -0.0662  0.1676
  699TIP3    H123732   0.813   5.114   1.176  3.3386 -0.6077  1.6872
  699TIP3    H223733   0.800   5.230   1.273  1.8213  0.2396  0.5319
  700TIP3   OH223734   2.241   0.170   7.934  0.2003  0.5394  1.0726
  700TIP3    H123735   2.149   0.173   7.960  0.2881 -1.4783  1.8410
  700TIP3    H223736   2.285   0.130   8.009  1.5960  0.8415  0.4440
  701TIP3   OH223737   6.418   2.539   1.857 -0.2675 -0.2607 -0.2081
  701TIP3    H123738   6.400   2.632   1.870 -0.4070 -0.2564 -0.4333
  701TIP3    H223739   6.333   2.501   1.835 -0.6731 -0.8278  2.0263
  702TIP3   OH223740   2.859   3.795   0.116 -0.2845  0.7329 -0.5841
  702TIP3    H123741   2.900   3.874   0.081 -0.9481  1.3203 -0.0560
  702TIP3    H223742   2.776   3.825   0.153  0.3529  0.1447  1.4668
  703TIP3   OH223743   6.861   6.819   6.490  0.2451  0.2175  0.6068
  703TIP3    H123744   6.811   6.752   6.537  0.1465  0.5038  0.9180
  703TIP3    H223745   6.802   6.849   6.421  1.0098 -1.4503 -0.8751
  704TIP3   OH223746   3.026   3.886   0.559 -0.2416  0.1766 -0.3578
  704TIP3    H123747   3.020   3.962   0.501 -0.8132  0.5590  0.1867
  704TIP3    H223748   3.111   3.848   0.540 -0.0506  0.8163 -0.8167
  705TIP3   OH223749   5.785   2.122   0.550  0.7897  0.4392 -0.6323
  705TIP3    H123750   5.808   2.205   0.591  0.8813 -0.2642  0.8029
  705TIP3    H223751   5.691   2.129   0.533  0.9347  1.1020 -1.1844
  706TIP3   OH223752   4.731   4.237   7.156 -0.5327  0.4144 -0.0797
  706TIP3    H123753   4.710   4.329   7.139  0.5650  0.9980  1.5165
  706TIP3    H223754   4.826   4.232   7.149 -0.6782 -1.1675 -2.4900
  707TIP3   OH223755   0.299   5.167   1.294 -0.3707 -0.1119  0.1605
  707TIP3    H123756   0.378   5.185   1.243 -0.0362 -1.3265  0.2203
  707TIP3    H223757   0.303   5.230   1.367  0.4397 -0.0417  0.0607
  708TIP3   OH223758   2.780   5.571   7.963  0.4183 -0.2967  0.6625
  708TIP3    H123759   2.806   5.549   7.873 -2.5274 -1.5171 -0.0061
  708TIP3    H223760   2.847   5.633   7.992  2.2628 -0.9282 -1.8515
  709TIP3   OH223761   4.283   6.379   7.947 -0.0785 -0.8246  0.3813
  709TIP3    H123762   4.257   6.433   7.873 -1.0478 -0.2165  1.1405
  709TIP3    H223763   4.286   6.290   7.912 -0.6388 -0.5579 -0.3564
  710TIP3   OH223764   5.723   0.678   8.048 -0.4457  0.2581 -0.3007
  710TIP3    H123765   5.773   0.670   8.129  0.0786 -0.3902 -0.6748
  710TIP3    H223766   5.785   0.714   7.984 -1.0719  1.5208 -0.2320
  711TIP3   OH223767   2.250   1.078   7.301  0.1214  0.5984  0.3393
  711TIP3    H123768   2.315   1.012   7.323 -1.8531 -1.8194 -0.6627
  711TIP3    H223769   2.280   1.115   7.218  0.7137  0.1853  0.3670
  712TIP3   OH223770   3.699   6.840   5.960  0.6470 -0.4825 -0.7556
  712TIP3    H123771   3.641   6.770   5.931  1.5340 -0.9158 -1.5473
  712TIP3    H223772   3.672   6.917   5.910 -0.1049 -0.3382 -0.1382
  713TIP3   OH223773   3.784   4.971   7.569 -0.1436  0.8832 -0.1783
  713TIP3    H123774   3.777   4.929   7.655 -0.5889  0.5894 -0.3566
  713TIP3    H223775   3.869   5.016   7.572  0.0239  0.5509  0.2710
  714TIP3   OH223776   4.415   2.928   8.104 -0.1499 -0.2955  0.1605
  714TIP3    H123777   4.465   2.894   8.178 -1.4864 -0.2788  1.1021
  714TIP3    H223778   4.356   2.857   8.080  0.0087 -0.1619 -0.6642
  715TIP3   OH223779   5.441   1.937   1.532  0.4793 -0.6596  0.0573
  715TIP3    H123780   5.466   1.861   1.585  1.0581 -0.9090 -0.5731
  715TIP3    H223781   5.486   2.011   1.574 -0.0835 -0.6488  0.6703
  716TIP3   OH223782   6.030   2.174   8.052 -0.8653 -0.2691 -0.3452
  716TIP3    H123783   5.961   2.171   7.986 -1.5914 -0.8558  0.4234
  716TIP3    H223784   6.109   2.195   8.003 -0.9804 -2.7763 -1.7480
  717TIP3   OH223785   4.239   2.533   0.947  0.7615  0.3548 -0.3329
  717TIP3    H123786   4.303   2.465   0.971 -0.0645 -1.1872 -2.2285
  717TIP3    H223787   4.169   2.524   1.011  1.2301  0.2457  0.1684
  718TIP3   OH223788   3.815   2.799   7.859  0.4461  0.1232 -0.1272
  718TIP3    H123789   3.900   2.772   7.895  0.1823  0.8117  1.0628
  718TIP3    H223790   3.838   2.850   7.781  1.0756 -0.5477 -0.3928
  719TIP3   OH223791   4.003   6.248   2.010  0.3578 -0.2138 -0.0491
  719TIP3    H123792   4.022   6.342   2.003 -0.8096  0.3559  3.0239
  719TIP3    H223793   3.909   6.242   1.992  0.5566 -0.9558 -0.9258
  720TIP3   OH223794   6.605   2.491   6.964 -0.5505  0.2885  0.0183
  720TIP3    H123795   6.555   2.557   6.916  1.5245  1.7694 -0.2195
  720TIP3    H223796   6.662   2.452   6.898 -1.2512 -1.3114  0.3051
  721TIP3   OH223797   0.747   2.884   0.161 -0.7157 -0.0712 -0.0647
  721TIP3    H123798   0.812   2.817   0.183 -1.1961 -0.8327 -0.8913
  721TIP3    H223799   0.794   2.967   0.170  0.0087 -0.5312  0.5716
  722TIP3   OH223800   2.735   0.763   7.819 -0.6847  0.3540 -0.3383
  722TIP3    H123801   2.720   0.669   7.812 -1.3737  0.5480 -1.9410
  722TIP3    H223802   2.685   0.790   7.895  0.0500 -0.6637  0.5351
  723TIP3   OH223803   4.727   4.049   0.680  0.5374  0.4602  0.1324
  723TIP3    H123804   4.807   4.069   0.728  0.1693  0.6915  0.6609
  723TIP3    H223805   4.741   4.085   0.592  0.3257  2.1072  0.7371
  724TIP3   OH223806   4.387   0.848   7.353 -0.2325  0.1549  0.2099
  724TIP3    H123807   4.353   0.890   7.431 -0.8548 -0.0371  0.0451
  724TIP3    H223808   4.337   0.767   7.345  0.5034 -0.3040  0.1618
  725TIP3   OH223809   4.563   4.840   6.563 -0.2144 -0.4244  0.5161
  725TIP3    H123810   4.657   4.830   6.582 -0.3688  0.4813  1.9039
  725TIP3    H223811   4.559   4.854   6.468  0.9837 -1.1232  0.3359
  726TIP3   OH223812   0.940   6.827   1.321  0.4933  0.3398 -0.4440
  726TIP3    H123813   0.973   6.917   1.324  0.5564  0.2884  1.1494
  726TIP3    H223814   0.846   6.837   1.303  0.5458  0.7068 -0.5354
  727TIP3   OH223815   0.201   1.339   7.710  0.4945  0.5605 -0.4917
  727TIP3    H123816   0.278   1.281   7.709  0.1726  0.0867  0.7731
  727TIP3    H223817   0.234   1.422   7.675  0.5656 -0.7757 -4.0677
  728TIP3   OH223818   1.015   6.682   7.219  0.8921  0.1324  0.5168
  728TIP3    H123819   0.943   6.668   7.281  0.1522 -2.1352 -0.7570
  728TIP3    H223820   0.985   6.753   7.163  1.1508  1.5335  2.0608
  729TIP3   OH223821   1.446   6.693   6.581 -0.2167 -0.1906  0.4496
  729TIP3    H123822   1.505   6.631   6.624 -1.3379 -1.1705  0.6327
  729TIP3    H223823   1.416   6.647   6.503 -0.2400  0.5554  0.0105
  730TIP3   OH223824   0.094   5.407   1.216 -0.0138 -0.7339  0.5215
  730TIP3    H123825   0.089   5.313   1.236  1.4571 -0.6868  1.2399
  730TIP3    H223826   0.029   5.447   1.274 -0.2361 -1.2322  0.6274
  731TIP3   OH223827   3.759   5.652   6.252 -0.5670  0.3942  0.4081
  731TIP3    H123828   3.843   5.662   6.297 -0.6571 -0.7662  0.8819
  731TIP3    H223829   3.726   5.741   6.242  1.1202  0.9703 -0.5900
  732TIP3   OH223830   0.758   2.241   6.620 -0.6384  0.3389 -0.5519
  732TIP3    H123831   0.845   2.217   6.652  0.1102  2.3456 -0.9619
  732TIP3    H223832   0.758   2.211   6.529 -0.9582 -1.0085 -0.1253
  733TIP3   OH223833   4.605   1.496   7.775 -0.1553  0.3847  0.0270
  733TIP3    H123834   4.617   1.554   7.850  2.6824 -0.3383  0.2253
  733TIP3    H223835   4.642   1.544   7.701  0.1536 -0.2514 -0.2411
  734TIP3   OH223836   0.323   5.886   6.001 -0.0196 -0.2933  0.1098
  734TIP3    H123837   0.291   5.938   6.074 -0.0957  0.3165 -0.3479
  734TIP3    H223838   0.252   5.889   5.937 -1.3533 -3.4755  1.2367
  735TIP3   OH223839   0.578   3.301   1.008  0.0142 -0.4186 -0.0491
  735TIP3    H123840   0.494   3.281   1.050  0.1456 -0.1043  0.3782
  735TIP3    H223841   0.632   3.338   1.079  1.2717 -2.6103  0.2120
  736TIP3   OH223842   2.024   4.663   1.278  0.3558  0.0640  0.0124
  736TIP3    H123843   1.987   4.723   1.343 -1.0305  1.2734 -1.7741
  736TIP3    H223844   1.951   4.605   1.255  0.5800  0.1424 -0.9639
  737TIP3   OH223845   6.928   4.658   8.042 -0.0442 -0.2198  0.5781
  737TIP3    H123846   6.939   4.672   8.136  0.2698  0.5760  0.4271
  737TIP3    H223847   6.941   4.744   8.003 -1.3598 -0.2907 -0.0970
  738TIP3   OH223848   2.034   7.115   6.780  0.3801 -0.1867 -0.4638
  738TIP3    H123849   2.079   7.191   6.745 -1.0168 -0.3549 -2.7833
  738TIP3    H223850   1.954   7.150   6.819  1.0641 -0.2170  1.0700
  739TIP3   OH223851   1.847   0.633   1.836  0.4758  0.1311 -0.2945
  739TIP3    H123852   1.908   0.627   1.909 -1.6887 -1.7828  1.5311
  739TIP3    H223853   1.834   0.543   1.807 -0.0186  0.6921 -1.9510
  740TIP3   OH223854   6.765   3.829   6.115 -0.1294  0.0608  0.3434
  740TIP3    H123855   6.699   3.897   6.104  0.2105  0.8026  2.5101
  740TIP3    H223856   6.848   3.877   6.118  0.3269 -0.6688 -0.1749
  741TIP3   OH223857   0.981   1.577   0.451 -0.3947 -0.2256 -0.1247
  741TIP3    H123858   1.032   1.527   0.388 -0.3873  0.2982 -0.5393
  741TIP3    H223859   1.046   1.618   0.508 -0.4202 -1.3853  0.7740
  742TIP3   OH223860   1.760   3.956   0.264  0.2639  0.2596 -0.3471
  742TIP3    H123861   1.830   3.897   0.236  0.2924  0.9263 -1.7294
  742TIP3    H223862   1.789   3.987   0.350 -0.2037 -2.4312  0.8971
  743TIP3   OH223863   0.723   7.036   0.989 -0.3763 -0.6811 -0.5015
  743TIP3    H123864   0.631   7.010   0.981 -0.3004 -1.1562  0.0429
  743TIP3    H223865   0.723   7.131   0.980 -0.9155 -0.6829 -0.5285
  744TIP3   OH223866   3.189   6.526   6.040 -0.4684  0.1121  0.0146
  744TIP3    H123867   3.272   6.496   6.076 -0.5670  0.0685  0.2120
  744TIP3    H223868   3.162   6.597   6.099 -0.0733  0.8137 -0.6401
  745TIP3   OH223869   6.092   2.847   6.292 -0.4738 -0.0201 -0.2470
  745TIP3    H123870   6.105   2.795   6.371  2.5200  0.3256 -0.4140
  745TIP3    H223871   6.111   2.787   6.220  0.3776  0.5944 -0.5432
  746TIP3   OH223872   3.515   3.495   6.912  0.2343  0.0998  0.2288
  746TIP3    H123873   3.544   3.471   7.000  3.7647  1.2898 -0.4531
  746TIP3    H223874   3.512   3.591   6.913  0.8193  0.1441 -1.0580
  747TIP3   OH223875   3.039   2.466   6.256 -0.5933  0.0947  0.1368
  747TIP3    H123876   3.050   2.387   6.309 -0.5692 -0.8954 -1.2815
  747TIP3    H223877   3.078   2.536   6.308 -0.0879 -0.9323  1.1723
  748TIP3   OH223878   0.194   4.970   5.648  0.1606 -0.1540  0.4152
  748TIP3    H123879   0.223   5.057   5.674  1.7898  0.4124 -2.8111
  748TIP3    H223880   0.103   4.982   5.622  0.6069  0.8503 -0.8089
  749TIP3   OH223881   0.219   3.402   7.314  0.5318  0.6839  0.4490
  749TIP3    H123882   0.239   3.495   7.311 -0.6856  0.9278 -1.8554
  749TIP3    H223883   0.173   3.390   7.397 -2.5918  2.9068 -0.7792
  750TIP3   OH223884   5.477   7.062   6.345 -0.0990  0.8023  0.7145
  750TIP3    H123885   5.433   7.008   6.280  0.7425  1.2636 -0.2740
  750TIP3    H223886   5.406   7.104   6.394 -0.9356  3.3759 -2.3530
  751TIP3   OH223887   1.633   2.163   1.995 -0.4216 -0.6121 -0.5441
  751TIP3    H123888   1.589   2.234   1.949 -0.7338 -0.6905 -0.3667
  751TIP3    H223889   1.717   2.153   1.949  1.2933  2.3097  1.6203
  752TIP3   OH223890   5.305   2.344   0.763  0.0824  0.1250 -0.4645
  752TIP3    H123891   5.241   2.280   0.732  1.2281 -1.1925 -0.2397
  752TIP3    H223892   5.376   2.291   0.799  0.2427  1.5581  1.4805
  753TIP3   OH223893   6.294   5.698   1.768 -0.3762  0.7027 -0.4105
  753TIP3    H123894   6.253   5.612   1.769 -0.6471  0.7472 -2.5646
  753TIP3    H223895   6.225   5.758   1.796 -0.4275  0.3113  0.3123
  754TIP3   OH223896   3.772   5.011   2.534  0.0745 -0.0408  0.1291
  754TIP3    H123897   3.689   5.049   2.508 -0.2210 -0.3544  0.6052
  754TIP3    H223898   3.837   5.077   2.510 -0.0071 -0.8429 -2.7253
  755TIP3   OH223899   3.136   2.233   7.026 -0.2549  0.4105 -0.1433
  755TIP3    H123900   3.101   2.156   6.981 -0.7515 -0.2419  1.3162
  755TIP3    H223901   3.196   2.198   7.091 -0.0517  1.2934  0.1670
  756TIP3   OH223902   1.976   0.904   0.554 -0.0373  0.2032 -0.1522
  756TIP3    H123903   2.025   0.829   0.520  1.7215  1.4619 -0.5643
  756TIP3    H223904   2.038   0.950   0.611 -0.6891  1.9129 -0.7427
  757TIP3   OH223905   1.206   1.006   7.540  0.5561  0.0238  0.6424
  757TIP3    H123906   1.166   1.092   7.527  1.4284  0.2281 -0.8456
  757TIP3    H223907   1.299   1.023   7.550  0.9546 -0.8190 -1.1433
  758TIP3   OH223908   6.978   6.308   1.259 -0.1464  0.0162  0.0448
  758TIP3    H123909   6.897   6.276   1.220  0.1360  0.1615 -0.6680
  758TIP3    H223910   6.951   6.348   1.342 -0.8898  0.6473 -0.4888
  759TIP3   OH223911   1.598   0.501   7.005  1.0474  0.1044  0.1499
  759TIP3    H123912   1.545   0.520   6.928  0.5026  0.4062  0.5916
  759TIP3    H223913   1.684   0.536   6.984  1.0488 -0.2847 -0.5292
  760TIP3   OH223914   6.818   5.970   6.513 -0.1537 -0.6072  1.2078
  760TIP3    H123915   6.756   6.042   6.512 -0.2384 -0.6831  0.6972
  760TIP3    H223916   6.784   5.908   6.448  0.0464 -0.9949  1.4684
  761TIP3   OH223917   0.119   6.806   7.713  0.9215  0.1362  0.5441
  761TIP3    H123918   0.095   6.752   7.789  1.0187 -0.6235  0.0494
  761TIP3    H223919   0.036   6.822   7.668  0.4829  2.6553  2.0936
  762TIP3   OH223920   2.478   1.807   6.741  0.4122  0.0629 -0.4309
  762TIP3    H123921   2.502   1.898   6.729 -2.5495  0.6806 -2.4152
  762TIP3    H223922   2.413   1.789   6.674  0.1063 -3.2329  0.5586
  763TIP3   OH223923   1.370   2.802   1.819 -0.1053  0.1639 -0.0795
  763TIP3    H123924   1.426   2.734   1.856 -1.5941  0.4176  2.9975
  763TIP3    H223925   1.430   2.857   1.768  1.6727 -1.7030 -0.1302
  764TIP3   OH223926   4.303   0.058   6.048  0.6418 -0.0544 -0.1373
  764TIP3    H123927   4.362  -0.010   6.079 -0.1684 -0.7670 -0.1196
  764TIP3    H223928   4.300   0.046   5.953  0.0609 -0.4218 -0.0794
  765TIP3   OH223929   6.775   5.974   5.966  0.1966  0.1712  0.3026
  765TIP3    H123930   6.786   6.069   5.970 -3.6233  0.7914  0.2837
  765TIP3    H223931   6.738   5.951   6.052 -1.9241 -0.6638 -0.7527
  766TIP3   OH223932   0.078   2.018   7.318  0.1512  0.0499  0.2473
  766TIP3    H123933   0.059   1.998   7.410 -0.1017  1.4677  0.5192
  766TIP3    H223934   0.065   2.112   7.311  2.1002  0.2892 -0.7818
  767TIP3   OH223935   0.324   2.950   2.354 -0.6350  0.3800  0.2487
  767TIP3    H123936   0.289   3.035   2.328 -1.4306  0.0545  0.2233
  767TIP3    H223937   0.252   2.908   2.401 -0.2337 -0.2604  0.3017
  768TIP3   OH223938   0.745   6.995   7.261  0.4271  0.0027  0.3320
  768TIP3    H123939   0.669   7.034   7.303 -0.9358  0.7760 -2.5538
  768TIP3    H223940   0.717   6.906   7.238  0.7168 -0.0326  0.1032
  769TIP3   OH223941   1.320   2.821   7.218  0.4392 -0.0518 -0.1743
  769TIP3    H123942   1.336   2.915   7.220  2.2319 -0.2656 -1.4306
  769TIP3    H223943   1.380   2.788   7.151  0.3995 -2.1958  0.7511
  770TIP3   OH223944   2.706   4.640   8.099  0.0898  0.1866  0.6205
  770TIP3    H123945   2.662   4.724   8.112 -1.6067 -0.7764  1.4854
  770TIP3    H223946   2.699   4.624   8.005  0.1982  0.8936  0.4882
  771TIP3   OH223947   0.537   1.588   6.131  0.1366 -0.3661  0.0112
  771TIP3    H123948   0.538   1.495   6.111  1.1223 -0.2872 -0.3633
  771TIP3    H223949   0.575   1.630   6.054  0.7661  0.2375  0.6294
  772TIP3   OH223950   1.343   4.633   7.676 -0.4893  0.0521 -0.2349
  772TIP3    H123951   1.305   4.675   7.753  2.1272 -0.9525  1.7549
  772TIP3    H223952   1.307   4.544   7.677  0.4428 -0.3410  0.6092
  773TIP3   OH223953   0.111   4.855   7.936 -0.5734 -0.5019  0.5497
  773TIP3    H123954   0.115   4.939   7.890  0.3221 -0.9590 -0.2589
  773TIP3    H223955   0.027   4.817   7.911 -0.2919 -0.5402 -0.3900
  774TIP3   OH223956   0.203   3.515   1.168 -0.8412  0.9287  0.7396
  774TIP3    H123957   0.169   3.601   1.142  1.7161  2.3492  1.7763
  774TIP3    H223958   0.191   3.512   1.263 -1.9079 -0.3949  0.6054
  775TIP3   OH223959   0.489   5.143   6.426  0.1525  0.5040 -0.3036
  775TIP3    H123960   0.489   5.079   6.498  0.2515  0.7744 -0.0623
  775TIP3    H223961   0.521   5.224   6.466 -2.0985  1.3307 -0.0457
  776TIP3   OH223962   6.746   3.949   0.646 -0.3925 -0.6290  0.1851
  776TIP3    H123963   6.714   3.926   0.733 -1.2504 -0.1737  0.0047
  776TIP3    H223964   6.667   3.954   0.592  0.0692 -0.3159 -0.4785
  777TIP3   OH223965   3.950   6.490   6.799  0.0589 -0.1421  0.3252
  777TIP3    H123966   4.040   6.515   6.775 -0.8967  2.7464 -0.7052
  777TIP3    H223967   3.959   6.404   6.840  3.2962  0.0762  0.3368
  778TIP3   OH223968   6.078   3.099   5.807 -0.5404 -0.5948  0.0365
  778TIP3    H123969   6.106   3.087   5.716  0.1474 -0.2200  0.1847
  778TIP3    H223970   6.137   3.166   5.840 -0.9541 -0.5520  0.6893
  779TIP3   OH223971   4.468   1.440   0.937 -0.4639 -0.3531  0.1787
  779TIP3    H123972   4.439   1.429   0.847 -3.2253  0.5700  0.8685
  779TIP3    H223973   4.431   1.365   0.984 -1.0813  0.4244  0.9621
  780TIP3   OH223974   4.478   3.314   1.408  0.5706 -0.1540 -0.0055
  780TIP3    H123975   4.467   3.279   1.320 -1.2109  0.0441  0.0915
  780TIP3    H223976   4.482   3.237   1.465 -2.6335 -0.3700  0.1351
  781TIP3   OH223977   6.804   2.738   2.261  0.6413  0.6314  0.6483
  781TIP3    H123978   6.741   2.673   2.292  1.5800  0.2009  1.7653
  781TIP3    H223979   6.875   2.686   2.224  0.6230  1.0865 -0.0330
  782TIP3   OH223980   6.086   4.528   6.429 -0.0588 -0.5913 -0.1977
  782TIP3    H123981   6.061   4.616   6.399 -1.9658 -0.4336  1.5559
  782TIP3    H223982   6.091   4.476   6.349 -1.2652  0.5855 -1.0960
  783TIP3   OH223983   3.796   3.267   6.836 -0.0434  0.5131  0.7055
  783TIP3    H123984   3.828   3.357   6.847 -0.9793  1.0802 -0.8319
  783TIP3    H223985   3.705   3.278   6.808 -0.5443 -0.9587  1.6854
  784TIP3   OH223986   5.596   6.915   6.826 -0.2625 -0.6104 -0.5128
  784TIP3    H123987   5.642   6.977   6.769  0.0765 -0.5371 -0.1618
  784TIP3    H223988   5.539   6.971   6.880 -0.9357 -0.7157 -1.0900
  785TIP3   OH223989   4.353   5.878   7.215  0.3295  0.8147 -0.3886
  785TIP3    H123990   4.303   5.897   7.294  0.1913  2.1792 -0.7585
  785TIP3    H223991   4.297   5.819   7.164  0.0107  0.6715  0.1265
  786TIP3   OH223992   3.149   1.534   0.727 -0.1824  0.1163  0.3059
  786TIP3    H123993   3.154   1.463   0.663  1.2530 -0.2904  0.8192
  786TIP3    H223994   3.146   1.490   0.812  0.6036  0.6419  0.6206
  787TIP3   OH223995   3.629   6.178   6.760  0.0693  0.0146  0.2409
  787TIP3    H123996   3.605   6.258   6.806  0.0457 -0.6696  1.4839
  787TIP3    H223997   3.722   6.166   6.781  0.3888  0.3357 -0.9292
  788TIP3   OH223998   0.713   6.737   7.750 -0.0767 -0.2018  0.5462
  788TIP3    H123999   0.670   6.671   7.695  0.5274 -0.6820  0.6436
  788TIP3    H224000   0.646   6.805   7.762 -0.7707 -0.8719  0.5873
  789TIP3   OH224001   7.065   1.349   7.653 -0.3500 -0.2545  0.1517
  789TIP3    H124002   7.146   1.309   7.684 -0.4795  0.4735  1.5049
  789TIP3    H224003   7.004   1.276   7.645  0.2261 -0.7140 -0.2397
  790TIP3   OH224004   5.123   2.959   1.444 -0.0017  0.0956  0.1930
  790TIP3    H124005   5.141   2.894   1.512 -0.9942  0.4861  0.8532
  790TIP3    H224006   5.062   2.916   1.385 -1.0677  0.5782  0.9153
  791TIP3   OH224007   0.438   2.303   6.665  0.2383 -0.5925 -0.1914
  791TIP3    H124008   0.350   2.270   6.646  0.6710 -1.6310 -0.4593
  791TIP3    H224009   0.470   2.335   6.580  0.3563 -0.8033 -0.2272
  792TIP3   OH224010   2.777   3.250   0.515  0.2246  0.2386 -0.4863
  792TIP3    H124011   2.707   3.205   0.467 -0.3423  1.3990 -0.7868
  792TIP3    H224012   2.773   3.340   0.483 -0.2239  1.0772  1.7629
  793TIP3   OH224013   1.902   4.961   0.586  0.1210 -0.9171  0.0186
  793TIP3    H124014   1.826   4.925   0.632  0.8080 -1.1913  0.9450
  793TIP3    H224015   1.870   5.044   0.550 -1.0281 -1.6966 -0.8323
  794TIP3   OH224016   6.902   3.243   7.898 -0.0743 -0.0924 -0.1793
  794TIP3    H124017   6.871   3.156   7.921 -0.1652  0.1431  0.6407
  794TIP3    H224018   6.950   3.272   7.976 -0.2144  0.6655 -0.3663
  795TIP3   OH224019   0.043   1.096   6.567 -0.3452 -0.3311  0.1216
  795TIP3    H124020  -0.017   1.056   6.503  1.1014 -4.0537  0.8552
  795TIP3    H224021   0.124   1.110   6.518 -0.7243  1.5681 -0.0311
  796TIP3   OH224022   0.513   0.214   7.913 -0.2437 -0.8079  0.1924
  796TIP3    H124023   0.450   0.266   7.964  0.4632  0.1342  0.1212
  796TIP3    H224024   0.471   0.204   7.827  0.2320  0.9463 -0.2916
  797TIP3   OH224025   5.864   2.677   6.187 -1.1346  0.2271 -0.0177
  797TIP3    H124026   5.893   2.670   6.278 -1.4571 -2.0388 -0.0226
  797TIP3    H224027   5.944   2.695   6.138 -0.8586  0.8256  0.6372
  798TIP3   OH224028   0.610   2.893   2.413 -0.0835 -0.2405 -0.6303
  798TIP3    H124029   0.524   2.932   2.398 -0.0347  0.1371  0.0254
  798TIP3    H224030   0.665   2.966   2.443  0.2543 -0.6345 -0.2683
  799TIP3   OH224031   4.570   3.895   7.779  0.6923 -0.4441 -0.7839
  799TIP3    H124032   4.582   3.848   7.861 -2.1185  2.2463  1.4362
  799TIP3    H224033   4.482   3.871   7.750  0.0918  1.5736 -0.7940
  800TIP3   OH224034   2.279   4.764   6.166  0.2674  0.0188 -0.1092
  800TIP3    H124035   2.240   4.838   6.120  1.8875  2.1971  1.7663
  800TIP3    H224036   2.331   4.719   6.100  0.5831  1.5751 -0.9658
  801TIP3   OH224037   3.755   4.107   0.245  0.1808 -0.0433 -0.1062
  801TIP3    H124038   3.754   4.189   0.195  0.1993 -0.3701 -0.6533
  801TIP3    H224039   3.709   4.044   0.189  0.3029 -0.4478  0.2386
  802TIP3   OH224040   1.208   7.035   0.109  0.6684  0.3078 -0.1450
  802TIP3    H124041   1.241   6.975   0.043 -0.1783 -1.2098  0.7527
  802TIP3    H224042   1.174   6.979   0.178  2.1415  1.8088  1.9421
  803TIP3   OH224043   0.169   4.411   7.076  0.0389 -0.0065  0.0513
  803TIP3    H124044   0.127   4.372   7.152  0.5324  0.5689  0.6295
  803TIP3    H224045   0.208   4.337   7.029  1.2061 -0.1952  1.2846
  804TIP3   OH224046   1.811   0.098   1.826  0.3778  0.1251 -0.0384
  804TIP3    H124047   1.758   0.026   1.862 -1.9462  1.6943 -0.1442
  804TIP3    H224048   1.897   0.059   1.813 -1.4375 -3.5672 -2.9464
  805TIP3   OH224049   0.135   5.561   6.504 -0.3084  0.0465  0.2868
  805TIP3    H124050   0.091   5.574   6.588  1.1596  0.4958  1.0280
  805TIP3    H224051   0.127   5.645   6.459  0.2267  0.3024  0.6530
  806TIP3   OH224052   0.989   5.939   1.550  0.1283 -0.4117 -0.1242
  806TIP3    H124053   0.949   5.879   1.612 -0.3426  0.6770  0.6676
  806TIP3    H224054   1.081   5.913   1.547  0.4353  0.2468  1.9787
  807TIP3   OH224055   1.415   6.113   6.391 -0.0644  0.6940  0.2007
  807TIP3    H124056   1.367   6.174   6.448  1.7813  0.7633  1.7965
  807TIP3    H224057   1.469   6.062   6.451  1.9023  0.6716 -1.4820
  808TIP3   OH224058   3.886   2.957   6.961 -0.6143 -0.2814 -0.4177
  808TIP3    H124059   3.979   2.934   6.958 -0.8631 -1.6328  0.9589
  808TIP3    H224060   3.843   2.890   6.908 -1.0575 -1.2967  1.1886
  809TIP3   OH224061   0.940   3.341   7.683  0.4327 -0.4846  0.6080
  809TIP3    H124062   0.953   3.354   7.589  0.6036  0.2828  0.7286
  809TIP3    H224063   0.847   3.318   7.691  1.1894 -4.4713 -0.1061
  810TIP3   OH224064   2.263   3.068   2.046  0.1210  0.3417  0.5773
  810TIP3    H124065   2.348   3.025   2.052  0.7131  1.1468 -1.2325
  810TIP3    H224066   2.205   3.015   2.100  1.3538 -1.3043  0.3697
  811TIP3   OH224067   3.297   4.837   7.114 -0.2825 -0.2114 -0.2347
  811TIP3    H124068   3.208   4.808   7.132 -0.8479  1.7661  0.3386
  811TIP3    H224069   3.341   4.835   7.199 -0.9415  2.4616  0.2544
  812TIP3   OH224070   1.069   2.735   7.271  0.0652  0.3117 -0.4755
  812TIP3    H124071   1.161   2.755   7.253  0.3458 -0.4354  0.0709
  812TIP3    H224072   1.072   2.675   7.345 -0.9294  1.3443  0.4342
  813TIP3   OH224073   4.163   4.475   0.848  0.0437 -0.3682 -0.5194
  813TIP3    H124074   4.086   4.506   0.895  0.2413 -0.2771 -0.2476
  813TIP3    H224075   4.223   4.549   0.848  0.7645 -0.9028  0.6736
  814TIP3   OH224076   7.001   1.976   7.895  0.1995 -0.3993  0.1296
  814TIP3    H124077   7.083   1.927   7.899  0.6979  0.3894 -0.1734
  814TIP3    H224078   6.995   2.006   7.804  0.5108  1.0866  0.5717
  815TIP3   OH224079   0.640   6.397   0.470 -0.1781 -0.4178  0.0788
  815TIP3    H124080   0.687   6.318   0.498  0.9916  0.2577  0.1047
  815TIP3    H224081   0.645   6.456   0.545 -0.1376  0.0666 -0.2990
  816TIP3   OH224082   6.517   3.274   0.638  0.3527 -0.5360 -0.0973
  816TIP3    H124083   6.427   3.247   0.621 -0.1435  0.7291  0.3767
  816TIP3    H224084   6.552   3.296   0.552  0.0641 -0.6296 -0.2407
  817TIP3   OH224085   1.807   3.005   1.189  0.0479  0.4004 -0.0603
  817TIP3    H124086   1.841   3.094   1.195 -0.0462  0.3897  0.8281
  817TIP3    H224087   1.876   2.951   1.227  0.0754  0.0991 -0.5319
  818TIP3   OH224088   2.639   5.900   6.491  0.0683  0.1992 -0.4808
  818TIP3    H124089   2.609   5.958   6.421  0.2673  1.1330  0.2001
  818TIP3    H224090   2.606   5.813   6.465 -0.8909  0.7368 -1.1117
  819TIP3   OH224091   0.044   0.523   6.785  0.0852  0.2244  0.7733
  819TIP3    H124092   0.111   0.553   6.724 -0.1383 -1.3182 -0.2824
  819TIP3    H224093  -0.015   0.470   6.732  0.2963 -1.8151  2.4336
  820TIP3   OH224094   7.125   1.834   7.121 -0.1629  0.9433  0.2888
  820TIP3    H124095   7.147   1.871   7.206  1.0446 -1.6404  1.2163
  820TIP3    H224096   7.072   1.757   7.142  0.7342 -0.1431 -1.2172
  821TIP3   OH224097   2.309   4.049   7.348 -0.2730  0.4196  0.6235
  821TIP3    H124098   2.378   4.115   7.347  0.3049 -0.1696  0.8856
  821TIP3    H224099   2.353   3.968   7.322 -0.6017 -0.2072  1.9516
  822TIP3   OH224100   0.451   4.754   6.836 -0.0107 -0.5386 -0.0429
  822TIP3    H124101   0.406   4.737   6.753  0.2997  0.7705 -0.4999
  822TIP3    H224102   0.526   4.694   6.836  0.2436 -0.2294 -0.9208
  823TIP3   OH224103   1.476   2.101   1.655  0.4605 -0.2797  0.0347
  823TIP3    H124104   1.566   2.103   1.622  0.3911  0.0915 -0.1388
  823TIP3    H224105   1.456   2.008   1.666  0.1035 -0.5107 -2.0753
  824TIP3   OH224106   6.643   2.565   0.103  0.1349  0.5838 -0.0231
  824TIP3    H124107   6.665   2.623   0.175 -2.1649 -0.7369  1.8690
  824TIP3    H224108   6.702   2.490   0.113  0.0562  0.5615  0.2600
  825TIP3   OH224109   5.888   4.228   1.544 -0.3532 -0.2736 -0.6590
  825TIP3    H124110   5.958   4.167   1.566 -1.1136 -1.2155 -0.7310
  825TIP3    H224111   5.849   4.252   1.628 -1.6139 -1.8546 -0.7265
  826TIP3   OH224112   4.478   5.783   0.372 -0.7248 -0.1814 -0.5303
  826TIP3    H124113   4.554   5.725   0.369 -0.9977 -0.5353 -0.8489
  826TIP3    H224114   4.403   5.725   0.357 -1.1274  0.0397  0.5452
  827TIP3   OH224115   3.726   3.522   6.286  0.3201  0.1683  0.0897
  827TIP3    H124116   3.699   3.430   6.283  0.7479  0.0723 -1.3166
  827TIP3    H224117   3.736   3.541   6.380  0.4832 -1.2880  0.3875
  828TIP3   OH224118   1.560   6.373   6.592  0.0584 -0.3660  0.2998
  828TIP3    H124119   1.565   6.277   6.599 -1.5747 -0.5291 -0.3132
  828TIP3    H224120   1.524   6.400   6.677 -1.7568 -0.5536 -0.3700
  829TIP3   OH224121   5.023   2.169   6.621  0.4156  0.5567 -0.0997
  829TIP3    H124122   5.015   2.253   6.665  2.3948  0.2979  0.8859
  829TIP3    H224123   4.935   2.150   6.589 -0.2110  2.6791  0.2068
  830TIP3   OH224124   6.627   3.057   0.772  0.1095  0.5341  1.3972
  830TIP3    H124125   6.576   3.131   0.738 -0.1303  0.0910  0.7754
  830TIP3    H224126   6.567   3.013   0.833 -1.6865 -2.0643 -1.8954
  831TIP3   OH224127   1.534   2.042   0.906  0.6189 -0.6635 -0.3311
  831TIP3    H124128   1.575   1.961   0.937 -1.6250 -2.0346 -0.7337
  831TIP3    H224129   1.541   2.039   0.811 -0.3576 -0.9077 -0.4047
  832TIP3   OH224130   1.344   6.091   7.537 -0.3795  0.2058 -0.6885
  832TIP3    H124131   1.344   6.180   7.572 -2.1217  0.3726 -1.0467
  832TIP3    H224132   1.432   6.081   7.499 -0.1182  1.7338 -0.5699
  833TIP3   OH224133   4.655   0.378   0.490  0.0804 -0.5431 -0.5883
  833TIP3    H124134   4.568   0.337   0.494 -0.1823  0.0801  0.6062
  833TIP3    H224135   4.638   0.471   0.502  0.7541 -0.1479 -2.4299
  834TIP3   OH224136   7.028   0.730   7.387 -0.2535 -0.4368 -0.4137
  834TIP3    H124137   6.957   0.686   7.434 -0.2697 -0.7234 -0.7028
  834TIP3    H224138   6.988   0.809   7.351 -0.2071 -0.1412  0.1680
  835TIP3   OH224139   1.740   6.519   0.900  0.0943 -0.1595  0.1948
  835TIP3    H124140   1.785   6.512   0.984  0.3479 -1.1130 -0.0058
  835TIP3    H224141   1.788   6.460   0.842 -0.2671  0.2497 -0.5391
  836TIP3   OH224142   4.361   5.271   7.971  0.6660  0.5624 -0.4439
  836TIP3    H124143   4.442   5.268   7.919  1.5794  0.0017  0.9310
  836TIP3    H224144   4.382   5.332   8.043  0.0908 -0.0799  0.2780
  837TIP3   OH224145   6.658   4.586   6.093  0.0667 -0.1710 -0.4309
  837TIP3    H124146   6.596   4.658   6.087  0.4989  0.2026 -0.4357
  837TIP3    H224147   6.722   4.603   6.024 -0.5710 -1.2793 -1.3384
  838TIP3   OH224148   3.208   6.923   6.942  0.2057 -0.5128 -0.1610
  838TIP3    H124149   3.138   6.894   6.884  0.6836 -0.2333 -0.8856
  838TIP3    H224150   3.281   6.864   6.923  0.9793  0.7262 -1.1873
  839TIP3   OH224151   3.164   5.998   7.575 -0.5708  0.0356  0.1647
  839TIP3    H124152   3.107   6.051   7.631  1.1091  1.5392  0.5481
  839TIP3    H224153   3.106   5.931   7.538 -2.7013  1.7935  0.0985
  840TIP3   OH224154   4.936   5.668   8.095 -0.1180 -0.5086  0.0024
  840TIP3    H124155   4.876   5.742   8.105 -2.1439 -1.9697 -0.7767
  840TIP3    H224156   5.005   5.701   8.038 -0.6764  0.9246  0.1065
  841TIP3   OH224157   1.345   6.494   7.508 -0.2025  0.3309 -0.0613
  841TIP3    H124158   1.367   6.570   7.454 -2.1314  1.0806  0.1528
  841TIP3    H224159   1.272   6.523   7.563  0.0399 -1.2077  1.1424
  842TIP3   OH224160   4.750   5.323   1.901  0.5438  0.0274  0.7626
  842TIP3    H124161   4.684   5.380   1.941 -0.9284 -0.5851 -0.6495
  842TIP3    H224162   4.820   5.382   1.875 -0.3702  1.0297  0.4902
  843TIP3   OH224163   4.847   6.835   7.472 -0.6828  0.2896  0.6758
  843TIP3    H124164   4.841   6.929   7.458 -1.5908  0.2527  0.7371
  843TIP3    H224165   4.784   6.798   7.411 -0.1781 -0.2979  0.5007
  844TIP3   OH224166   6.514   5.147   7.529 -0.1479 -0.2654 -0.2838
  844TIP3    H124167   6.577   5.075   7.536  0.0310 -0.2517 -1.5364
  844TIP3    H224168   6.459   5.137   7.606  1.6232 -0.0249  1.0794
  845TIP3   OH224169   2.356   3.964   1.004 -0.6623 -0.0407  0.0820
  845TIP3    H124170   2.438   4.008   0.983  0.3211 -1.3030  1.1569
  845TIP3    H224171   2.376   3.871   0.996 -1.9126 -0.3821  0.6603
  846TIP3   OH224172   5.448   6.031   0.690  0.2380 -0.3574 -0.3114
  846TIP3    H124173   5.506   6.093   0.735  0.4786 -1.0609  0.3783
  846TIP3    H224174   5.429   5.964   0.756 -0.6144 -0.6297 -0.8173
  847TIP3   OH224175   4.519   5.671   1.163 -0.0373 -0.0502 -0.7872
  847TIP3    H124176   4.597   5.634   1.122 -0.9809 -3.1077 -0.0890
  847TIP3    H224177   4.500   5.750   1.112  2.3341 -0.3202 -2.2339
  848TIP3   OH224178   2.690   1.301   1.034 -0.4771  0.0045  0.0977
  848TIP3    H124179   2.615   1.288   0.976  0.9996 -1.7235 -1.5742
  848TIP3    H224180   2.756   1.239   1.002  1.4518  1.0031  1.8816
  849TIP3   OH224181   0.083   6.721   8.025 -0.1038  0.2855  0.3978
  849TIP3    H124182   0.078   6.643   8.081 -0.9469 -0.6981 -0.9910
  849TIP3    H224183   0.174   6.750   8.033 -0.0287 -0.2468  1.7147
  850TIP3   OH224184   5.199   4.284   7.306  0.2795 -0.5921 -0.3903
  850TIP3    H124185   5.145   4.322   7.375  0.7989  0.4302 -0.5202
  850TIP3    H224186   5.219   4.196   7.336 -0.1671 -0.4387  0.3778
  851TIP3   OH224187   6.988   1.816   0.789 -0.2970  0.0007  0.3858
  851TIP3    H124188   6.975   1.892   0.845  1.7829  1.4099 -0.8894
  851TIP3    H224189   7.007   1.853   0.703  0.6144 -1.9612 -0.3204
  852TIP3   OH224190   4.257   4.335   0.643 -0.7730 -0.0015 -0.1263
  852TIP3    H124191   4.293   4.252   0.673  0.4960  0.7942  0.6915
  852TIP3    H224192   4.210   4.370   0.719 -1.6032 -0.1176 -0.5729
  853TIP3   OH224193   2.639   2.625   0.014  0.3037  0.0772  0.1625
  853TIP3    H124194   2.647   2.669  -0.070 -1.7322 -1.1238 -0.7392
  853TIP3    H224195   2.561   2.664   0.054 -0.5241 -1.4313  0.0983
  854TIP3   OH224196   4.023   0.417   6.321 -0.0614 -0.0201  0.2960
  854TIP3    H124197   4.034   0.323   6.329 -1.3740 -0.0624  1.9997
  854TIP3    H224198   4.065   0.439   6.237  0.1891 -2.0993 -0.1675
  855TIP3   OH224199   4.617   3.536   1.360 -0.0508 -0.3667 -1.0547
  855TIP3    H124200   4.713   3.531   1.361 -0.0242 -0.4442  1.2713
  855TIP3    H224201   4.588   3.445   1.366 -0.2590 -0.2822 -0.7838
  856TIP3   OH224202   6.489   6.154   0.043 -0.5481  0.0072 -0.5490
  856TIP3    H124203   6.402   6.188   0.065 -0.7279 -0.5091 -0.4452
  856TIP3    H224204   6.483   6.133  -0.050  0.0949  1.8351 -1.0408
  857TIP3   OH224205   2.319   0.335   2.023 -0.8915 -0.6425  0.4532
  857TIP3    H124206   2.378   0.279   1.973  0.4755  1.1700 -0.0903
  857TIP3    H224207   2.323   0.301   2.112  0.8578 -0.6821  0.3827
  858TIP3   OH224208   4.819   1.999   6.142  0.0140 -0.2705 -0.7512
  858TIP3    H124209   4.852   1.922   6.096  0.2683 -0.8562  0.3815
  858TIP3    H224210   4.736   1.969   6.181 -1.3412  0.8431 -2.5926
  859TIP3   OH224211   5.500   1.953   0.045 -0.1390 -0.5093  0.3013
  859TIP3    H124212   5.551   1.944   0.126  0.0068 -1.5805  0.1076
  859TIP3    H224213   5.494   2.048   0.031  1.7399 -0.3306  0.3728
  860TIP3   OH224214   1.052   1.919   1.746  0.6522  0.0222  0.1349
  860TIP3    H124215   1.062   1.863   1.823 -0.5674 -0.5634 -0.1088
  860TIP3    H224216   1.130   1.975   1.747  1.4760 -1.0860  0.8654
  861TIP3   OH224217   0.794   2.200   7.450 -0.3105 -0.6576  0.1974
  861TIP3    H124218   0.778   2.274   7.392  1.8687  2.0119  2.6480
  861TIP3    H224219   0.822   2.129   7.393  1.7780  1.8076 -2.0623
  862TIP3   OH224220   6.324   4.818   6.354  0.4303 -0.1537  0.2144
  862TIP3    H124221   6.229   4.831   6.357  0.3515 -0.4848 -0.6096
  862TIP3    H224222   6.335   4.725   6.334  0.9095  0.0675 -0.6171
  863TIP3   OH224223   5.834   5.413   0.869 -0.0351 -0.4542  0.0668
  863TIP3    H124224   5.746   5.388   0.900  0.2829  0.5515  1.9277
  863TIP3    H224225   5.850   5.498   0.909  2.1576 -1.0225  0.5185
  864TIP3   OH224226   1.038   0.357   6.334  0.3189 -0.1319  0.2604
  864TIP3    H124227   0.977   0.325   6.267 -0.2541 -0.3655  0.8738
  864TIP3    H224228   1.125   0.342   6.297  0.0175  0.8584 -0.9424
  865TIP3   OH224229   6.363   0.135   8.048 -0.7501  0.2365 -0.1170
  865TIP3    H124230   6.317   0.054   8.029 -1.1727  0.7488 -1.4290
  865TIP3    H224231   6.342   0.155   8.139 -0.5851 -1.1357  0.2504
  866TIP3   OH224232   1.203   6.349   0.642  0.1986  0.2690  0.0965
  866TIP3    H124233   1.116   6.312   0.661  1.0706 -0.7671  2.5061
  866TIP3    H224234   1.263   6.274   0.648  1.3220  1.0266 -1.1719
  867TIP3   OH224235   3.573   7.080   7.043  0.0857  0.5483 -0.7592
  867TIP3    H124236   3.607   7.169   7.029 -1.7481  1.1649 -1.6288
  867TIP3    H224237   3.544   7.052   6.956 -1.3081 -0.0474 -0.1210
  868TIP3   OH224238   2.017   3.131   8.105  0.0078  0.4051 -0.1376
  868TIP3    H124239   2.032   3.101   8.195 -1.6698 -0.4259 -0.0886
  868TIP3    H224240   2.006   3.051   8.054  0.2985  0.8827 -0.9733
  869TIP3   OH224241   1.729   5.460   6.230 -0.6077 -0.0301  0.1989
  869TIP3    H124242   1.807   5.436   6.180 -0.5643  1.9831 -0.7770
  869TIP3    H224243   1.761   5.477   6.319 -0.3988 -1.7946  0.5015
  870TIP3   OH224244   3.268   5.418   7.429  0.3020  0.4762 -0.3944
  870TIP3    H124245   3.301   5.507   7.441  1.1848  0.0997  0.0591
  870TIP3    H224246   3.181   5.419   7.469  1.9460  0.0837  3.6413
  871TIP3   OH224247   4.585   2.730   1.421 -0.1168 -0.4113 -0.5425
  871TIP3    H124248   4.642   2.781   1.364  2.1729  0.9281  2.6660
  871TIP3    H224249   4.500   2.728   1.375  1.0714  1.9128 -3.1246
  872TIP3   OH224250   5.517   1.226   1.598  0.2362 -0.1214 -0.4608
  872TIP3    H124251   5.511   1.180   1.514  0.1465  0.6600 -0.8871
  872TIP3    H224252   5.436   1.202   1.645 -0.4163  0.5891 -1.1936
  873TIP3   OH224253   4.821   3.977   6.664 -0.0628 -0.9847  0.0496
  873TIP3    H124254   4.735   3.941   6.643  0.7226 -1.3063 -3.2407
  873TIP3    H224255   4.881   3.904   6.651  0.9051 -0.1657 -0.1940
  874TIP3   OH224256   2.379   2.790   0.028 -0.2996 -0.4114 -0.6381
  874TIP3    H124257   2.304   2.741  -0.008  0.2905 -0.2328 -2.1746
  874TIP3    H224258   2.427   2.821  -0.049 -0.8513  2.9698  0.2257
  875TIP3   OH224259   6.193   2.252   7.337 -0.4316 -0.7959  0.6715
  875TIP3    H124260   6.284   2.271   7.313 -0.2194 -1.2621  1.0870
  875TIP3    H224261   6.186   2.157   7.329 -1.3510 -0.6337 -0.9285
  876TIP3   OH224262   2.692   0.483   7.874  0.8192  0.5245  0.1791
  876TIP3    H124263   2.657   0.486   7.785 -0.7381  2.7318  0.7748
  876TIP3    H224264   2.640   0.415   7.918  1.0768 -0.0445 -0.3912
  877TIP3   OH224265   0.916   2.665   0.207  0.2586  0.0335 -0.3538
  877TIP3    H124266   0.934   2.588   0.261  0.7866 -0.8420 -1.7251
  877TIP3    H224267   0.999   2.713   0.205 -0.3809  1.3547  1.4984
  878TIP3   OH224268   6.040   3.940   1.666 -0.2632  0.5531 -0.3033
  878TIP3    H124269   6.093   4.012   1.632 -0.0696  0.7037  0.3103
  878TIP3    H224270   5.968   3.984   1.713 -1.8298  0.3977 -2.3764
  879TIP3   OH224271   3.402   5.031   0.948 -0.0892  0.3102  0.8493
  879TIP3    H124272   3.317   5.033   0.992 -0.7601 -0.7461 -0.3305
  879TIP3    H224273   3.405   5.112   0.898 -0.5004  0.2585  0.7351
  880TIP3   OH224274   7.068   0.285   1.738  0.1406  0.0886  0.1887
  880TIP3    H124275   7.107   0.203   1.768  1.6881  0.6681 -0.1657
  880TIP3    H224276   7.022   0.262   1.657 -0.7087 -0.7039  0.8758
  881TIP3   OH224277   1.335   0.763   7.612 -0.1693 -0.1757  0.1744
  881TIP3    H124278   1.302   0.852   7.599  1.4020  0.7684  2.2301
  881TIP3    H224279   1.256   0.710   7.622 -1.1255  1.0026 -0.7415
  882TIP3   OH224280   2.856   6.209   6.773  0.3113 -0.2236  0.2348
  882TIP3    H124281   2.877   6.300   6.792 -0.7851  0.1738 -0.3797
  882TIP3    H224282   2.938   6.172   6.739  0.0901  1.3255 -2.2783
  883TIP3   OH224283   0.370   6.454   7.875  0.0524 -0.4365  0.0014
  883TIP3    H124284   0.377   6.358   7.880 -1.9591 -0.6050  0.2672
  883TIP3    H224285   0.358   6.481   7.967 -1.6566 -0.1791 -0.2634
  884TIP3   OH224286   2.305   5.036   6.789  0.5753  0.0501 -0.5860
  884TIP3    H124287   2.362   5.098   6.836  0.4767  0.3427 -0.8470
  884TIP3    H224288   2.297   5.074   6.701 -0.0103  0.0009 -0.5556
  885TIP3   OH224289   4.015   3.369   1.990  0.1794  0.1595  0.0460
  885TIP3    H124290   4.033   3.458   1.962  1.3240  0.4042  1.4254
  885TIP3    H224291   3.938   3.376   2.046  1.0071  0.5316  1.1925
  886TIP3   OH224292   2.236   2.385   7.687 -0.2348  0.0954  0.0558
  886TIP3    H124293   2.207   2.443   7.616 -0.9000 -0.4853 -0.1577
  886TIP3    H224294   2.238   2.298   7.647  2.0570  0.1181 -0.0088
  887TIP3   OH224295   2.339   1.935   1.582  0.3119  0.5661 -0.5792
  887TIP3    H124296   2.307   2.002   1.522 -1.1133  1.2461  0.8562
  887TIP3    H224297   2.340   1.978   1.667  0.7374 -0.8388  0.1544
  888TIP3   OH224298   1.053   1.074   6.560 -0.7766 -0.0828 -0.2879
  888TIP3    H124299   1.136   1.099   6.601 -0.9922 -1.0699  0.8103
  888TIP3    H224300   0.991   1.142   6.588 -0.5797  0.0648 -0.2075
  889TIP3   OH224301   6.493   2.189   1.419  0.4064 -0.0092 -0.1174
  889TIP3    H124302   6.405   2.153   1.418 -0.4630  1.9239  1.0088
  889TIP3    H224303   6.540   2.140   1.486  0.3622 -1.3383 -1.0248
  890TIP3   OH224304   5.599   3.177   0.198 -0.5363  0.0255  0.6653
  890TIP3    H124305   5.619   3.149   0.287  0.8485  1.1043  0.7237
  890TIP3    H224306   5.503   3.182   0.195 -0.6803 -1.5949  1.5707
  891TIP3   OH224307   0.208   6.792   6.991 -0.1796  0.2794  0.6307
  891TIP3    H124308   0.138   6.727   7.000 -1.1792  0.9749 -1.4592
  891TIP3    H224309   0.272   6.749   6.934 -1.3058  1.3332 -1.6045
  892TIP3   OH224310   1.123   4.470   7.081  0.4528 -0.3646 -0.3746
  892TIP3    H124311   1.069   4.391   7.074 -0.5925  0.3340 -0.4374
  892TIP3    H224312   1.061   4.539   7.104  1.1363  0.6938 -1.5803
  893TIP3   OH224313   4.478   2.721   6.706  0.0108  0.0107  0.3294
  893TIP3    H124314   4.443   2.688   6.623 -0.7065 -0.6210  0.8751
  893TIP3    H224315   4.508   2.810   6.685 -0.0096 -0.1956 -0.6414
  894TIP3   OH224316   1.238   4.652   6.698 -0.0275  0.0824 -0.4252
  894TIP3    H124317   1.181   4.675   6.772  0.5828 -2.0837  0.7914
  894TIP3    H224318   1.201   4.701   6.624 -0.9737  1.9168  1.1558
  895TIP3   OH224319   6.833   1.165   6.385 -0.0168 -0.1127 -0.1302
  895TIP3    H124320   6.900   1.110   6.344 -0.8922 -0.4791 -1.1195
  895TIP3    H224321   6.750   1.130   6.352 -0.6699  0.7069  0.6027
  896TIP3   OH224322   6.939   2.713   1.427  0.3985  0.4004  0.8356
  896TIP3    H124323   6.899   2.654   1.491  0.5164  1.5277  1.9929
  896TIP3    H224324   7.013   2.753   1.474  1.2967  0.2900 -0.4315
  897TIP3   OH224325   5.681   0.791   7.578 -0.0601 -0.3953 -0.3184
  897TIP3    H124326   5.649   0.862   7.522  0.7180 -0.3366 -0.6976
  897TIP3    H224327   5.760   0.760   7.535 -1.0431 -2.3444 -0.8471
  898TIP3   OH224328   1.965   6.306   6.070  0.2316  0.2593 -0.1474
  898TIP3    H124329   2.057   6.278   6.071  0.0336 -0.3655  0.6665
  898TIP3    H224330   1.965   6.387   6.121  0.1006 -0.5125  1.1198
  899TIP3   OH224331   5.826   4.382   7.534 -0.5699  0.2235  0.2405
  899TIP3    H124332   5.904   4.430   7.560  0.3638 -0.1532 -1.6446
  899TIP3    H224333   5.822   4.308   7.594  1.3612 -0.5085 -0.4503
  900TIP3   OH224334   4.586   3.379   6.113 -0.2101  0.1421 -0.4241
  900TIP3    H124335   4.606   3.449   6.052 -0.2524 -0.2941 -0.9506
  900TIP3    H224336   4.671   3.346   6.142 -0.0349  2.8786  2.8249
  901TIP3   OH224337   4.225   5.675   0.421 -0.0822 -0.1141  0.0067
  901TIP3    H124338   4.199   5.664   0.513 -1.8008  0.5430 -0.3700
  901TIP3    H224339   4.219   5.587   0.384 -1.0258 -0.1105  0.1306
  902TIP3   OH224340   6.776   1.104   0.596 -0.7486 -0.0246 -0.0235
  902TIP3    H124341   6.805   1.071   0.511  0.8115 -0.1816  0.5332
  902TIP3    H224342   6.742   1.027   0.641  0.7968 -0.4890  0.4232
  903TIP3   OH224343   7.020   6.112   6.823  0.2203 -0.3302  0.6845
  903TIP3    H124344   7.105   6.143   6.855 -0.2196  0.3194  1.2629
  903TIP3    H224345   7.005   6.030   6.870  0.4906 -0.4008  0.6477
  904TIP3   OH224346   6.200   4.078   6.656  0.0735 -0.2257  0.1934
  904TIP3    H124347   6.223   4.091   6.564  0.5384  1.9887  0.5809
  904TIP3    H224348   6.147   4.154   6.679  2.3068  0.8114  2.4629
  905TIP3   OH224349   4.341   1.677   5.749 -0.1396 -0.5699 -0.1139
  905TIP3    H124350   4.290   1.696   5.828 -0.4915  0.7429 -0.6257
  905TIP3    H224351   4.383   1.593   5.767 -1.3907 -1.0180  0.8768
  906TIP3   OH224352   1.418   6.556   0.369  0.2966 -0.5451 -0.5724
  906TIP3    H124353   1.427   6.464   0.346 -2.2975 -0.9517 -0.1584
  906TIP3    H224354   1.334   6.563   0.413  1.1416  1.7609  0.8951
  907TIP3   OH224355   3.878   1.136   1.040 -0.1192  0.0951  0.5311
  907TIP3    H124356   3.973   1.138   1.039 -0.1071  0.8280  1.3692
  907TIP3    H224357   3.855   1.044   1.031  0.6101  0.0564 -1.4557
  908TIP3   OH224358   2.565   0.655   1.829  0.1235 -0.0628  0.3264
  908TIP3    H124359   2.497   0.587   1.833 -0.0026  0.0158 -0.3297
  908TIP3    H224360   2.552   0.706   1.908  0.5132 -1.0783  1.0668
  909TIP3   OH224361   2.207   0.351   5.763 -0.3266 -0.1685  0.0759
  909TIP3    H124362   2.239   0.261   5.756 -1.1276 -0.4545 -0.0650
  909TIP3    H224363   2.198   0.380   5.672  0.4131  0.2349  0.1289
  910TIP3   OH224364   4.845   5.158   1.014 -0.6572  0.3352  0.2019
  910TIP3    H124365   4.769   5.194   0.969  0.0714 -0.0901 -1.4318
  910TIP3    H224366   4.885   5.233   1.057 -0.3029  1.1355 -1.4740
  911TIP3   OH224367   6.776   2.784   6.673 -0.8066  0.0547 -0.4299
  911TIP3    H124368   6.782   2.824   6.586 -1.6949  0.1461 -0.4612
  911TIP3    H224369   6.702   2.829   6.714 -1.1965 -0.8792 -0.0979
  912TIP3   OH224370   3.025   6.412   1.773  0.4118 -0.0319  0.1524
  912TIP3    H124371   2.978   6.482   1.819  0.7091 -0.2762  0.8527
  912TIP3    H224372   3.106   6.402   1.823 -0.2427 -1.8434  0.9164
  913TIP3   OH224373   3.148   3.418   6.461 -0.3603  0.3927  0.2899
  913TIP3    H124374   3.104   3.503   6.472 -0.7805  0.3991 -1.2964
  913TIP3    H224375   3.077   3.355   6.456 -0.0288 -0.2240  2.4389
  914TIP3   OH224376   6.845   1.386   7.983  0.3139 -0.1788  0.3767
  914TIP3    H124377   6.840   1.333   7.904 -0.1225  2.2930 -1.3552
  914TIP3    H224378   6.922   1.442   7.969 -1.2355  2.0790  0.4611
  915TIP3   OH224379   6.147   2.208   6.843  0.5282  0.7410 -0.2712
  915TIP3    H124380   6.062   2.250   6.860  1.4527  1.3275  4.0429
  915TIP3    H224381   6.129   2.114   6.848 -0.0168  0.8360 -0.3956
  916TIP3   OH224382   6.410   6.205   6.576 -0.0813 -0.3369 -0.8532
  916TIP3    H124383   6.373   6.207   6.664  0.4888 -0.6029 -0.6061
  916TIP3    H224384   6.494   6.251   6.584  0.6164 -1.5711 -0.9514
  917TIP3   OH224385   4.208   6.432   0.933  0.3257  0.1717 -0.2875
  917TIP3    H124386   4.125   6.431   0.981  0.3170 -0.5577 -0.3063
  917TIP3    H224387   4.275   6.445   1.000  0.1185  2.4293 -0.4338
  918TIP3   OH224388   2.205   5.417   6.662 -0.7562  0.3729  0.0079
  918TIP3    H124389   2.132   5.455   6.712 -0.3583 -0.7943  1.5659
  918TIP3    H224390   2.282   5.467   6.691 -0.1405 -1.7533  2.4730
  919TIP3   OH224391   1.872   6.414   1.705  0.0006  0.1302  0.8194
  919TIP3    H124392   1.865   6.429   1.799 -0.4007  0.8937  0.6773
  919TIP3    H224393   1.912   6.327   1.697 -0.9686 -0.4148  1.6898
  920TIP3   OH224394   6.026   4.024   7.375 -0.0909 -0.4231  0.0314
  920TIP3    H124395   6.081   4.102   7.370  1.0907 -1.1843  0.5914
  920TIP3    H224396   6.062   3.974   7.448 -2.0080 -0.6211  0.9065
  921TIP3   OH224397   5.175   1.333   1.564 -0.3658  0.6165  1.2042
  921TIP3    H124398   5.116   1.350   1.637 -1.9333 -0.5347  0.2700
  921TIP3    H224399   5.178   1.238   1.558 -0.4970  0.6981 -0.4055
  922TIP3   OH224400   1.171   6.303   1.524 -0.5993 -0.3082 -0.2200
  922TIP3    H124401   1.206   6.230   1.473  2.1111  0.2849  0.6216
  922TIP3    H224402   1.248   6.355   1.548 -2.3396  2.4616 -0.1725
  923TIP3   OH224403   3.533   5.052   0.657 -0.4423 -0.1104  0.0847
  923TIP3    H124404   3.456   5.094   0.696 -0.1882 -0.2017  0.6919
  923TIP3    H224405   3.559   5.112   0.587  0.8337  1.5893  1.9023
  924TIP3   OH224406   3.245   1.626   6.444 -0.3564 -0.4322  0.4170
  924TIP3    H124407   3.214   1.547   6.399  0.7377 -1.3827  1.2530
  924TIP3    H224408   3.175   1.690   6.432 -0.0910 -0.6119 -2.6188
  925TIP3   OH224409   1.370   5.780   0.570 -0.2029 -0.4547 -0.0628
  925TIP3    H124410   1.275   5.788   0.567 -0.2227 -0.4271  0.5031
  925TIP3    H224411   1.386   5.700   0.621  0.0669 -0.8970 -0.8316
  926TIP3   OH224412   0.406   1.467   0.844  0.2204 -0.3398 -0.0813
  926TIP3    H124413   0.493   1.477   0.883  0.5720  0.0603 -0.9233
  926TIP3    H224414   0.422   1.414   0.765 -0.7000 -2.5132  1.1102
  927TIP3   OH224415   3.028   5.675   6.783  0.0226  0.0802 -0.0312
  927TIP3    H124416   3.059   5.694   6.695 -1.4815  0.7816 -0.4498
  927TIP3    H224417   3.095   5.711   6.841 -0.0778  1.7613 -0.8918
  928TIP3   OH224418   1.526   3.422   8.066 -0.5874 -0.0116  0.6058
  928TIP3    H124419   1.476   3.372   8.001 -0.5241 -0.2500  0.7371
  928TIP3    H224420   1.597   3.462   8.016 -0.9781  0.4307  0.3970
  929TIP3   OH224421   5.732   0.712   6.669  0.3343  0.1043  0.8453
  929TIP3    H124422   5.807   0.750   6.714  1.2141  1.1199 -1.3198
  929TIP3    H224423   5.769   0.668   6.593 -1.2066  0.3516 -0.0992
  930TIP3   OH224424   2.770   7.060   5.459 -0.1792  0.3275  0.0569
  930TIP3    H124425   2.714   7.035   5.533  0.6834  0.9914  0.9608
  930TIP3    H224426   2.855   7.081   5.499  0.9544 -1.2786 -1.3312
  931TIP3   OH224427   2.955   2.624   0.026  0.0212 -0.4455 -0.4929
  931TIP3    H124428   2.866   2.655   0.036  0.1766 -0.6327  1.9035
  931TIP3    H224429   3.006   2.674   0.089  1.1196 -2.1670  0.0688
  932TIP3   OH224430   1.562   6.562   0.019 -0.1063 -0.2322 -0.1609
  932TIP3    H124431   1.495   6.627   0.039  0.7150  0.6049 -0.0885
  932TIP3    H224432   1.640   6.591   0.067  0.3130 -1.2038 -0.2205
  933TIP3   OH224433   6.542   0.330   8.023 -0.1636  0.1715  0.1290
  933TIP3    H124434   6.554   0.383   7.945 -1.5702  0.7080  0.2508
  933TIP3    H224435   6.469   0.272   8.003  0.7431 -1.0958  0.3422
  934TIP3   OH224436   6.722   0.783   0.325  0.3492 -0.8614  0.1183
  934TIP3    H124437   6.746   0.725   0.253  0.1879 -1.7668  0.7784
  934TIP3    H224438   6.632   0.808   0.307  0.4226 -0.7960 -0.1740
  935TIP3   OH224439   0.322   2.293   6.027 -0.3030 -1.0394 -0.1960
  935TIP3    H124440   0.369   2.371   5.998 -0.0490 -0.1988  2.2064
  935TIP3    H224441   0.230   2.318   6.027 -0.1271 -0.2333  1.7857
  936TIP3   OH224442   4.358   6.333   7.077  0.2668 -0.3216  0.0735
  936TIP3    H124443   4.438   6.286   7.099  1.0235 -0.4531 -2.5492
  936TIP3    H224444   4.290   6.293   7.131  2.0147  0.1956  2.8111
  937TIP3   OH224445   4.004   5.629   2.230 -0.2350  0.1138  0.1751
  937TIP3    H124446   4.056   5.707   2.212  1.4613 -1.1015 -0.4742
  937TIP3    H224447   3.914   5.656   2.213  0.5312  1.1994 -2.9040
  938TIP3   OH224448   0.191   0.751   0.807 -0.5928  0.3175  0.6088
  938TIP3    H124449   0.173   0.692   0.733  1.7118 -0.3495  0.4766
  938TIP3    H224450   0.113   0.747   0.861 -1.1902 -1.5283 -0.2945
  939TIP3   OH224451   2.260   5.831   5.850 -0.1674  0.3168  0.7229
  939TIP3    H124452   2.169   5.857   5.858 -0.7297  0.1476 -3.3376
  939TIP3    H224453   2.284   5.853   5.760  3.0928 -1.8423  0.8947
  940TIP3   OH224454   4.987   4.111   6.490 -0.0244 -0.1620 -0.1895
  940TIP3    H124455   4.921   4.060   6.536 -0.7327  0.8329 -0.0554
  940TIP3    H224456   4.981   4.081   6.399 -1.5227  0.7154 -0.4277
  941TIP3   OH224457   6.307   1.888   1.251 -0.0756 -0.4244  0.6527
  941TIP3    H124458   6.345   1.857   1.334 -0.9401 -0.1957  1.1422
  941TIP3    H224459   6.215   1.902   1.271 -0.0915  0.6101 -0.0764
  942TIP3   OH224460   4.866   2.577   2.341 -0.3470  0.2282  0.0461
  942TIP3    H124461   4.962   2.576   2.346 -0.2251  0.9923 -1.4367
  942TIP3    H224462   4.842   2.669   2.351 -1.1583 -0.2125  2.9277
  943TIP3   OH224463   5.398   1.141   5.972 -0.5095 -0.4172 -0.1440
  943TIP3    H124464   5.470   1.203   5.964 -1.7805  0.9168 -2.0865
  943TIP3    H224465   5.411   1.100   6.058  0.8454  1.9127  0.8461
  944TIP3   OH224466   4.769   1.918   6.646  0.1751  0.0364  0.1434
  944TIP3    H124467   4.804   1.829   6.642 -1.1597 -0.7936  3.3493
  944TIP3    H224468   4.820   1.961   6.714 -1.0873  0.7213  0.7040
  945TIP3   OH224469   5.056   3.777   1.935  0.2811 -0.2235 -0.4030
  945TIP3    H124470   5.111   3.847   1.901 -1.1668  0.4261 -1.5407
  945TIP3    H224471   5.107   3.697   1.922  1.6572  0.5235  0.2362
  946TIP3   OH224472   5.856   4.362   7.000 -0.4404 -0.1747 -0.5439
  946TIP3    H124473   5.773   4.353   7.047  0.8304 -1.3376  1.6429
  946TIP3    H224474   5.832   4.401   6.916 -2.9564  1.2565  0.7250
  947TIP3   OH224475   5.317   3.361   7.645 -0.3566  0.0208 -0.1847
  947TIP3    H124476   5.369   3.289   7.680  0.8961  1.0192  0.1027
  947TIP3    H224477   5.373   3.400   7.578 -0.7811  1.0533  0.0378
  948TIP3   OH224478   3.140   1.011   1.449  0.4362 -0.2192  0.1363
  948TIP3    H124479   3.046   1.008   1.469  0.1916 -1.2995 -1.0634
  948TIP3    H224480   3.156   0.930   1.400  1.7477  0.5586 -0.7474
  949TIP3   OH224481   4.864   4.293   6.689 -0.0901  0.2760 -1.0034
  949TIP3    H124482   4.788   4.280   6.633  0.0736 -0.1829 -1.1221
  949TIP3    H224483   4.921   4.218   6.671 -0.9352 -1.0246  1.2652
  950TIP3   OH224484   0.138   4.424   7.956  0.3811 -0.1459  0.2500
  950TIP3    H124485   0.106   4.435   8.046  0.8690  1.5865  0.2351
  950TIP3    H224486   0.061   4.440   7.902  0.2629 -0.4096  0.3403
  951TIP3   OH224487   3.491   1.690   6.915 -0.2597  0.3928 -0.0213
  951TIP3    H124488   3.492   1.595   6.900 -1.8298  0.2130  0.8422
  951TIP3    H224489   3.402   1.717   6.892 -0.0597  1.5382  0.4941
  952TIP3   OH224490   6.738   0.424   6.280 -0.2253 -0.1934  0.1877
  952TIP3    H124491   6.742   0.455   6.190 -0.1353  3.3271  1.2639
  952TIP3    H224492   6.826   0.439   6.315 -0.4091 -0.9907  1.0508
  953TIP3   OH224493   0.917   5.465   5.972  0.3545  0.0752  0.0923
  953TIP3    H124494   0.858   5.390   5.967  2.6121 -1.8801  0.9551
  953TIP3    H224495   0.911   5.505   5.885  0.1556 -2.0060 -0.9166
  954TIP3   OH224496   6.691   3.852   7.949  0.2556 -0.1973 -0.4885
  954TIP3    H124497   6.731   3.771   7.917 -0.0874 -0.3079 -0.6437
  954TIP3    H224498   6.615   3.865   7.892 -0.0324 -0.0890 -0.0800
  955TIP3   OH224499   6.738   6.591   5.787  0.1607 -0.0858  0.2767
  955TIP3    H124500   6.688   6.509   5.790  0.6927 -0.4401 -0.3564
  955TIP3    H224501   6.829   6.563   5.781  0.5849  0.5399  2.7317
  956TIP3   OH224502   6.210   4.474   6.671 -0.0791  0.2853 -0.3404
  956TIP3    H124503   6.179   4.494   6.582 -2.6140 -1.7745 -0.0394
  956TIP3    H224504   6.169   4.541   6.726 -1.8233 -0.7409 -0.3126
  957TIP3   OH224505   5.707   5.273   6.408  0.0105 -0.1735 -0.0972
  957TIP3    H124506   5.628   5.296   6.359 -0.9668 -1.1192  0.9663
  957TIP3    H224507   5.753   5.356   6.420 -0.3609  0.2602 -1.4841
  958TIP3   OH224508   3.102   6.656   0.048  0.2555  0.6304 -0.1904
  958TIP3    H124509   3.017   6.659   0.092  0.4586  0.2129  0.2388
  958TIP3    H224510   3.163   6.627   0.115  0.5141 -0.3209 -0.8136
  959TIP3   OH224511   1.865   6.945   0.786 -0.4734  0.6017  0.8486
  959TIP3    H124512   1.868   6.960   0.692 -0.0361  1.0134  0.9285
  959TIP3    H224513   1.934   6.881   0.802 -1.1984 -0.2243  0.7550
  960TIP3   OH224514   4.942   4.050   7.488  0.3350  0.1105  0.4895
  960TIP3    H124515   4.999   3.999   7.545  0.2116  0.3914  0.8629
  960TIP3    H224516   4.855   4.013   7.501  0.2033  0.5693  0.9436
  961TIP3   OH224517   4.058   5.380   6.389  0.1683  0.0929  0.1151
  961TIP3    H124518   4.123   5.404   6.455  0.6104 -0.3070 -0.1586
  961TIP3    H224519   4.107   5.379   6.306 -0.4389  0.8525 -0.2632
  962TIP3   OH224520   6.090   6.110   0.639  0.4851 -0.3044 -0.6303
  962TIP3    H124521   6.088   6.205   0.638  1.4325 -0.2730 -1.1893
  962TIP3    H224522   6.154   6.088   0.707 -1.3742 -0.6234  1.1187
  963TIP3   OH224523   1.331   1.849   1.441 -0.1600 -0.1557 -0.3103
  963TIP3    H124524   1.253   1.794   1.430  0.4068 -0.8096 -1.1551
  963TIP3    H224525   1.397   1.791   1.480 -0.4781  0.7527  1.7239
  964TIP3   OH224526   5.757   2.694   0.502  0.9637 -0.0337  0.4765
  964TIP3    H124527   5.760   2.704   0.597 -0.2288 -1.3029  0.6798
  964TIP3    H224528   5.664   2.686   0.482  1.2458 -0.4344 -0.7273
  965TIP3   OH224529   5.219   1.213   0.976 -0.0797  0.2296 -0.0434
  965TIP3    H124530   5.182   1.130   1.005 -1.1052  0.6444 -0.1268
  965TIP3    H224531   5.199   1.218   0.883  0.6753  0.2168 -0.2157
  966TIP3   OH224532   7.008   6.816   7.247  0.3286 -0.1075 -0.2405
  966TIP3    H124533   7.027   6.807   7.154  2.4195  0.0769  0.1133
  966TIP3    H224534   7.032   6.732   7.285  0.8418  0.2732  0.3029
  967TIP3   OH224535   5.869   2.552   1.149  0.2907  0.0709  0.4635
  967TIP3    H124536   5.810   2.583   1.217 -2.7229 -0.2478 -1.8290
  967TIP3    H224537   5.883   2.628   1.092 -1.6030 -0.8662 -1.4071
  968TIP3   OH224538   1.704   2.456   0.134  0.4103  0.4333  0.5367
  968TIP3    H124539   1.654   2.538   0.127  0.3723  0.2787 -1.6477
  968TIP3    H224540   1.747   2.462   0.220 -1.4954  1.6235  1.4795
  969TIP3   OH224541   6.748   6.904   5.795  0.1477  0.4578 -0.0328
  969TIP3    H124542   6.817   6.905   5.861 -0.0946  0.4656  0.2255
  969TIP3    H224543   6.732   6.811   5.778 -0.7626  0.4131  0.9631
  970TIP3   OH224544   6.377   4.595   7.444  0.0495 -0.7908  0.4356
  970TIP3    H124545   6.291   4.574   7.481 -0.2747  1.8459  1.4010
  970TIP3    H224546   6.425   4.512   7.448 -1.3902 -1.6368  2.8823
  971TIP3   OH224547   3.859   6.361   7.846 -0.1112 -0.3502  0.1097
  971TIP3    H124548   3.852   6.383   7.753  1.4538  2.2418  0.5036
  971TIP3    H224549   3.939   6.309   7.852  0.9680  1.2593  0.2124
  972TIP3   OH224550   7.060   6.649   5.836  0.2740 -0.2776 -0.3987
  972TIP3    H124551   7.027   6.726   5.883  2.2307  1.0592 -1.1031
  972TIP3    H224552   7.038   6.575   5.893 -1.5443  0.7710  0.3621
  973TIP3   OH224553   1.361   2.242   5.879 -0.2955 -0.2607  0.2627
  973TIP3    H124554   1.421   2.178   5.916  0.3418 -0.2470 -0.7075
  973TIP3    H224555   1.405   2.327   5.890 -1.1345  0.0309  1.5447
  974TIP3   OH224556   4.629   7.102   6.163 -0.5499  0.2814  0.2968
  974TIP3    H124557   4.544   7.058   6.165  0.3650 -1.5611  0.6978
  974TIP3    H224558   4.647   7.123   6.254  0.1668 -0.8897  0.4427
  975TIP3   OH224559   3.210   4.431   6.368  0.1821 -0.3580  0.3017
  975TIP3    H124560   3.295   4.393   6.345  0.0380 -0.9371  0.7232
  975TIP3    H224561   3.145   4.371   6.330 -0.0424 -0.2487  0.5105
  976TIP3   OH224562   1.558   0.891   7.231 -0.4685 -0.1849 -0.4911
  976TIP3    H124563   1.567   0.982   7.261 -0.0363 -0.7144  1.1038
  976TIP3    H224564   1.621   0.842   7.284 -1.6366 -1.6117 -0.3512
  977TIP3   OH224565   3.206   2.634   6.413 -0.5043  0.7807  0.3054
  977TIP3    H124566   3.274   2.678   6.464  0.4582 -0.9029  0.5365
  977TIP3    H224567   3.128   2.689   6.425  0.1645  1.4103  2.0799
  978TIP3   OH224568   0.056   2.923   0.529 -0.1682  0.0077 -0.1348
  978TIP3    H124569   0.002   2.844   0.519  1.2336 -0.7964 -2.0505
  978TIP3    H224570   0.010   2.975   0.594 -1.6363 -1.9808  0.5368
  979TIP3   OH224571   1.638   7.038   5.899  0.2535 -0.2332  0.0933
  979TIP3    H124572   1.703   7.094   5.856  0.8153 -2.2310 -1.8360
  979TIP3    H224573   1.632   6.961   5.843 -0.1076 -2.3787  2.8603
  980TIP3   OH224574   4.038   0.506   0.776 -0.4970  0.5493  0.3142
  980TIP3    H124575   4.042   0.529   0.683 -0.3354  1.4665  0.5346
  980TIP3    H224576   3.993   0.421   0.778  0.5809 -0.0774 -0.6917
  981TIP3   OH224577   2.936   2.982   7.795 -0.6746 -0.5916 -0.5224
  981TIP3    H124578   2.928   3.027   7.711 -4.9651  0.9691  0.4459
  981TIP3    H224579   2.902   2.894   7.779  0.4431 -1.0039 -0.7636
  982TIP3   OH224580   6.519   1.120   0.024 -0.1767  0.2965  0.1466
  982TIP3    H124581   6.494   1.149  -0.064 -0.3673  0.3961  0.2336
  982TIP3    H224582   6.601   1.166   0.042 -0.6309  1.0265  0.4068
  983TIP3   OH224583   6.047   0.768   0.657 -0.0940 -0.4898 -0.1944
  983TIP3    H124584   5.978   0.707   0.683 -0.3492  0.0472  0.4091
  983TIP3    H224585   6.019   0.853   0.691  0.3403 -0.0580 -0.8776
  984TIP3   OH224586   3.893   4.586   0.587 -0.0241  0.4094  0.2647
  984TIP3    H124587   3.901   4.661   0.647 -0.0561  1.0268 -0.4855
  984TIP3    H224588   3.918   4.621   0.501 -2.3520  0.2155 -0.5691
  985TIP3   OH224589   1.682   5.879   0.167 -0.0337 -0.2910  0.0223
  985TIP3    H124590   1.736   5.953   0.194 -1.4098  0.3700  1.0370
  985TIP3    H224591   1.599   5.891   0.212 -1.4942 -0.6435 -2.4243
  986TIP3   OH224592   2.865   1.382   0.647  0.0193 -0.3668 -0.3169
  986TIP3    H124593   2.804   1.375   0.721 -0.7995 -0.4830 -0.9879
  986TIP3    H224594   2.939   1.432   0.682 -0.4318 -0.2582  0.5256
  987TIP3   OH224595   1.855   0.541   0.571  0.0325 -0.1897 -0.5295
  987TIP3    H124596   1.766   0.527   0.603 -0.0369 -1.1166 -1.1011
  987TIP3    H224597   1.862   0.636   0.561 -0.8926 -0.1110 -0.4988
  988TIP3   OH224598   0.812   4.951   7.522  0.2449  0.1646 -0.1885
  988TIP3    H124599   0.754   5.027   7.523  0.4024  0.2861 -0.0960
  988TIP3    H224600   0.839   4.940   7.613  0.8092  0.4579 -0.3142
  989TIP3   OH224601   3.101   3.300   6.976 -0.0101  0.4520 -0.1812
  989TIP3    H124602   3.153   3.270   6.902  1.0486  0.2338  0.6281
  989TIP3    H224603   3.013   3.269   6.957  0.7794 -2.1095  0.0031
  990TIP3   OH224604   3.416   2.682   6.721  0.1034  0.5776 -0.2242
  990TIP3    H124605   3.343   2.622   6.708 -0.0823  0.7862 -0.1474
  990TIP3    H224606   3.450   2.660   6.808  0.0281  0.5911 -0.1910
  991TIP3   OH224607   6.213   5.605   1.469  0.3353  0.1196 -0.7296
  991TIP3    H124608   6.299   5.645   1.485  0.4239 -0.8194  1.4865
  991TIP3    H224609   6.218   5.573   1.379  1.0832  2.9458 -1.7943
  992TIP3   OH224610   1.104   2.096   6.334  0.1086 -0.1699 -0.0414
  992TIP3    H124611   1.163   2.035   6.290 -0.7703 -1.2212  0.1789
  992TIP3    H224612   1.045   2.126   6.264 -1.1071 -1.6214  0.2945
  993TIP3   OH224613   2.048   7.104   1.042  0.1543  0.1625  0.2367
  993TIP3    H124614   1.995   7.061   1.108  1.5027  1.0529  1.9883
  993TIP3    H224615   2.003   7.187   1.025  0.5784  0.5994  1.1873
  994TIP3   OH224616   2.504   1.456   7.611 -0.0539  0.5039  0.0076
  994TIP3    H124617   2.451   1.490   7.683  0.0278  1.7102 -0.4830
  994TIP3    H224618   2.520   1.364   7.634  0.8180  1.1119  2.0295
  995TIP3   OH224619   1.553   4.992   0.277  0.1196  0.0724 -0.6322
  995TIP3    H124620   1.467   5.016   0.242 -0.0947  0.2657  0.0075
  995TIP3    H224621   1.569   5.056   0.346  0.8402  0.1152 -0.8334
  996TIP3   OH224622   3.341   6.489   0.757 -0.2180  0.6195  0.2097
  996TIP3    H124623   3.272   6.434   0.719 -1.0131  2.7426 -1.6541
  996TIP3    H224624   3.395   6.428   0.807 -0.4345 -2.1025 -2.5282
  997TIP3   OH224625   4.235   0.558   1.036  0.4773 -0.0159  0.7381
  997TIP3    H124626   4.269   0.642   1.004 -0.0246  0.9126  2.5053
  997TIP3    H224627   4.304   0.525   1.094 -0.0918  0.1216  1.5135
  998TIP3   OH224628   1.063   3.476   1.290  0.1647  0.0074 -0.2294
  998TIP3    H124629   1.024   3.400   1.334 -0.6412  0.7756  0.4094
  998TIP3    H224630   1.041   3.550   1.347  1.2333  0.6750 -0.6685
  999TIP3   OH224631   0.074   4.815   6.851  0.0897 -0.2417  0.0535
  999TIP3    H124632   0.139   4.770   6.798 -0.6006 -0.0911 -0.9368
  999TIP3    H224633   0.074   4.767   6.934 -1.5757 -3.0069 -1.3933
 1000TIP3   OH224634   4.299   1.443   0.162  0.5681 -0.4838  0.5186
 1000TIP3    H124635   4.387   1.472   0.136 -0.2916  0.1816 -1.8229
 1000TIP3    H224636   4.267   1.393   0.088 -1.3263 -0.1016  1.0282
 1001TIP3   OH224637   2.405   6.120   0.613  0.2770  0.4648 -0.2478
 1001TIP3    H124638   2.349   6.185   0.571 -0.5894 -1.0895 -1.6436
 1001TIP3    H224639   2.405   6.046   0.552  0.5947 -1.1418  1.6126
 1002TIP3   OH224640   1.652   2.889   5.764 -0.1259 -0.5372 -0.3406
 1002TIP3    H124641   1.635   2.832   5.839  0.7293 -1.0163 -0.4845
 1002TIP3    H224642   1.653   2.829   5.689 -1.3630 -0.0111 -0.7994
 1003TIP3   OH224643   0.028   4.688   1.233  0.1582  0.3980  0.3405
 1003TIP3    H124644   0.095   4.753   1.255  1.9095 -0.9397 -0.7458
 1003TIP3    H224645   0.017   4.694   1.138 -1.4133  0.7015  0.5193
 1004TIP3   OH224646   5.243   3.622   7.141  0.3397  0.9738  0.2993
 1004TIP3    H124647   5.323   3.582   7.109 -1.2936 -1.5944 -0.8908
 1004TIP3    H224648   5.231   3.585   7.228 -0.2225  0.2774 -0.0655
 1005TIP3   OH224649   0.871   6.610   7.929 -0.0763 -0.3028  0.7995
 1005TIP3    H124650   0.828   6.536   7.973 -1.1031 -0.3391 -0.2245
 1005TIP3    H224651   0.803   6.648   7.873  1.0625  0.0243 -0.4105
 1006TIP3   OH224652   5.087   4.667   0.332 -0.3504 -0.5337  0.3089
 1006TIP3    H124653   5.068   4.677   0.238 -1.8407  2.3019  0.7957
 1006TIP3    H224654   5.053   4.581   0.354 -1.0596 -0.7721 -1.5258
 1007TIP3   OH224655   4.208   4.671   5.731  0.0581  0.2303 -0.7172
 1007TIP3    H124656   4.117   4.698   5.747  0.0613 -1.3756  3.1487
 1007TIP3    H224657   4.260   4.740   5.772  0.4284 -0.3611 -0.1708
 1008TIP3   OH224658   1.913   6.629   7.767 -0.6760 -0.2100 -0.0975
 1008TIP3    H124659   1.825   6.668   7.769 -0.1002  1.1393  0.3829
 1008TIP3    H224660   1.941   6.629   7.858  0.1608  0.1893 -0.3462
 1009TIP3   OH224661   0.150   3.968   0.649  0.4024  0.0823 -0.4522
 1009TIP3    H124662   0.063   4.008   0.637 -0.3065 -0.3373  2.5881
 1009TIP3    H224663   0.136   3.875   0.632  0.5283  0.1671 -1.0390
 1010TIP3   OH224664   2.161   4.565   1.034  0.2314 -0.0950  0.6071
 1010TIP3    H124665   2.143   4.592   1.124 -0.6307  0.3052  0.3180
 1010TIP3    H224666   2.147   4.470   1.034  2.6477 -0.5199  1.4686
 1011TIP3   OH224667   6.814   2.166   6.971 -0.1425  0.3661  0.3299
 1011TIP3    H124668   6.876   2.222   7.017  2.1740 -1.1892 -0.6840
 1011TIP3    H224669   6.795   2.213   6.890  0.9062  0.2472 -0.0083
 1012TIP3   OH224670   5.573   3.821   0.260 -0.2537 -0.0856 -0.2283
 1012TIP3    H124671   5.545   3.896   0.313 -0.8476 -0.9383  0.7021
 1012TIP3    H224672   5.551   3.745   0.313  0.2775 -0.9326 -1.1882
 1013TIP3   OH224673   3.950   1.708   1.762 -0.0834  0.1754  0.1525
 1013TIP3    H124674   3.975   1.786   1.813  1.2229 -1.1448  1.6375
 1013TIP3    H224675   4.032   1.659   1.753 -0.9887 -1.2910 -0.2959
 1014TIP3   OH224676   3.553   5.137   6.566  0.0362 -0.1637  0.4860
 1014TIP3    H124677   3.568   5.230   6.547 -0.2692 -0.1388  0.3532
 1014TIP3    H224678   3.579   5.092   6.485  0.4385 -0.2172  0.6458
 1015TIP3   OH224679   1.867   6.181   6.674 -0.0743 -0.4592 -0.1406
 1015TIP3    H124680   1.896   6.090   6.664 -0.4328 -0.5855 -0.0648
 1015TIP3    H224681   1.800   6.177   6.742 -0.6654 -0.2681 -0.6933
 1016TIP3   OH224682   3.225   0.905   6.641 -0.4549  0.4094 -0.6062
 1016TIP3    H124683   3.306   0.881   6.597 -0.3926 -1.0918  0.2737
 1016TIP3    H224684   3.251   0.923   6.731 -0.9373  1.1055 -0.5980
 1017TIP3   OH224685   0.929   0.231   6.549 -0.0373 -0.0860 -0.6294
 1017TIP3    H124686   0.979   0.257   6.471  0.2915  0.8711 -0.1076
 1017TIP3    H224687   0.879   0.309   6.572  0.0180 -0.3046  0.2393
 1018TIP3   OH224688   6.592   1.595   6.253 -0.1256 -0.1256  0.0128
 1018TIP3    H124689   6.587   1.505   6.219  3.5702 -1.5435  2.6321
 1018TIP3    H224690   6.654   1.639   6.196  1.8283 -0.8408  1.4774
 1019TIP3   OH224691   0.484   1.981   0.682  0.1004  0.3452  0.3186
 1019TIP3    H124692   0.395   1.998   0.710  0.0651  1.7960 -0.5459
 1019TIP3    H224693   0.482   1.891   0.648 -0.8013  0.0578  1.0896
 1020TIP3   OH224694   6.433   2.922   0.908  0.1818  0.0569 -0.1321
 1020TIP3    H124695   6.341   2.907   0.931  0.2867  0.4710  0.5758
 1020TIP3    H224696   6.480   2.855   0.956  0.3215  0.3312  0.1100
 1021TIP3   OH224697   3.986   0.002   1.861  0.1179 -0.1455 -0.6154
 1021TIP3    H124698   4.056   0.027   1.921  0.0883 -1.1703 -0.1353
 1021TIP3    H224699   3.987  -0.094   1.861 -0.6234 -0.1679 -1.3848
 1022TIP3   OH224700   2.649   2.913   6.998 -0.5530 -0.2560 -0.7279
 1022TIP3    H124701   2.642   2.822   7.027  0.7477 -0.2425 -0.2721
 1022TIP3    H224702   2.597   2.963   7.062  1.1884 -0.3795  0.8804
 1023TIP3   OH224703   6.656   6.225   0.256 -0.1284  0.3516 -0.2507
 1023TIP3    H124704   6.707   6.282   0.315 -1.0062  0.8737  0.0162
 1023TIP3    H224705   6.669   6.262   0.169 -0.3965  0.7459 -0.1256
 1024TIP3   OH224706   7.000   2.761   7.996 -0.0802 -0.4633 -0.9306
 1024TIP3    H124707   7.091   2.774   7.971 -0.4277  2.3323 -1.0042
 1024TIP3    H224708   6.993   2.667   8.013  2.5559 -0.8952 -1.8320
 1025TIP3   OH224709   1.850   2.017   1.354  0.0427 -0.6687  0.0852
 1025TIP3    H124710   1.817   1.934   1.320 -0.5570  0.0472 -1.1148
 1025TIP3    H224711   1.906   2.051   1.285 -1.3038  0.8748 -0.3194
 1026TIP3   OH224712   1.216   2.229   7.882  0.5303  0.5381 -0.2828
 1026TIP3    H124713   1.263   2.301   7.838 -0.2382 -0.3501 -2.7522
 1026TIP3    H224714   1.246   2.150   7.837 -2.0421 -0.2073 -0.8523
 1027TIP3   OH224715   6.039   3.133   1.442  0.1413  0.2812  0.1494
 1027TIP3    H124716   6.003   3.163   1.526 -1.1367 -0.6633 -0.0355
 1027TIP3    H224717   6.083   3.050   1.464  2.0211  1.2715  0.3176
 1028TIP3   OH224718   3.434   2.876   7.634  0.1296  0.0211  0.1916
 1028TIP3    H124719   3.476   2.947   7.681  2.5985 -1.5966  0.5802
 1028TIP3    H224720   3.405   2.815   7.702  0.6353 -0.7011 -0.2256
 1029TIP3   OH224721   4.117   3.601   1.565  0.4602  0.1800 -0.5648
 1029TIP3    H124722   4.200   3.573   1.601 -0.7233 -0.9858  1.4373
 1029TIP3    H224723   4.076   3.520   1.533 -0.4394  0.5173 -0.3152
 1030TIP3   OH224724   5.702   3.705   6.243 -0.0151 -0.1433 -0.0058
 1030TIP3    H124725   5.675   3.625   6.198  0.1756 -0.2445  0.0607
 1030TIP3    H224726   5.697   3.773   6.176 -1.6075  0.0763  0.2875
 1031TIP3   OH224727   0.196   6.534   1.835  0.6406 -0.1837 -0.3308
 1031TIP3    H124728   0.157   6.505   1.918 -0.6723  1.2595 -0.3932
 1031TIP3    H224729   0.251   6.461   1.807  1.5226 -0.5338  2.0636
 1032TIP3   OH224730   6.602   4.078   6.306 -0.3270  0.3876 -0.4277
 1032TIP3    H124731   6.592   4.015   6.235 -1.6589  0.6776 -0.5216
 1032TIP3    H224732   6.614   4.163   6.262 -0.1022  0.4276 -0.2959
 1033TIP3   OH224733   7.069   0.347   0.045 -0.3921 -0.5071  0.4164
 1033TIP3    H124734   7.088   0.367  -0.046  0.2600 -0.0723  0.6386
 1033TIP3    H224735   6.980   0.311   0.044 -1.0622  1.0641 -0.1862
 1034TIP3   OH224736   2.171   2.776   0.337 -0.0460 -0.6225 -0.1840
 1034TIP3    H124737   2.092   2.763   0.283  0.1900 -0.8126 -0.4870
 1034TIP3    H224738   2.148   2.738   0.422 -0.6607  0.2863  0.0705
 1035TIP3   OH224739   6.609   2.192   6.373 -0.5322  0.0981 -0.4364
 1035TIP3    H124740   6.576   2.260   6.315 -0.4079  0.3432 -0.2208
 1035TIP3    H224741   6.544   2.122   6.368 -1.5269  0.9159  0.6492
 1036TIP3   OH224742   6.342   2.398   7.032 -0.2616 -0.5686 -1.2252
 1036TIP3    H124743   6.435   2.382   7.013  0.0209  0.1821 -0.5587
 1036TIP3    H224744   6.295   2.331   6.983  0.6851 -1.4811 -0.9206
 1037TIP3   OH224745   7.054   5.817   7.171  0.4156  0.2343  0.4630
 1037TIP3    H124746   7.081   5.745   7.228  0.3248 -1.0952 -1.1052
 1037TIP3    H224747   6.962   5.832   7.192 -0.9295 -3.1337 -2.0811
 1038TIP3   OH224748   2.124   5.405   0.895 -0.0332  0.1233 -0.6011
 1038TIP3    H124749   2.193   5.458   0.855 -0.5786  1.6709  0.4008
 1038TIP3    H224750   2.081   5.363   0.821  1.9987 -0.9734 -1.2558
 1039TIP3   OH224751   1.586   6.260   0.767  0.0378 -0.5856  0.1351
 1039TIP3    H124752   1.528   6.230   0.697 -1.5603  0.3788  0.9747
 1039TIP3    H224753   1.528   6.305   0.828  1.6490  0.1226  1.2118
 1040TIP3   OH224754   6.325   7.095   7.661 -0.3848  0.7082  0.3115
 1040TIP3    H124755   6.393   7.140   7.611 -0.5456  1.6168  0.8777
 1040TIP3    H224756   6.243   7.131   7.627 -0.5248  0.6839  0.6203
 1041TIP3   OH224757   0.786   2.429   1.815 -0.6142  0.1490  0.2518
 1041TIP3    H124758   0.739   2.381   1.747 -0.7669  0.1860  0.3292
 1041TIP3    H224759   0.847   2.365   1.852 -0.1211  0.2883 -0.3090
 1042TIP3   OH224760   6.722   5.178   7.188 -0.0532  0.2055 -0.4823
 1042TIP3    H124761   6.761   5.111   7.245  2.1403  1.2976 -0.5691
 1042TIP3    H224762   6.637   5.196   7.227  0.1875 -1.1234  0.7726
 1043TIP3   OH224763   1.506   3.271   6.500 -0.3276 -0.0073  0.1077
 1043TIP3    H124764   1.415   3.246   6.513  0.0805 -1.1437  1.0043
 1043TIP3    H224765   1.538   3.291   6.588  1.0639 -2.5657  0.2972
 1044TIP3   OH224766   0.004   6.764   6.753 -0.1057  0.5710  0.0934
 1044TIP3    H124767   0.075   6.701   6.765 -0.3509  0.3199  0.2479
 1044TIP3    H224768   0.047   6.844   6.723  0.2368  0.4103  0.1536
 1045TIP3   OH224769   1.870   6.052   6.132 -0.0003 -0.3966  0.1606
 1045TIP3    H124770   1.894   6.135   6.091  2.5315 -1.1537 -0.0523
 1045TIP3    H224771   1.779   6.038   6.105  0.0256  1.4936 -1.1520
 1046TIP3   OH224772   3.968   0.257   7.807  0.6158 -0.1602 -0.6203
 1046TIP3    H124773   3.973   0.348   7.779  1.5870 -0.1092 -0.3170
 1046TIP3    H224774   4.045   0.244   7.863  0.8846 -1.3548 -1.2229
 1047TIP3   OH224775   0.527   1.764   0.128 -0.0304  0.5768  0.0341
 1047TIP3    H124776   0.528   1.851   0.168  0.5002  0.3471  0.5351
 1047TIP3    H224777   0.591   1.714   0.179  1.5236  0.5840 -1.8047
 1048TIP3   OH224778   5.223   5.224   1.274  0.5301 -0.2217 -0.4020
 1048TIP3    H124779   5.148   5.192   1.325  0.3190  1.4275  0.4065
 1048TIP3    H224780   5.298   5.175   1.308  0.0117 -0.9882 -0.3351
 1049TIP3   OH224781   0.404   4.835   6.462  0.2188 -0.9189  0.0400
 1049TIP3    H124782   0.496   4.828   6.488  0.2562  1.2256  0.6688
 1049TIP3    H224783   0.408   4.856   6.369  0.4708  0.9629  0.4449
 1050TIP3   OH224784   5.595   0.989   6.559  0.2829  0.2942  0.1095
 1050TIP3    H124785   5.510   0.944   6.561  0.1142  0.5964 -0.1014
 1050TIP3    H224786   5.651   0.931   6.507  0.2924 -0.0510  0.4989
 1051TIP3   OH224787   6.539   1.180   7.885  0.2266  0.0258 -0.2964
 1051TIP3    H124788   6.624   1.222   7.890 -0.6184  1.8999 -0.7372
 1051TIP3    H224789   6.533   1.149   7.795  0.4777 -0.1647 -0.2461
 1052TIP3   OH224790   0.984   0.403   0.648  0.0013 -0.2289  0.0620
 1052TIP3    H124791   0.938   0.395   0.564  2.2894 -0.3932 -1.2687
 1052TIP3    H224792   1.001   0.497   0.656 -0.2782 -0.2049  0.4052
 1053TIP3   OH224793   2.099   0.533   1.715 -0.5310  0.6143  0.3532
 1053TIP3    H124794   2.098   0.437   1.712 -1.0306  0.5792  1.2714
 1053TIP3    H224795   2.055   0.555   1.797 -4.7129  1.7414 -1.9136
 1054TIP3   OH224796   6.783   5.237   0.280 -0.3886  0.4663 -0.4026
 1054TIP3    H124797   6.788   5.323   0.238  0.1221  1.3537  1.4023
 1054TIP3    H224798   6.865   5.230   0.330 -1.0452 -0.4817  0.5696
 1055TIP3   OH224799   0.318   2.106   1.109  0.1627 -0.3082 -0.1035
 1055TIP3    H124800   0.249   2.090   1.173 -2.9306  1.1265 -2.8387
 1055TIP3    H224801   0.316   2.029   1.051  1.1954 -0.4238 -0.0192
 1056TIP3   OH224802   4.235   4.980   7.004  0.0033  0.2785  0.1618
 1056TIP3    H124803   4.206   5.030   6.928 -0.6326 -0.1085  0.1498
 1056TIP3    H224804   4.155   4.949   7.045  0.3886 -1.8256 -0.5501
 1057TIP3   OH224805   3.494   2.811   1.820 -0.8225 -0.0846 -0.1840
 1057TIP3    H124806   3.497   2.748   1.892  0.9830 -0.1451 -0.2588
 1057TIP3    H224807   3.448   2.765   1.750 -1.3556 -0.5466  0.4631
 1058TIP3   OH224808   4.222   3.772   1.375 -0.3428 -0.1867  0.5639
 1058TIP3    H124809   4.175   3.735   1.450  1.6078 -0.3494  1.7799
 1058TIP3    H224810   4.262   3.696   1.332 -1.2121 -0.0612 -0.4789
 1059TIP3   OH224811   4.778   4.675   6.913 -0.2991  0.3155  0.2875
 1059TIP3    H124812   4.850   4.623   6.947  0.5507  0.6686 -0.8883
 1059TIP3    H224813   4.755   4.735   6.984 -1.0097 -1.3269  1.5095
 1060TIP3   OH224814   6.419   0.629   7.030 -0.1067 -0.3423 -0.1978
 1060TIP3    H124815   6.424   0.671   6.944 -0.1168  0.0380 -0.0155
 1060TIP3    H224816   6.341   0.666   7.070 -0.1164 -0.5388 -0.0376
 1061TIP3   OH224817   3.454   1.412   6.853  0.0281  0.4466  0.2812
 1061TIP3    H124818   3.463   1.316   6.856  1.6066  0.5474 -0.1531
 1061TIP3    H224819   3.438   1.432   6.761  1.0383  0.6722  0.1424
 1062TIP3   OH224820   0.295   2.001   6.870 -0.4622 -0.3494  0.0399
 1062TIP3    H124821   0.316   1.934   6.806  0.0312  0.9273 -1.1826
 1062TIP3    H224822   0.369   2.061   6.867 -0.5765 -0.0947  1.5950
 1063TIP3   OH224823   6.757   0.640   1.397 -0.1484  0.1742 -0.1620
 1063TIP3    H124824   6.801   0.569   1.444  0.1950 -0.7712 -1.8260
 1063TIP3    H224825   6.719   0.694   1.466  1.0826 -0.6413  1.2226
 1064TIP3   OH224826   3.505   4.507   1.866 -0.2557 -0.3167  0.9567
 1064TIP3    H124827   3.411   4.526   1.863 -0.5877 -1.7586  1.3186
 1064TIP3    H224828   3.520   4.475   1.955  0.8316  0.9784  1.2739
 1065TIP3   OH224829   5.956   4.967   1.190  0.2888 -0.0377  0.2805
 1065TIP3    H124830   5.871   4.924   1.192 -0.5528  1.5103 -0.4185
 1065TIP3    H224831   5.943   5.042   1.132  2.6486 -0.7793 -1.3457
 1066TIP3   OH224832   4.806   3.275   6.828  0.0368 -0.2108  0.2977
 1066TIP3    H124833   4.852   3.319   6.900 -1.4992 -0.8378  1.7159
 1066TIP3    H224834   4.865   3.205   6.802  1.0031  0.5645  0.3247
 1067TIP3   OH224835   1.469   1.415   0.174  0.2201  0.0701  0.2556
 1067TIP3    H124836   1.512   1.330   0.171 -2.0756 -1.1641  0.7100
 1067TIP3    H224837   1.442   1.432   0.084  1.6459  0.9142 -0.0576
 1068TIP3   OH224838   6.767   0.067   7.867 -0.0352 -0.3827 -0.4459
 1068TIP3    H124839   6.779   0.152   7.825  2.8522 -0.2485  0.4107
 1068TIP3    H224840   6.746   0.088   7.958 -1.4593 -0.6484 -0.6879
 1069TIP3   OH224841   3.384   5.575   6.406 -0.0597  0.0737  0.0384
 1069TIP3    H124842   3.328   5.566   6.483 -0.6958 -0.4372 -0.4716
 1069TIP3    H224843   3.352   5.654   6.362  0.2339  0.3061  0.2391
 1070TIP3   OH224844   1.319   5.450   1.386 -0.5949  0.0075  0.0727
 1070TIP3    H124845   1.285   5.401   1.311  0.0007 -0.5735  0.1715
 1070TIP3    H224846   1.272   5.533   1.383  0.2614  0.4906 -1.6636
 1071TIP3   OH224847   5.201   5.658   7.326 -0.8242 -0.1843 -0.2048
 1071TIP3    H124848   5.265   5.678   7.395  0.1186 -2.2980 -0.3883
 1071TIP3    H224849   5.253   5.617   7.257 -1.8631  1.2408 -1.9191
 1072TIP3   OH224850   6.455   6.326   7.280 -0.2219  0.0751 -0.1552
 1072TIP3    H124851   6.544   6.331   7.247  0.2546  1.2608  1.2098
 1072TIP3    H224852   6.451   6.242   7.327 -0.3714 -0.7740 -1.6254
 1073TIP3   OH224853   0.237   5.515   7.069  0.2674  0.2569  0.2195
 1073TIP3    H124854   0.288   5.494   7.148  1.4264 -0.3475 -0.6659
 1073TIP3    H224855   0.167   5.450   7.069  1.3202 -0.9138 -0.1919
 1074TIP3   OH224856   4.462   0.687   7.911 -0.3042  0.2881  0.6055
 1074TIP3    H124857   4.398   0.726   7.970 -0.1122 -0.7666  1.5559
 1074TIP3    H224858   4.432   0.596   7.900  1.4931 -0.5070  1.8188
 1075TIP3   OH224859   2.083   2.477   6.371 -0.3433  0.1037  0.2826
 1075TIP3    H124860   2.056   2.524   6.293  1.4440  1.2976  0.3347
 1075TIP3    H224861   2.039   2.522   6.443 -0.1307  0.5121  0.1599
 1076TIP3   OH224862   3.285   1.649   1.106  0.1521  0.2771  0.3901
 1076TIP3    H124863   3.366   1.697   1.121  0.4176  0.1517 -0.5628
 1076TIP3    H224864   3.308   1.557   1.120  0.1244  0.2607  0.3316
 1077TIP3   OH224865   2.235   3.757   6.660 -0.3021 -0.0369  0.1124
 1077TIP3    H124866   2.217   3.844   6.623  0.1604 -0.4283 -1.0881
 1077TIP3    H224867   2.289   3.775   6.737  1.4914  0.6736 -1.2305
 1078TIP3   OH224868   0.851   5.646   7.232  0.1921 -0.3368 -0.3826
 1078TIP3    H124869   0.806   5.730   7.224  0.1689 -0.3195 -0.1012
 1078TIP3    H224870   0.943   5.669   7.243  0.1009 -0.3100  0.4402
 1079TIP3   OH224871   0.990   2.528   6.284  0.0870  0.0944 -0.0659
 1079TIP3    H124872   0.994   2.473   6.206  2.6832 -1.5393  1.0577
 1079TIP3    H224873   0.944   2.607   6.256 -0.9641 -1.3127 -2.6284
 1080TIP3   OH224874   6.927   3.223   7.587 -0.3628 -0.2387  0.1449
 1080TIP3    H124875   6.901   3.251   7.674 -0.5948 -2.2153  0.7568
 1080TIP3    H224876   6.847   3.226   7.535 -0.1842  1.1341 -0.0790
 1081TIP3   OH224877   0.406   1.979   0.381 -0.0360  0.0966 -0.0491
 1081TIP3    H124878   0.442   2.045   0.322 -3.2465  0.5380 -1.7095
 1081TIP3    H224879   0.420   2.016   0.469 -0.1312  2.1226 -0.8279
 1082TIP3   OH224880   4.527   1.891   0.951  0.7107 -0.0631  0.0766
 1082TIP3    H124881   4.484   1.927   1.028  1.2496  0.1785  0.2619
 1082TIP3    H224882   4.609   1.854   0.984  1.2643  0.6472 -0.4825
 1083TIP3   OH224883   2.837   3.780   1.429 -0.5906  0.5200 -0.6390
 1083TIP3    H124884   2.767   3.770   1.363 -0.8744  0.3421 -0.3173
 1083TIP3    H224885   2.904   3.832   1.385 -1.0741  0.9854 -0.8434
 1084TIP3   OH224886   6.921   5.777   6.677 -0.2954  0.1910  0.3207
 1084TIP3    H124887   6.916   5.867   6.645 -1.7621 -0.3202 -1.0278
 1084TIP3    H224888   6.952   5.727   6.602 -1.8932 -0.7635  0.2570
 1085TIP3   OH224889   0.296   5.461   6.808 -0.4567 -0.2733 -0.1694
 1085TIP3    H124890   0.241   5.495   6.878  0.0775  1.5948 -0.5840
 1085TIP3    H224891   0.246   5.389   6.770 -0.5436 -1.6635  2.3844
 1086TIP3   OH224892   5.755   7.122   1.560  0.1792  0.2567  0.3833
 1086TIP3    H124893   5.793   7.118   1.647 -0.4841  0.4331  0.6915
 1086TIP3    H224894   5.683   7.186   1.568 -0.0230  0.1195 -0.2349
 1087TIP3   OH224895   2.594   2.827   7.682 -0.3850  0.1296 -0.3810
 1087TIP3    H124896   2.517   2.773   7.667 -0.4371  0.4196 -1.2338
 1087TIP3    H224897   2.559   2.912   7.708 -0.4022  0.5293 -1.6398
 1088TIP3   OH224898   5.230   6.444   0.920 -0.0523  1.0094  0.2452
 1088TIP3    H124899   5.242   6.361   0.967 -0.8380  0.7334 -0.0099
 1088TIP3    H224900   5.288   6.437   0.844 -0.6303  0.3722 -0.1585
 1089TIP3   OH224901   6.449   0.335   6.594  0.2712 -0.3433  0.2391
 1089TIP3    H124902   6.433   0.425   6.621  0.1552  0.2198 -1.5801
 1089TIP3    H224903   6.512   0.301   6.657  0.1169  0.9248  1.0941
 1090TIP3   OH224904   5.399   6.746   1.145  0.0458 -0.1315  0.1827
 1090TIP3    H124905   5.356   6.683   1.204 -1.4598  0.4337 -0.2654
 1090TIP3    H224906   5.346   6.744   1.066 -0.9999  2.7812  0.6763
 1091TIP3   OH224907   4.229   4.972   7.611 -0.4596 -0.6127 -0.3029
 1091TIP3    H124908   4.148   5.020   7.597 -0.1684  0.5615  1.6771
 1091TIP3    H224909   4.288   5.003   7.542 -0.7085  0.9404  0.1460
 1092TIP3   OH224910   4.147   1.421   6.605 -0.1466  0.1277 -1.1300
 1092TIP3    H124911   4.242   1.416   6.593 -0.0310 -1.2733  0.0518
 1092TIP3    H224912   4.133   1.505   6.648  0.9897 -0.9574  1.6162
 1093TIP3   OH224913   0.421   6.144   7.857 -0.2471 -0.1071  0.1254
 1093TIP3    H124914   0.360   6.123   7.786  1.2420 -3.2754 -0.4079
 1093TIP3    H224915   0.386   6.097   7.932 -0.4392  1.1842  0.8752
 1094TIP3   OH224916   0.072   4.744   0.938 -0.4255  0.4633  0.5958
 1094TIP3    H124917   0.160   4.709   0.956 -0.9158  0.0173  2.3219
 1094TIP3    H224918   0.080   4.838   0.955 -0.4299  0.3150  1.5120
 1095TIP3   OH224919   2.702   3.743   1.188  0.6857 -0.6273  0.1979
 1095TIP3    H124920   2.632   3.683   1.162  0.1096 -0.4619  1.3130
 1095TIP3    H224921   2.740   3.772   1.105 -0.8976 -0.3148 -0.4617
 1096TIP3   OH224922   5.697   2.476   7.628  0.4974 -0.0077 -0.4128
 1096TIP3    H124923   5.629   2.456   7.563  0.3193 -0.2804 -0.1452
 1096TIP3    H224924   5.649   2.486   7.710  0.6432  0.9767 -0.4305
 1097TIP3   OH224925   7.069   3.284   8.128 -0.1215  0.6758  0.5966
 1097TIP3    H124926   7.115   3.364   8.153 -1.1429  1.1992  0.8731
 1097TIP3    H224927   7.137   3.217   8.126  0.6999  1.4772  0.6896
 1098TIP3   OH224928   1.350   4.170   7.961 -0.4383  0.5602 -0.1955
 1098TIP3    H124929   1.312   4.258   7.971  1.7261  1.8033 -1.8536
 1098TIP3    H224930   1.310   4.136   7.882  0.1978  0.9461 -0.6978
 1099TIP3   OH224931   6.806   0.791   7.801  0.4717  0.5685 -0.3954
 1099TIP3    H124932   6.779   0.771   7.890  2.6183  0.7970  0.3569
 1099TIP3    H224933   6.862   0.717   7.776 -0.1306  0.4874 -1.5866
 1100TIP3   OH224934   3.987   4.309   0.561  0.4937 -0.5703 -0.2686
 1100TIP3    H124935   4.079   4.314   0.587  0.3872 -1.1648  0.2494
 1100TIP3    H224936   3.950   4.394   0.588  1.2409  0.3558 -1.9828
 1101TIP3   OH224937   3.102   5.698   5.737  0.5976  0.1224  0.1252
 1101TIP3    H124938   3.197   5.708   5.731  0.3989  1.3609 -2.0612
 1101TIP3    H224939   3.069   5.788   5.742 -0.5176 -0.1339 -1.5705
 1102TIP3   OH224940   2.334   1.286   7.067  0.1266 -0.2372 -0.0821
 1102TIP3    H124941   2.295   1.346   7.130  0.4202 -0.0296 -0.0947
 1102TIP3    H224942   2.302   1.315   6.982  0.3850 -0.0063 -0.1013
 1103TIP3   OH224943   4.135   3.981   1.531  0.2240  0.2053 -0.4646
 1103TIP3    H124944   4.082   4.029   1.595 -0.4159  1.1369 -1.6539
 1103TIP3    H224945   4.085   3.901   1.514  0.4416 -0.0927  0.2414
 1104TIP3   OH224946   0.222   6.701   1.200 -0.7451 -0.0826  0.7573
 1104TIP3    H124947   0.229   6.797   1.203 -1.8455 -0.0162  1.5989
 1104TIP3    H224948   0.260   6.678   1.115  0.6482  0.9823  1.0462
 1105TIP3   OH224949   4.792   3.360   0.344 -0.0580 -0.0633 -0.4107
 1105TIP3    H124950   4.794   3.392   0.254  0.9552 -0.7894 -0.6631
 1105TIP3    H224951   4.723   3.294   0.346  0.8897 -1.0887 -1.0298
 1106TIP3   OH224952   0.974   4.474   6.509 -0.5592 -0.0023 -0.2415
 1106TIP3    H124953   0.924   4.450   6.587  0.9772 -0.0447  0.7477
 1106TIP3    H224954   0.921   4.542   6.467 -1.9520 -0.7727  0.2015
 1107TIP3   OH224955   1.887   4.479   1.716 -0.1730 -0.4677 -0.4206
 1107TIP3    H124956   1.979   4.492   1.740 -0.8756  1.4841  1.6285
 1107TIP3    H224957   1.839   4.503   1.795 -2.5808  2.6555 -2.6011
 1108TIP3   OH224958   3.794   3.907   7.770 -0.3185 -0.0374  0.4155
 1108TIP3    H124959   3.705   3.897   7.738  0.2864 -1.5733 -0.9234
 1108TIP3    H224960   3.848   3.914   7.692  0.7258  1.1759  1.2056
 1109TIP3   OH224961   6.746   5.522   0.193  0.7134 -0.9673 -0.2470
 1109TIP3    H124962   6.665   5.491   0.152 -0.1347  0.4796  0.2637
 1109TIP3    H224963   6.783   5.583   0.129  0.2436  0.0366  0.4151
 1110TIP3   OH224964   5.247   6.039   8.113 -0.3109 -0.6594 -0.1851
 1110TIP3    H124965   5.301   5.969   8.077  0.4133  0.3846 -1.1880
 1110TIP3    H224966   5.287   6.120   8.081 -1.2567  0.2232  0.7564
 1111TIP3   OH224967   5.126   6.831   7.788 -0.6211  0.0027  0.2662
 1111TIP3    H124968   5.212   6.873   7.796 -0.3802 -0.6783  1.5313
 1111TIP3    H224969   5.065   6.904   7.775  0.1850  0.4508 -1.1904
 1112TIP3   OH224970   3.369   4.926   6.435  0.0795  0.2344  0.1388
 1112TIP3    H124971   3.374   4.831   6.426  0.4012  0.2394  0.2557
 1112TIP3    H224972   3.460   4.954   6.449  0.1980  0.7204 -1.4151
 1113TIP3   OH224973   5.161   2.638   2.225  0.1162  0.1712  0.4913
 1113TIP3    H124974   5.254   2.619   2.217 -0.3499 -1.8117 -0.9425
 1113TIP3    H224975   5.118   2.578   2.164 -2.0816  1.3815  0.7065
 1114TIP3   OH224976   3.975   6.880   0.367 -0.0377 -0.5466  0.6421
 1114TIP3    H124977   3.964   6.786   0.381 -2.6238 -0.4364 -0.1158
 1114TIP3    H224978   4.026   6.887   0.287  0.8364 -1.2799  1.1185
 1115TIP3   OH224979   4.921   5.658   7.271  0.5114  0.3742 -0.0511
 1115TIP3    H124980   5.013   5.637   7.288  0.2236 -0.4322  0.5504
 1115TIP3    H224981   4.876   5.639   7.353 -0.2600  0.3841 -0.4627
 1116TIP3   OH224982   6.934   0.062   1.229  0.3500 -0.1737  0.2123
 1116TIP3    H124983   6.883   0.128   1.275  2.5012  0.4175  1.9123
 1116TIP3    H224984   6.954   0.101   1.145  0.8205  0.9741  0.8426
 1117TIP3   OH224985   1.629   0.393   7.993 -0.0008 -0.1169  0.5159
 1117TIP3    H124986   1.589   0.330   7.933 -1.2177  0.1761  0.9898
 1117TIP3    H224987   1.647   0.342   8.072 -1.4540  0.1919  1.0883
 1118TIP3   OH224988   5.431   7.078   0.632  0.3393 -0.0435 -0.0672
 1118TIP3    H124989   5.478   7.004   0.670  1.4863  1.2537  1.1655
 1118TIP3    H224990   5.340   7.064   0.658  0.5655 -0.9682  0.2439
 1119TIP3   OH224991   0.070   1.680   0.908  0.2899 -0.0227  0.5764
 1119TIP3    H124992  -0.014   1.689   0.863  1.0946 -0.4824 -1.1268
 1119TIP3    H224993   0.099   1.591   0.888  0.5862 -0.3493  2.2755
 1120TIP3   OH224994   6.789   1.978   0.458 -0.6314  0.2973 -0.1509
 1120TIP3    H124995   6.846   1.907   0.484 -1.0482  0.1353  0.3469
 1120TIP3    H224996   6.837   2.058   0.481 -1.1800  0.1640  1.6174
 1121TIP3   OH224997   5.280   5.526   6.642  0.3941  0.4425 -0.2871
 1121TIP3    H124998   5.372   5.551   6.652  0.6346 -0.4084 -0.2497
 1121TIP3    H224999   5.230   5.602   6.672  1.0649 -0.1138  2.4853
 1122TIP3   OH225000   4.113   4.238   6.107 -0.3588  0.4973  0.1136
 1122TIP3    H125001   4.155   4.159   6.075 -0.1854  0.3306  0.7323
 1122TIP3    H225002   4.179   4.279   6.164 -0.9768  0.2982  0.9988
 1123TIP3   OH225003   6.415   2.108   7.466  0.1302  0.0517 -0.3865
 1123TIP3    H125004   6.384   2.065   7.386 -0.6867  0.4719 -0.3095
 1123TIP3    H225005   6.456   2.189   7.435  0.7525 -0.2825 -0.4530
 1124TIP3   OH225006   2.417   5.902   6.767 -0.0052  0.4222 -0.7046
 1124TIP3    H125007   2.360   5.884   6.691 -0.6968  0.3221 -0.1767
 1124TIP3    H225008   2.504   5.913   6.729  0.1847 -2.3133 -1.2758
 1125TIP3   OH225009   0.218   0.713   7.208  0.1832 -0.0956 -0.8464
 1125TIP3    H125010   0.288   0.777   7.218  0.5529 -0.4310 -1.2601
 1125TIP3    H225011   0.152   0.758   7.154 -0.5176  0.6792  0.5796
 1126TIP3   OH225012   3.828   2.856   0.821  0.0323  0.0379 -0.6093
 1126TIP3    H125013   3.841   2.787   0.886 -0.8359 -0.2789 -0.7606
 1126TIP3    H225014   3.902   2.916   0.834 -0.5347  0.4040  1.2043
 1127TIP3   OH225015   0.103   1.737   7.682 -1.1740  0.4709 -0.0749
 1127TIP3    H125016   0.192   1.771   7.687 -1.3310  1.5806 -2.8751
 1127TIP3    H225017   0.082   1.709   7.771  1.2166  2.0491  1.0661
 1128TIP3   OH225018   3.384   2.076   6.981 -0.1062 -0.3918 -0.1835
 1128TIP3    H125019   3.436   2.154   6.998  0.2933 -1.0801  1.9838
 1128TIP3    H225020   3.420   2.041   6.900  1.9425 -0.1279  0.5511
 1129TIP3   OH225021   3.105   2.655   1.000 -0.1605 -1.0284 -0.6182
 1129TIP3    H125022   3.138   2.650   1.089 -2.9538 -0.5384  0.5401
 1129TIP3    H225023   3.075   2.566   0.980 -0.4007 -0.9343 -0.6883
 1130TIP3   OH225024   0.346   5.112   7.669 -0.6433 -0.0383  0.3073
 1130TIP3    H125025   0.419   5.087   7.726 -0.7833 -1.9990 -0.2877
 1130TIP3    H225026   0.344   5.208   7.673  0.0671 -0.0495  2.6628
 1131TIP3   OH225027   3.983   6.652   7.377  0.1878 -0.6594 -0.3038
 1131TIP3    H125028   4.005   6.744   7.388  0.7233 -1.0338  2.8639
 1131TIP3    H225029   3.903   6.640   7.428 -0.8390 -1.6587 -2.0477
 1132TIP3   OH225030   1.058   5.217   0.041  0.6938 -0.9861 -0.2698
 1132TIP3    H125031   0.965   5.235   0.052  0.3918 -2.4803 -0.2084
 1132TIP3    H225032   1.089   5.286  -0.018 -0.0573  0.5230  1.0395
 1133TIP3   OH225033   0.191   4.329   5.610 -0.0409  0.4319  0.5984
 1133TIP3    H125034   0.163   4.404   5.557  0.4783  1.6288  1.9621
 1133TIP3    H225035   0.124   4.322   5.678 -0.7574 -1.1584 -0.1972
 1134TIP3   OH225036   1.412   1.549   1.236 -0.2744  0.5953  0.1994
 1134TIP3    H125037   1.360   1.499   1.174 -0.7337  0.9749  0.2721
 1134TIP3    H225038   1.349   1.608   1.278  0.2722  1.3119  0.0288
 1135TIP3   OH225039   2.235   6.442   1.027 -0.2328 -0.3714  0.2673
 1135TIP3    H125040   2.233   6.467   0.934  0.6326 -0.1520  0.2963
 1135TIP3    H225041   2.192   6.514   1.073 -0.6850 -0.4904  0.0376
 1136TIP3   OH225042   4.364   0.272   6.720 -0.0223  0.1257 -0.0556
 1136TIP3    H125043   4.414   0.262   6.640 -0.0083 -0.9946  0.0707
 1136TIP3    H225044   4.272   0.265   6.693 -0.1062  1.4523 -0.1879
 1137TIP3   OH225045   1.112   5.274   7.662  0.2531  0.0089 -0.1476
 1137TIP3    H125046   1.137   5.224   7.740  1.8547 -0.3560 -0.8442
 1137TIP3    H225047   1.108   5.209   7.592 -0.7077  0.4047 -0.4725
 1138TIP3   OH225048   0.109   3.481   5.872 -0.1884  0.0902  0.3220
 1138TIP3    H125049   0.024   3.462   5.834 -0.8103  0.2421  1.6110
 1138TIP3    H225050   0.150   3.541   5.809 -0.7672 -0.4650 -0.6078
 1139TIP3   OH225051   0.420   5.982   7.557 -0.2900  0.1410  0.3785
 1139TIP3    H125052   0.493   5.940   7.511 -0.6024 -1.5218  1.3187
 1139TIP3    H225053   0.402   5.924   7.631 -3.2309 -0.0703 -0.3766
 1140TIP3   OH225054   5.609   3.355   7.972  0.4165 -0.2913  0.3556
 1140TIP3    H125055   5.648   3.396   8.050  1.7141  0.7787 -0.7928
 1140TIP3    H225056   5.677   3.363   7.905 -0.5912 -1.3749 -0.8398
 1141TIP3   OH225057   2.317   2.439   0.830 -0.2174  0.1114 -0.5008
 1141TIP3    H125058   2.248   2.484   0.782  1.2084  0.9623 -1.8358
 1141TIP3    H225059   2.317   2.350   0.796  0.8310  0.7270 -2.1915
 1142TIP3   OH225060   6.494   1.977   1.039 -0.2134  0.4480  0.2184
 1142TIP3    H125061   6.501   1.955   1.132 -0.6105  0.1560  0.1847
 1142TIP3    H225062   6.558   1.921   0.996 -1.5180 -1.0070  0.0829
 1143TIP3   OH225063   6.116   1.275   1.714  0.0179  0.2178  0.6545
 1143TIP3    H125064   6.023   1.287   1.695  0.2886 -0.8733 -1.7251
 1143TIP3    H225065   6.127   1.181   1.727  0.9046  0.2066 -0.0433
 1144TIP3   OH225066   3.802   1.849   8.023  0.0989 -0.4705  0.2939
 1144TIP3    H125067   3.786   1.914   7.955  1.1752 -1.8127 -1.3224
 1144TIP3    H225068   3.861   1.893   8.085 -0.5932  0.6480  0.1754
 1145TIP3   OH225069   4.094   0.888   0.905  0.6847 -0.2923 -0.2653
 1145TIP3    H125070   4.079   0.915   0.814 -0.3376  0.2046  0.0378
 1145TIP3    H225071   4.015   0.838   0.928  0.8220 -0.1923  0.4329
 1146TIP3   OH225072   3.076   3.209   0.933  0.3595 -0.2406  0.0159
 1146TIP3    H125073   2.991   3.200   0.890 -0.1682  1.5741  0.5935
 1146TIP3    H225074   3.125   3.270   0.878  0.6046  0.1497  0.6600
 1147TIP3   OH225075   3.236   2.917   6.568  0.9312  0.0004  0.3220
 1147TIP3    H125076   3.315   2.950   6.611  0.0429  1.2941  1.0413
 1147TIP3    H225077   3.199   2.855   6.630  0.4576  0.7328  0.7923
 1148TIP3   OH225078   5.366   1.302   0.270  0.2963  0.0762  0.5128
 1148TIP3    H125079   5.441   1.246   0.288 -0.2592  0.1845  3.7958
 1148TIP3    H225080   5.404   1.390   0.263  0.5875  0.0312  1.3853
 1149TIP3   OH225081   3.265   5.346   7.029 -0.4369  0.0121 -0.1880
 1149TIP3    H125082   3.331   5.277   7.027  0.1011  0.5360 -1.2171
 1149TIP3    H225083   3.314   5.426   7.047 -0.1693  0.9548 -4.1449
 1150TIP3   OH225084   5.178   5.326   6.498 -0.2273 -0.3499  0.4567
 1150TIP3    H125085   5.094   5.349   6.537 -0.4370 -0.9849  0.3830
 1150TIP3    H225086   5.239   5.390   6.535 -1.0080  1.1447 -0.7110
 1151TIP3   OH225087   0.060   3.351   6.700  0.1543 -0.6111  0.6343
 1151TIP3    H125088  -0.030   3.337   6.674 -0.7718  0.8897  2.7081
 1151TIP3    H225089   0.055   3.416   6.771  3.0583  1.5336 -0.9032
 1152TIP3   OH225090   4.370   2.139   0.871  0.0041 -0.4711 -0.0852
 1152TIP3    H125091   4.304   2.071   0.886  0.0732 -0.6561 -0.6062
 1152TIP3    H225092   4.448   2.091   0.844 -0.1670 -0.1452 -1.2128
 1153TIP3   OH225093   1.038   1.235   0.483  0.1765  0.0921  0.5231
 1153TIP3    H125094   0.999   1.309   0.529  0.1286  0.1620  0.3679
 1153TIP3    H225095   0.987   1.225   0.403  1.2824  1.0156 -0.3213
 1154TIP3   OH225096   4.318   2.507   7.579  0.2574 -0.8457 -0.0402
 1154TIP3    H125097   4.409   2.511   7.608 -0.3484 -1.1775  2.1050
 1154TIP3    H225098   4.313   2.568   7.506  1.6088  1.3122  1.5323
 1155TIP3   OH225099   1.757   5.769   0.665  0.1176  0.6501 -0.3189
 1155TIP3    H125100   1.718   5.851   0.695 -0.7770 -0.5349  2.0601
 1155TIP3    H225101   1.826   5.751   0.729 -0.4411 -0.9537 -0.1217
 1156TIP3   OH225102   4.906   4.813   0.964  0.3616  0.5314 -0.7687
 1156TIP3    H125103   4.980   4.842   0.911 -0.3596  0.1421 -2.0217
 1156TIP3    H225104   4.862   4.894   0.991  1.7326  0.8242  0.7944
 1157TIP3   OH225105   0.102   2.540   7.587  0.0022  0.1016  0.2568
 1157TIP3    H125106   0.171   2.595   7.550 -0.9952  0.1532 -1.6364
 1157TIP3    H225107   0.038   2.602   7.622  0.3096  0.0779  0.8666
 1158TIP3   OH225108   0.182   4.178   7.762 -0.0590 -0.0475  0.0638
 1158TIP3    H125109   0.095   4.166   7.800  0.2447  1.0378  1.1658
 1158TIP3    H225110   0.167   4.224   7.679 -0.5321  0.3065  0.3446
 1159TIP3   OH225111   5.446   5.210   6.550 -0.1487 -0.0309  0.7867
 1159TIP3    H125112   5.449   5.126   6.505  2.1087  0.3605  0.1010
 1159TIP3    H225113   5.474   5.274   6.484 -0.1716  1.0393  1.7772
 1160TIP3   OH225114   5.936   2.250   7.287 -0.2700  0.2396  0.0843
 1160TIP3    H125115   6.028   2.260   7.308 -0.4112  0.3428  0.6727
 1160TIP3    H225116   5.921   2.155   7.289 -0.3206  0.2528  0.6550
 1161TIP3   OH225117   3.918   1.181   8.123 -0.6344 -0.2932  0.6525
 1161TIP3    H125118   3.865   1.111   8.084  0.1933 -0.1517 -0.8048
 1161TIP3    H225119   3.901   1.258   8.068  2.4396 -0.6959 -1.1149
 1162TIP3   OH225120   3.080   2.805   6.771  0.0688 -0.3276  0.2788
 1162TIP3    H125121   2.990   2.791   6.741 -0.0975 -0.3911  0.7987
 1162TIP3    H225122   3.111   2.718   6.796 -0.3759 -0.0608  1.8691
 1163TIP3   OH225123   4.899   4.625   1.180 -0.3945  0.3059 -0.6169
 1163TIP3    H125124   4.803   4.630   1.189 -0.7658 -2.0218 -2.4190
 1163TIP3    H225125   4.919   4.686   1.109 -0.0407  3.1695  1.7646
 1164TIP3   OH225126   4.306   2.688   1.325 -0.7440 -0.2889 -0.5960
 1164TIP3    H125127   4.316   2.758   1.260  0.2204 -0.6744 -0.8880
 1164TIP3    H225128   4.236   2.633   1.290  0.6473 -1.2386 -2.0503
 1165TIP3   OH225129   0.618   5.345   0.197 -0.4190  0.0999  0.6597
 1165TIP3    H125130   0.616   5.295   0.278 -1.7961  0.9003  1.1457
 1165TIP3    H225131   0.526   5.367   0.180 -0.1993 -0.3029 -1.2745
 1166TIP3   OH225132   0.504   2.346   0.568 -0.3998 -0.3905 -0.9027
 1166TIP3    H125133   0.416   2.320   0.594 -1.0156  1.2704 -1.1994
 1166TIP3    H225134   0.495   2.376   0.477 -0.2237  2.7558  0.0163
 1167TIP3   OH225135   0.433   3.669   5.353 -0.3519 -0.4211  0.4226
 1167TIP3    H125136   0.337   3.667   5.353 -0.5212  2.0532 -1.1810
 1167TIP3    H225137   0.454   3.757   5.384  1.4953 -1.3464  1.9597
 1168TIP3   OH225138   5.259   2.863   6.400 -0.1338 -0.1424  0.6525
 1168TIP3    H125139   5.203   2.853   6.478 -0.6818 -0.9426  0.1673
 1168TIP3    H225140   5.211   2.923   6.343 -0.2884 -0.4774  0.4284
 1169TIP3   OH225141   1.486   4.823   6.691  0.3774  0.2021 -0.1048
 1169TIP3    H125142   1.398   4.787   6.695  0.7753 -0.7299  0.8101
 1169TIP3    H225143   1.480   4.906   6.739  0.6071 -1.3194  2.8295
 1170TIP3   OH225144   1.911   6.555   0.343  0.4607 -0.2048  0.6561
 1170TIP3    H125145   1.870   6.606   0.272 -0.0086 -1.5634 -0.0878
 1170TIP3    H225146   1.997   6.531   0.308  1.5526  1.7356  1.8037
 1171TIP3   OH225147   4.037   1.799   6.287 -0.1079 -0.4667  0.4726
 1171TIP3    H125148   3.943   1.809   6.272 -1.1179 -4.0754  3.0849
 1171TIP3    H225149   4.071   1.768   6.203 -1.6635 -1.1190  0.0430
 1172TIP3   OH225150   6.657   2.964   7.272 -0.5817 -0.8646  0.3289
 1172TIP3    H125151   6.654   3.053   7.307  2.6923 -0.2791 -0.5415
 1172TIP3    H225152   6.699   2.973   7.186 -0.5399 -3.2117  0.0206
 1173TIP3   OH225153   4.006   4.818   8.123  0.1788 -0.3971  0.5700
 1173TIP3    H125154   3.921   4.855   8.149  0.0194  0.1788 -0.7264
 1173TIP3    H225155   3.984   4.753   8.057  0.6958 -0.7657  0.7635
 1174TIP3   OH225156   0.747   3.341   8.060 -0.0694  0.0580 -0.0704
 1174TIP3    H125157   0.667   3.296   8.036  0.6953 -0.9845 -0.7595
 1174TIP3    H225158   0.764   3.313   8.150 -0.3376  0.0773 -0.0126
 1175TIP3   OH225159   1.217   0.522   6.590 -0.6068  0.2155  0.4058
 1175TIP3    H125160   1.273   0.455   6.630  1.5351  2.0022  0.5856
 1175TIP3    H225161   1.219   0.502   6.496 -0.1161 -0.0589  0.4694
 1176TIP3   OH225162   5.814   2.406   0.423  0.0940  0.1045 -0.4906
 1176TIP3    H125163   5.800   2.497   0.450  1.5705  0.1907  0.0483
 1176TIP3    H225164   5.909   2.398   0.412  0.0029 -1.4272 -0.3324
 1177TIP3   OH225165   4.626   4.425   1.794  0.3731  0.5934  0.1076
 1177TIP3    H125166   4.542   4.464   1.769 -0.0612  0.4438  1.2617
 1177TIP3    H225167   4.665   4.487   1.855  0.6587  0.2104  0.3209
 1178TIP3   OH225168   3.272   6.929   0.029 -0.1266 -0.5695 -0.2465
 1178TIP3    H125169   3.276   6.988  -0.047 -1.9198  0.1147  0.1297
 1178TIP3    H225170   3.245   6.845  -0.008  0.5891 -0.6717 -0.5536
 1179TIP3   OH225171   4.511   5.082   0.082 -1.0253 -0.3977  0.9022
 1179TIP3    H125172   4.591   5.129   0.109 -0.1171 -0.8826 -0.8102
 1179TIP3    H225173   4.462   5.071   0.163  0.1591  0.8344  1.8434
 1180TIP3   OH225174   3.010   2.932   7.454  0.1457 -0.5545  0.1003
 1180TIP3    H125175   2.981   2.996   7.389 -0.8922 -0.9828  0.1192
 1180TIP3    H225176   3.101   2.956   7.472  0.5713 -0.6292 -1.7447
 1181TIP3   OH225177   3.112   4.646   1.079  1.2571 -0.2221  0.7437
 1181TIP3    H125178   3.113   4.742   1.072  0.1863 -0.0661  2.3815
 1181TIP3    H225179   3.063   4.617   1.002 -0.0804  0.6820  1.2261
 1182TIP3   OH225180   5.259   1.815   6.538 -0.0092  0.4506  0.1958
 1182TIP3    H125181   5.306   1.896   6.555 -1.4428  1.1968  0.8199
 1182TIP3    H225182   5.178   1.843   6.494 -0.3524 -0.6798  0.0682
 1183TIP3   OH225183   0.730   4.921   0.280  0.4405  0.0122  0.1733
 1183TIP3    H125184   0.753   4.859   0.350 -0.9556  0.0022  0.6487
 1183TIP3    H225185   0.783   4.998   0.300 -0.7690  0.4439  1.9468
 1184TIP3   OH225186   0.105   1.455   0.741  0.4337  0.6726 -0.2883
 1184TIP3    H125187   0.081   1.515   0.670 -1.6757  1.1076  0.7127
 1184TIP3    H225188   0.062   1.372   0.718  0.4319  0.5787  0.0443
 1185TIP3   OH225189   4.389   4.217   5.903  0.1326  0.4570  0.5831
 1185TIP3    H125190   4.352   4.140   5.947  0.1550  0.3368  0.3953
 1185TIP3    H225191   4.483   4.199   5.898 -0.1712 -1.0014 -2.2624
 1186TIP3   OH225192   5.177   2.647   6.655  0.0490  0.3152  0.1909
 1186TIP3    H125193   5.145   2.725   6.611 -0.9555  0.4422  1.0981
 1186TIP3    H225194   5.252   2.619   6.603  0.0230  1.4998 -0.5227
 1187TIP3   OH225195   0.693   3.528   1.160 -0.1898  0.0250  0.6983
 1187TIP3    H125196   0.607   3.545   1.198 -1.5629  2.3240 -2.9831
 1187TIP3    H225197   0.754   3.567   1.222 -1.8076 -0.5606  2.8013
 1188TIP3   OH225198   5.190   2.319   0.305  0.3589 -0.8783  0.4254
 1188TIP3    H125199   5.105   2.327   0.350  0.6705  0.7158  0.8017
 1188TIP3    H225200   5.254   2.347   0.371  1.0198 -0.4928 -0.3626
 1189TIP3   OH225201   4.197   3.573   7.154 -0.3011  0.2283 -0.6338
 1189TIP3    H125202   4.283   3.565   7.113  0.2630  0.9087  0.3835
 1189TIP3    H225203   4.158   3.650   7.112  1.2915  2.5227  1.7397
 1190TIP3   OH225204   1.283   0.592   0.488  0.2106 -0.6511  0.4507
 1190TIP3    H125205   1.300   0.584   0.581  3.3082  1.5621  0.2306
 1190TIP3    H225206   1.243   0.679   0.478  2.7747  0.5286 -0.4365
 1191TIP3   OH225207   0.368   3.446   5.594  0.3363  0.2318 -0.0592
 1191TIP3    H125208   0.434   3.488   5.539  0.4894  0.4005  0.2512
 1191TIP3    H225209   0.350   3.510   5.663  1.7808 -0.8433  1.3798
 1192TIP3   OH225210   0.839   0.518   7.074  0.0730 -0.2974 -0.0723
 1192TIP3    H125211   0.811   0.600   7.115  3.2490  1.4908 -1.0591
 1192TIP3    H225212   0.765   0.459   7.084 -1.7801  2.1536  2.1586
 1193TIP3   OH225213   0.165   2.288   7.525  0.5361  0.3505 -0.6963
 1193TIP3    H125214   0.091   2.230   7.544  1.1777 -0.0639  0.6402
 1193TIP3    H225215   0.130   2.376   7.539  0.2454  0.1674 -0.2384
 1194TIP3   OH225216   1.998   1.353   6.608  0.2602 -0.1873 -0.3007
 1194TIP3    H125217   1.910   1.358   6.646  0.3773  1.6046 -0.2047
 1194TIP3    H225218   1.983   1.354   6.514  0.1358 -1.5141 -0.3268
 1195TIP3   OH225219   4.703   2.333   7.816 -0.1722  0.0569  0.0163
 1195TIP3    H125220   4.743   2.261   7.864 -2.3547 -0.4902  1.1756
 1195TIP3    H225221   4.751   2.411   7.844  0.0853 -0.5485  1.3487
 1196TIP3   OH225222   6.429   1.286   6.370  0.9599  0.5357  0.0803
 1196TIP3    H125223   6.478   1.210   6.340 -2.7970 -2.4319  0.7318
 1196TIP3    H225224   6.410   1.336   6.290  2.5614  0.2500 -0.5070
 1197TIP3   OH225225   4.073   2.738   6.682 -0.0268 -0.7689  0.0755
 1197TIP3    H125226   4.125   2.749   6.603 -1.0380 -2.4625 -0.8787
 1197TIP3    H225227   4.132   2.762   6.753  1.6119 -1.2765 -1.0581
 1198TIP3   OH225228   3.898   6.552   0.621  0.2053  0.2971 -0.0434
 1198TIP3    H125229   3.882   6.537   0.715  1.7323  1.8256  0.5164
 1198TIP3    H225230   3.992   6.566   0.615 -0.1513  2.6973 -1.4031
 1199TIP3   OH225231   3.094   1.384   0.056 -0.4082  0.4018  0.2598
 1199TIP3    H125232   3.153   1.351   0.124  1.1945 -0.2812 -1.3927
 1199TIP3    H225233   3.090   1.313  -0.009 -1.1396  1.4003 -0.8232
 1200TIP3   OH225234   3.804   5.361   1.200 -0.7815 -0.2382 -0.5537
 1200TIP3    H125235   3.726   5.402   1.162 -1.0581  0.0359  0.2785
 1200TIP3    H225236   3.821   5.286   1.143 -2.5069 -1.1350  0.0305
 1201TIP3   OH225237   0.647   4.949   5.797 -0.1188 -0.0986  0.5173
 1201TIP3    H125238   0.625   5.042   5.790  0.8315  0.1269  0.4743
 1201TIP3    H225239   0.578   4.905   5.747  0.7487  0.7422 -1.5235
 1202TIP3   OH225240   5.435   1.469   2.166  0.5121  0.4171 -0.5115
 1202TIP3    H125241   5.381   1.423   2.231 -0.5777  1.0540 -0.9348
 1202TIP3    H225242   5.495   1.522   2.218  1.1750 -0.7707 -0.0263
 1203TIP3   OH225243   4.396   1.942   6.465 -0.2327 -0.6558 -0.3246
 1203TIP3    H125244   4.396   1.973   6.556  0.1584 -0.9161 -0.2310
 1203TIP3    H225245   4.328   1.874   6.463 -0.0772 -0.8180 -0.1649
 1204TIP3   OH225246   4.292   1.518   7.109  0.1176 -0.3848 -0.3574
 1204TIP3    H125247   4.297   1.453   7.038 -1.3242 -2.1594  1.0492
 1204TIP3    H225248   4.299   1.466   7.189  0.4513  1.4223  0.8488
 1205TIP3   OH225249   3.407   3.760   6.868  0.2877 -0.2191  0.2478
 1205TIP3    H125250   3.359   3.731   6.790  2.8656  2.0341 -2.4064
 1205TIP3    H225251   3.339   3.773   6.934 -2.1500 -1.4210 -1.8305
 1206TIP3   OH225252   5.378   6.622   7.445 -0.0021  0.3715  0.7946
 1206TIP3    H125253   5.434   6.545   7.450  0.8453  0.8125 -1.2391
 1206TIP3    H225254   5.361   6.645   7.537  2.8507  0.0253  1.4919
 1207TIP3   OH225255   4.852   0.338   6.687 -0.7620  0.1100 -0.0818
 1207TIP3    H125256   4.882   0.392   6.760 -1.6588 -1.3836  1.4618
 1207TIP3    H225257   4.922   0.346   6.621  0.7320  0.4375  1.4768
 1208TIP3   OH225258   1.075   5.390   7.948 -0.0752 -0.2013  0.0039
 1208TIP3    H125259   1.092   5.308   7.902 -0.1723 -0.1333 -0.1519
 1208TIP3    H225260   1.051   5.452   7.880  1.7013  0.4344 -0.1023
 1209TIP3   OH225261   4.379   1.750   1.405  0.3363 -0.3962  0.4337
 1209TIP3    H125262   4.387   1.754   1.501  1.6125 -1.9250  0.4256
 1209TIP3    H225263   4.323   1.674   1.390  1.0003 -0.8001 -0.0459
 1210TIP3   OH225264   2.741   0.475   6.608 -0.0081  0.5393  0.6482
 1210TIP3    H125265   2.825   0.465   6.654  0.0072  0.1908  0.5457
 1210TIP3    H225266   2.684   0.408   6.647  0.5622 -1.0557 -1.1263
 1211TIP3   OH225267   0.826   5.104   6.563  0.5168  0.1245  0.0594
 1211TIP3    H125268   0.753   5.160   6.535 -1.2143 -1.8533  0.3433
 1211TIP3    H225269   0.838   5.125   6.656 -2.8746 -2.6089  1.3206
 1212TIP3   OH225270   4.157   3.085   1.161  0.2520 -0.1993 -0.1172
 1212TIP3    H125271   4.077   3.111   1.115 -0.0447 -0.4434  0.2559
 1212TIP3    H225272   4.224   3.082   1.093  0.0322  0.4044 -0.3640
 1213TIP3   OH225273   2.719   4.174   0.374 -0.3865  0.1929 -0.7014
 1213TIP3    H125274   2.741   4.081   0.378  0.2937  0.3789 -0.0332
 1213TIP3    H225275   2.803   4.219   0.378 -0.7091  0.8424 -1.0229
 1214TIP3   OH225276   2.171   1.110   0.329 -0.3190  0.5737 -0.1772
 1214TIP3    H125277   2.118   1.170   0.382 -0.5400  1.3002 -1.1913
 1214TIP3    H225278   2.236   1.075   0.390 -1.8889 -0.2844  1.1040
 1215TIP3   OH225279   3.166   4.727   8.036 -0.3383 -0.0834  0.1172
 1215TIP3    H125280   3.093   4.743   7.976  0.3266 -2.6030 -1.5038
 1215TIP3    H225281   3.124   4.703   8.118 -1.2953  0.8513 -0.0773
 1216TIP3   OH225282   3.565   2.314   6.100 -0.0917 -0.1542  0.3497
 1216TIP3    H125283   3.653   2.351   6.094 -0.5436  1.1248  1.2380
 1216TIP3    H225284   3.570   2.256   6.176 -0.1949  0.4885  0.8583
 1217TIP3   OH225285   4.197   4.739   1.480  0.2573  0.1127 -0.4356
 1217TIP3    H125286   4.152   4.688   1.548  1.8132 -0.8621 -0.1053
 1217TIP3    H225287   4.126   4.783   1.433 -0.8205  2.3426  2.9267
 1218TIP3   OH225288   4.613   2.835   7.318 -0.0681 -0.3487  0.0411
 1218TIP3    H125289   4.617   2.825   7.413 -2.9307  4.0599  0.9458
 1218TIP3    H225290   4.681   2.900   7.298 -2.7274  2.8047  0.2308
 1219TIP3   OH225291   6.543   5.628   7.641  0.0311  0.1513  0.5489
 1219TIP3    H125292   6.496   5.547   7.661  0.0248  0.2394  0.8955
 1219TIP3    H225293   6.555   5.625   7.547  1.0155 -0.8029  0.6817
 1220TIP3   OH225294   4.868   0.166   7.384 -0.0192  0.0364  0.5668
 1220TIP3    H125295   4.868   0.209   7.299 -0.9154 -1.7187 -0.3848
 1220TIP3    H225296   4.777   0.139   7.398  0.5607 -2.0554  0.7694
 1221TIP3   OH225297   4.450   5.117   6.812  0.5586 -0.7022 -0.2196
 1221TIP3    H125298   4.501   5.158   6.742  2.4684 -1.3276  0.7263
 1221TIP3    H225299   4.501   5.134   6.891 -0.0877 -2.3884  0.6027
 1222TIP3   OH225300   4.937   0.886   7.377 -0.3060 -0.4377  0.7112
 1222TIP3    H125301   4.971   0.850   7.459 -0.4564 -1.6726  0.2514
 1222TIP3    H225302   4.963   0.823   7.310  0.0641  0.6976 -0.2479
 1223TIP3   OH225303   6.511   3.915   1.164 -0.1911  0.0297 -0.4619
 1223TIP3    H125304   6.537   3.897   1.254 -2.1147  0.7237  0.2692
 1223TIP3    H225305   6.458   3.839   1.139  0.5641 -0.2942 -1.1425
 1224TIP3   OH225306   0.034   4.896   0.483  0.1960 -0.1561  0.3843
 1224TIP3    H125307   0.053   4.883   0.576  1.7141 -0.4025  0.0555
 1224TIP3    H225308   0.008   4.988   0.477 -2.4908 -0.7610  1.4197
 1225TIP3   OH225309   1.709   3.175   0.913  0.2302  0.0205 -0.8486
 1225TIP3    H125310   1.660   3.171   0.830  2.5178 -1.4139 -2.2278
 1225TIP3    H225311   1.779   3.112   0.902  0.4330 -0.4428  2.3792
 1226TIP3   OH225312   0.641   2.922   8.045 -0.7315  0.0047  0.4390
 1226TIP3    H125313   0.672   2.923   8.135 -0.9571 -0.0039  0.5190
 1226TIP3    H225314   0.689   2.849   8.004 -0.3284  0.2682  0.4394
 1227TIP3   OH225315   4.770   2.476   0.094  0.1233 -0.6165  0.1043
 1227TIP3    H125316   4.784   2.509   0.183  1.8930 -2.5246  0.5998
 1227TIP3    H225317   4.845   2.510   0.045  0.1127 -1.0498 -0.2109
 1228TIP3   OH225318   2.877   5.760   7.079  0.4782  0.2473  0.2203
 1228TIP3    H125319   2.846   5.798   7.161 -1.9224 -0.3054 -0.3544
 1228TIP3    H225320   2.957   5.714   7.103 -2.2835 -3.7395  3.3995
 1229TIP3   OH225321   3.806   5.891   1.683  0.1522 -0.1288 -0.2544
 1229TIP3    H125322   3.833   5.802   1.706  2.5443  0.4495 -0.5466
 1229TIP3    H225323   3.733   5.879   1.622 -1.0893 -1.7961  1.4112
 1230TIP3   OH225324   5.926   4.498   0.430 -0.3365 -0.3561 -0.0523
 1230TIP3    H125325   5.929   4.466   0.520 -1.5399 -1.0965 -0.2483
 1230TIP3    H225326   5.869   4.436   0.385 -0.1245  0.2716 -1.2207
 1231TIP3   OH225327   3.108   1.954   0.251  0.2190  0.3074 -0.2820
 1231TIP3    H125328   3.120   2.049   0.240 -3.4517  0.8539 -0.7511
 1231TIP3    H225329   3.183   1.926   0.304  1.7272  3.3366 -0.6034
 1232TIP3   OH225330   6.933   4.256   1.142 -0.1234 -0.3533  0.5406
 1232TIP3    H125331   6.991   4.181   1.135  0.4198  0.0502  0.6936
 1232TIP3    H225332   6.845   4.220   1.127  0.4183 -0.3622 -3.6457
 1233TIP3   OH225333   2.205   1.478   0.406 -0.2041 -0.0721 -0.0618
 1233TIP3    H125334   2.141   1.415   0.439  0.4779 -0.8557 -0.2209
 1233TIP3    H225335   2.152   1.542   0.358 -1.0007  0.0188  0.9150
 1234TIP3   OH225336   0.455   1.244   0.052  0.4873  0.4994 -0.2366
 1234TIP3    H125337   0.465   1.305  -0.022  1.1801  0.7742  0.0757
 1234TIP3    H225338   0.545   1.221   0.076  0.2504  0.0227  0.2056
 1235TIP3   OH225339   4.689   1.953   0.221 -0.7705 -0.2613  0.2809
 1235TIP3    H125340   4.738   2.035   0.222 -1.2796  0.0579 -0.5312
 1235TIP3    H225341   4.682   1.928   0.314  1.0714 -0.4260  0.4086
 1236TIP3   OH225342   5.444   2.517   1.706  0.1703 -0.0041 -1.0345
 1236TIP3    H125343   5.532   2.540   1.734 -0.4985  2.2506 -0.5904
 1236TIP3    H225344   5.433   2.560   1.621 -0.4856 -0.2896 -1.1038
 1237TIP3   OH225345   2.176   0.174   6.609  0.3160  0.2455  0.3063
 1237TIP3    H125346   2.255   0.124   6.628  1.6339  2.6572  1.5490
 1237TIP3    H225347   2.201   0.234   6.538 -0.1913  1.4264  1.0934
 1238TIP3   OH225348   3.617   7.096   0.663  0.4101  0.6892 -0.1446
 1238TIP3    H125349   3.665   7.178   0.653 -2.7978  2.8207  0.4870
 1238TIP3    H225350   3.593   7.071   0.573  0.0898  1.3339 -0.2453
 1239TIP3   OH225351   1.666   6.167   6.904 -0.0264  0.1117  0.2399
 1239TIP3    H125352   1.613   6.111   6.961 -0.0795 -0.4378 -0.3312
 1239TIP3    H225353   1.676   6.248   6.952  0.1020 -0.4117  1.1163
 1240TIP3   OH225354   6.311   6.697   0.584 -0.1925  0.2262  0.0044
 1240TIP3    H125355   6.292   6.651   0.665  0.1067 -0.8993 -0.5381
 1240TIP3    H225356   6.406   6.693   0.576 -0.1345  1.2275  0.0978
 1241TIP3   OH225357   0.792   0.162   1.479 -0.3147 -0.0903 -0.4812
 1241TIP3    H125358   0.772   0.224   1.550 -1.3900 -0.2949 -0.5894
 1241TIP3    H225359   0.775   0.211   1.399  0.2279 -0.0767 -0.5878
 1242TIP3   OH225360   1.238   4.688   5.978  0.1827  0.1443 -0.2760
 1242TIP3    H125361   1.307   4.752   5.960 -1.9475  2.0898 -2.2750
 1242TIP3    H225362   1.279   4.603   5.964  2.8410  1.0426  1.3751
 1243TIP3   OH225363   0.430   4.570   6.284 -0.3054 -0.1117  0.3573
 1243TIP3    H125364   0.456   4.661   6.290  0.1037 -0.2102  0.1370
 1243TIP3    H225365   0.482   4.535   6.212 -0.1942 -0.6080  0.6730
 1244TIP3   OH225366   6.868   6.646   1.641  0.0257 -0.0187 -0.5179
 1244TIP3    H125367   6.855   6.570   1.698  0.7913  0.9585  1.0037
 1244TIP3    H225368   6.803   6.709   1.669  0.1219  0.3158 -1.0307
 1245TIP3   OH225369   6.239   6.741   7.000 -0.1207 -0.3281  0.2640
 1245TIP3    H125370   6.297   6.685   7.051 -0.9108 -0.9767  0.4672
 1245TIP3    H225371   6.160   6.749   7.054 -0.3522  0.2699 -0.1550
 1246TIP3   OH225372   5.481   6.729   6.408 -0.6171 -0.0995  0.3416
 1246TIP3    H125373   5.545   6.798   6.394 -2.4695  1.5666 -0.4106
 1246TIP3    H225374   5.515   6.654   6.359  0.7351  0.7230 -0.0199
 1247TIP3   OH225375   6.224   1.316   7.045 -0.0398  0.2054  0.8260
 1247TIP3    H125376   6.226   1.375   7.120 -1.6427  1.3479  0.0217
 1247TIP3    H225377   6.142   1.267   7.055  0.8367 -1.2879  1.0021
 1248TIP3   OH225378   5.640   4.356   6.003 -0.5468  0.5330  0.3029
 1248TIP3    H125379   5.680   4.418   6.064  1.0657 -0.1366 -0.0182
 1248TIP3    H225380   5.703   4.284   5.997 -1.5038 -0.2537 -0.7717
 1249TIP3   OH225381   6.563   5.862   8.095  0.1390 -0.3285  0.0940
 1249TIP3    H125382   6.589   5.875   8.004  2.6160  2.2191  1.0280
 1249TIP3    H225383   6.468   5.869   8.094  0.1845  0.9023 -2.1372
 1250TIP3   OH225384   5.841   6.040   0.860  0.5039 -0.6441 -0.1675
 1250TIP3    H125385   5.912   6.087   0.903  0.5022  0.3410 -1.1825
 1250TIP3    H225386   5.886   5.977   0.803  0.5485 -0.6359 -0.1416
 1251TIP3   OH225387   0.686   0.631   0.447 -0.2517 -0.8681  0.5509
 1251TIP3    H125388   0.609   0.608   0.499 -0.0397  0.3271  1.4549
 1251TIP3    H225389   0.721   0.710   0.490  0.2904 -0.1924 -1.0612
 1252TIP3   OH225390   4.960   5.485   1.816 -0.1313  0.2446  0.8395
 1252TIP3    H125391   4.993   5.407   1.771 -0.7647 -0.2964  1.2863
 1252TIP3    H225392   5.009   5.558   1.778  0.5741 -0.3874  0.5117
 1253TIP3   OH225393   6.211   2.860   1.406 -0.7423 -0.0901 -0.5630
 1253TIP3    H125394   6.155   2.813   1.344 -2.8326  1.8071 -0.2753
 1253TIP3    H225395   6.275   2.905   1.350  0.9821 -2.7488 -0.8609
 1254TIP3   OH225396   3.327   0.158   7.091 -0.3315 -0.4249  0.5953
 1254TIP3    H125397   3.371   0.104   7.026  0.2052 -0.1650  0.7374
 1254TIP3    H225398   3.235   0.159   7.064  0.3145  2.2835 -2.0261
 1255TIP3   OH225399   0.409   5.594   0.171 -0.5663  0.1269 -0.2864
 1255TIP3    H125400   0.476   5.638   0.224 -0.2949  0.3813 -0.8343
 1255TIP3    H225401   0.329   5.598   0.225  0.0813 -1.1066  0.8416
 1256TIP3   OH225402   1.663   6.010   0.861  0.1187 -0.2644 -0.7535
 1256TIP3    H125403   1.755   6.033   0.875  0.1086 -0.9010  0.5448
 1256TIP3    H225404   1.616   6.093   0.869  0.0584 -0.4562  3.9845
 1257TIP3   OH225405   4.025   2.373   1.810  0.8324  0.1046  0.0157
 1257TIP3    H125406   4.068   2.334   1.887  2.5877  1.4447 -0.2090
 1257TIP3    H225407   4.097   2.410   1.759 -0.4469  0.6230 -1.4981
 1258TIP3   OH225408   5.214   0.627   0.215  0.2532 -0.2711  0.3580
 1258TIP3    H125409   5.191   0.623   0.308 -1.1740 -1.0728  0.0082
 1258TIP3    H225410   5.270   0.704   0.207  1.9769 -1.2587  2.1949
 1259TIP3   OH225411   0.570   2.634   6.226 -0.0889  0.0799 -0.0247
 1259TIP3    H125412   0.583   2.728   6.242  0.3980  0.2339 -1.2037
 1259TIP3    H225413   0.632   2.591   6.284  1.8416  0.6197 -1.5867
 1260TIP3   OH225414   4.275   0.588   6.829  0.4643  0.7889  0.0757
 1260TIP3    H125415   4.253   0.553   6.743  0.2241  0.7385  0.1551
 1260TIP3    H225416   4.264   0.683   6.821 -0.6791  0.7028  0.3546
 1261TIP3   OH225417   5.076   3.584   0.181  0.2967  0.5718  0.5002
 1261TIP3    H125418   5.083   3.508   0.240  0.8464  0.0349 -0.2469
 1261TIP3    H225419   5.158   3.585   0.133 -0.5158  0.4366 -0.9466
 1262TIP3   OH225420   5.271   6.217   7.848 -0.0960 -0.3339  0.6275
 1262TIP3    H125421   5.271   6.270   7.769  0.5619 -1.7370 -0.3554
 1262TIP3    H225422   5.295   6.277   7.919  1.9842  0.4050 -0.6362
 1263TIP3   OH225423   2.309   7.031   6.929  0.0041  0.0844 -0.0949
 1263TIP3    H125424   2.335   7.118   6.958 -1.0675  1.3368 -2.6092
 1263TIP3    H225425   2.390   6.991   6.896  0.6305 -0.1944  1.6852
 1264TIP3   OH225426   1.841   6.505   1.169 -0.2226  0.2434 -0.0352
 1264TIP3    H125427   1.824   6.423   1.215  0.0290 -0.5644 -1.3337
 1264TIP3    H225428   1.802   6.572   1.224 -0.7783 -0.7883  0.8580
 1265TIP3   OH225429   2.294   1.995   7.200 -0.3191 -0.4122 -0.6469
 1265TIP3    H125430   2.353   2.004   7.125 -0.2457  1.1654 -0.4313
 1265TIP3    H225431   2.209   1.976   7.161 -0.1236 -0.4002 -1.0907
 1266TIP3   OH225432   4.342   2.884   1.082 -0.1887 -0.0499 -0.3896
 1266TIP3    H125433   4.407   2.820   1.054 -0.3676 -1.1056  1.4559
 1266TIP3    H225434   4.345   2.952   1.014  1.8780 -0.7046 -1.0462
 1267TIP3   OH225435   2.206   3.370   1.503 -0.4539 -0.5518  0.6127
 1267TIP3    H125436   2.250   3.302   1.451  0.4698  1.0542 -0.8388
 1267TIP3    H225437   2.127   3.328   1.536 -0.6914 -1.9055 -1.4903
 1268TIP3   OH225438   6.090   3.786   0.581 -0.6528  0.3614 -0.0670
 1268TIP3    H125439   6.112   3.735   0.503  0.6621 -0.0751  0.5649
 1268TIP3    H225440   6.068   3.720   0.647 -0.4994  0.6833  0.3044
 1269TIP3   OH225441   4.704   4.524   7.247  0.0584  0.7480  1.0602
 1269TIP3    H125442   4.644   4.484   7.310  1.1104 -0.6226  1.2201
 1269TIP3    H225443   4.757   4.584   7.300 -1.8652  2.8667  0.7349
 1270TIP3   OH225444   4.796   7.104   0.793  0.0758  0.0576  0.3989
 1270TIP3    H125445   4.784   7.191   0.833 -1.1726 -0.6553  1.6638
 1270TIP3    H225446   4.804   7.045   0.868  0.1912 -1.0209 -0.4463
 1271TIP3   OH225447   6.669   4.290   0.634  0.7560 -0.1902  0.1463
 1271TIP3    H125448   6.731   4.275   0.706  1.4138  0.9077 -0.1712
 1271TIP3    H225449   6.722   4.323   0.562  0.3346 -2.5985 -1.3963
 1272TIP3   OH225450   3.137   6.688   6.287 -0.1929  0.4538  0.6810
 1272TIP3    H125451   3.089   6.645   6.357 -0.8142  0.5636  0.3255
 1272TIP3    H225452   3.229   6.668   6.306 -0.4329 -0.6225  0.7958
 1273TIP3   OH225453   6.811   3.019   6.078 -0.6143 -0.6227 -0.8238
 1273TIP3    H125454   6.861   3.096   6.102 -0.3914 -1.1123  0.3292
 1273TIP3    H225455   6.874   2.948   6.077 -1.1969 -1.1858  0.3184
 1274TIP3   OH225456   5.603   1.434   1.370 -0.0340 -0.4798 -0.0074
 1274TIP3    H125457   5.522   1.474   1.401 -0.3319 -0.6483 -0.5444
 1274TIP3    H225458   5.576   1.349   1.335  0.3170 -0.3870 -0.5144
 1275TIP3   OH225459   1.423   2.623   7.392  0.3028 -0.8850  0.1131
 1275TIP3    H125460   1.420   2.704   7.342 -1.8895 -0.0899  1.3874
 1275TIP3    H225461   1.336   2.584   7.380  0.0744 -1.1987  2.3391
 1276TIP3   OH225462   4.880   1.095   7.553  0.1016  0.4353  0.2498
 1276TIP3    H125463   4.905   1.072   7.463  0.3618  2.9348 -0.3715
 1276TIP3    H225464   4.821   1.024   7.580  0.5303 -0.7159 -1.6285
 1277TIP3   OH225465   2.592   2.564   1.083 -0.3282  0.1086  0.3159
 1277TIP3    H125466   2.528   2.529   1.144 -0.0176 -0.5798  0.2592
 1277TIP3    H225467   2.643   2.626   1.134  1.5306 -2.2223  1.4986
 1278TIP3   OH225468   3.167   6.710   0.885  0.1545  0.4595 -0.8104
 1278TIP3    H125469   3.194   6.623   0.913 -0.5874 -0.0392 -1.6076
 1278TIP3    H225470   3.221   6.728   0.809  1.6855  1.5340  0.4541
 1279TIP3   OH225471   2.670   5.848   2.033 -0.2344  0.8057  0.2173
 1279TIP3    H125472   2.683   5.934   2.074 -1.0649  0.4573  1.2717
 1279TIP3    H225473   2.675   5.786   2.105  0.3435 -0.0420 -0.5353
 1280TIP3   OH225474   2.177   2.909   7.229  0.2763 -0.4073 -0.1377
 1280TIP3    H125475   2.113   2.839   7.216 -1.5777  1.1886  0.0208
 1280TIP3    H225476   2.174   2.928   7.323  3.1160 -2.1598  0.4576
 1281TIP3   OH225477   5.230   3.312   6.861 -0.2022  0.2595  0.3367
 1281TIP3    H125478   5.231   3.312   6.957  1.4447  4.7679  0.5831
 1281TIP3    H225479   5.319   3.286   6.837  0.0447  1.2243  0.1831
 1282TIP3   OH225480   2.856   3.723   7.163  0.5215  0.6305 -0.1894
 1282TIP3    H125481   2.915   3.679   7.224 -0.0789 -1.7030 -1.1974
 1282TIP3    H225482   2.864   3.816   7.186  1.5993  0.0226  2.2640
 1283TIP3   OH225483   1.269   3.733   6.047  0.5671 -0.3413 -0.5482
 1283TIP3    H125484   1.213   3.659   6.024 -1.5016  0.9249  0.1543
 1283TIP3    H225485   1.218   3.811   6.023  2.8603  0.9155 -1.7347
 1284TIP3   OH225486   3.854   0.663   0.271  0.3584 -0.1543  0.2206
 1284TIP3    H125487   3.784   0.661   0.336 -0.1338  1.6698 -0.1998
 1284TIP3    H225488   3.810   0.687   0.189  1.5983  2.2678  0.1818
 1285TIP3   OH225489   5.317   3.254   0.173 -0.1999  0.0201 -0.8347
 1285TIP3    H125490   5.270   3.268   0.256  1.3071  1.4559 -0.1640
 1285TIP3    H225491   5.304   3.335   0.125  0.7218  0.0288 -1.0767
 1286TIP3   OH225492   0.517   2.155   7.277  0.1143  0.0970 -0.2539
 1286TIP3    H125493   0.450   2.087   7.282 -0.5898  0.7747 -0.4233
 1286TIP3    H225494   0.515   2.197   7.363  0.0174  0.4097 -0.4105
 1287TIP3   OH225495   5.928   5.669   7.623  0.2524 -0.3055  0.0013
 1287TIP3    H125496   5.857   5.717   7.579 -0.4558 -0.4841  0.9252
 1287TIP3    H225497   5.889   5.586   7.649  0.2485  0.3087  2.1165
 1288TIP3   OH225498   3.548   5.873   0.761 -0.1498  0.1964  0.0972
 1288TIP3    H125499   3.554   5.779   0.748 -0.5464 -0.0125  1.2787
 1288TIP3    H225500   3.567   5.911   0.675 -1.3446 -0.9943 -0.7300
 1289TIP3   OH225501   4.436   6.350   1.788 -0.4808 -0.4977 -0.2805
 1289TIP3    H125502   4.450   6.445   1.782 -0.7173 -0.4014  0.5183
 1289TIP3    H225503   4.348   6.337   1.753  0.1889 -0.6629 -2.0259
 1290TIP3   OH225504   4.875   1.505   7.593  0.5609  0.1582  0.2583
 1290TIP3    H125505   4.848   1.596   7.609  1.4511  0.6305 -0.7612
 1290TIP3    H225506   4.855   1.491   7.500  1.5583 -0.2631  0.0965
 1291TIP3   OH225507   6.869   2.615   5.691 -0.1053  0.2366  0.4261
 1291TIP3    H125508   6.849   2.697   5.736 -1.2405 -0.5914  1.4911
 1291TIP3    H225509   6.960   2.596   5.714  0.3976  1.4853 -0.3610
 1292TIP3   OH225510   2.853   6.020   0.522 -0.3235  0.6418 -0.1155
 1292TIP3    H125511   2.874   6.092   0.582  1.3098 -0.2262  0.3949
 1292TIP3    H225512   2.773   5.982   0.558  0.6285  0.1344  1.5379
 1293TIP3   OH225513   2.653   0.066   6.734  0.3834 -0.5746 -0.0885
 1293TIP3    H125514   2.664   0.049   6.827  0.8162  0.9464  0.1679
 1293TIP3    H225515   2.740   0.052   6.697  0.4937 -0.0553 -0.0462
 1294TIP3   OH225516   7.098   1.232   0.695 -0.2243 -0.3269  0.6692
 1294TIP3    H125517   7.095   1.167   0.626  0.8215  0.1203  0.1838
 1294TIP3    H225518   7.006   1.247   0.718 -0.5612 -0.7149 -0.3868
 1295TIP3   OH225519   1.116   0.703   6.257  0.0298 -0.4220 -0.0630
 1295TIP3    H125520   1.201   0.677   6.291  0.1113 -0.0030  0.0661
 1295TIP3    H225521   1.106   0.795   6.285  0.5178  0.2467 -1.9494
 1296TIP3   OH225522   1.548   3.055   0.165  0.1399 -0.6212 -0.1136
 1296TIP3    H125523   1.552   3.134   0.111 -0.4816 -0.9569 -0.6620
 1296TIP3    H225524   1.622   3.002   0.137  2.0625  0.7578  1.9054
 1297TIP3   OH225525   4.317   4.490   1.116  0.8644 -0.4489 -0.1592
 1297TIP3    H125526   4.336   4.583   1.127 -1.0582  0.2819 -2.1142
 1297TIP3    H225527   4.388   4.457   1.060  0.2581  0.5178 -1.5668
 1298TIP3   OH225528   0.068   2.956   6.623  0.1890  0.4590 -0.0883
 1298TIP3    H125529   0.028   2.881   6.579 -1.7025  1.6256 -0.4735
 1298TIP3    H225530   0.061   3.027   6.560  0.3152  1.3950  0.9238
 1299TIP3   OH225531   6.493   5.721   0.283 -0.1732 -0.7293 -0.1556
 1299TIP3    H125532   6.580   5.682   0.276 -0.1231 -0.9284  1.3141
 1299TIP3    H225533   6.510   5.813   0.305 -0.3438 -0.5263 -0.8187
 1300TIP3   OH225534   3.484   4.838   7.321 -0.5702  0.5468  0.2062
 1300TIP3    H125535   3.515   4.752   7.350 -0.0017  0.8280  0.4563
 1300TIP3    H225536   3.537   4.900   7.371  0.2272  1.0526 -1.1844
 1301TIP3   OH225537   2.495   5.063   2.345 -0.4188 -0.1736  0.1152
 1301TIP3    H125538   2.591   5.067   2.348 -0.1488 -2.7999 -1.4960
 1301TIP3    H225539   2.467   5.152   2.362  2.5081  1.6699 -3.1955
 1302TIP3   OH225540   6.560   0.890   1.656 -0.0432  0.3560  0.0810
 1302TIP3    H125541   6.654   0.875   1.669  0.1973 -0.6613 -2.2582
 1302TIP3    H225542   6.556   0.963   1.593 -0.7333 -0.4776 -0.8762
 1303TIP3   OH225543   1.619   0.521   6.475  0.7213  0.5721  0.1469
 1303TIP3    H125544   1.612   0.533   6.569 -1.4878 -1.7555  0.3803
 1303TIP3    H225545   1.628   0.427   6.462  0.9000  0.8118 -1.9904
 1304TIP3   OH225546   3.357   5.808   1.083 -0.4216  0.0253  0.2700
 1304TIP3    H125547   3.310   5.800   1.166 -0.1188 -0.7713  0.3739
 1304TIP3    H225548   3.289   5.815   1.017 -0.6642  0.6638  0.5774
 1305TIP3   OH225549   6.253   2.884   0.005 -0.6079  0.4699  0.3350
 1305TIP3    H125550   6.251   2.851  -0.085  0.4107  0.7046  0.2159
 1305TIP3    H225551   6.169   2.929   0.016 -0.1268  1.7925 -1.0332
 1306TIP3   OH225552   4.037   4.364   5.848 -0.1858  0.1553  0.2613
 1306TIP3    H125553   4.063   4.329   5.933  2.0696  2.1995  0.5250
 1306TIP3    H225554   3.963   4.422   5.866 -0.2875 -0.1020  0.6719
 1307TIP3   OH225555   2.000   4.162   8.132  0.1640  0.5272 -0.1681
 1307TIP3    H125556   2.029   4.084   8.179  0.3255  1.1286  0.7506
 1307TIP3    H225557   1.938   4.129   8.067  2.1341 -0.7063 -1.5755
 1308TIP3   OH225558   1.764   0.148   7.044  0.1406 -1.0668 -0.0207
 1308TIP3    H125559   1.752   0.075   7.105 -2.0434 -0.7070  0.0517
 1308TIP3    H225560   1.702   0.130   6.973  0.6730 -0.0568 -0.7611
 1309TIP3   OH225561   3.443   3.700   1.361 -0.2478  0.0035  0.6110
 1309TIP3    H125562   3.450   3.652   1.443 -0.6668 -1.5130 -0.1999
 1309TIP3    H225563   3.361   3.671   1.322 -0.4232  1.2547 -0.0157
 1310TIP3   OH225564   1.839   0.145   7.581 -0.3121 -0.5760  0.5258
 1310TIP3    H125565   1.837   0.229   7.627 -1.8890 -0.2875 -0.0139
 1310TIP3    H225566   1.792   0.085   7.639 -0.7538 -0.6386  0.1132
 1311TIP3   OH225567   0.060   4.024   0.936 -0.3874  0.2440 -0.5482
 1311TIP3    H125568   0.119   4.099   0.930  0.1964 -0.1512  0.1018
 1311TIP3    H225569   0.038   4.003   0.845  0.0610  0.7210 -0.7699
 1312TIP3   OH225570   6.806   0.548   0.086 -0.0201 -0.1030  0.0639
 1312TIP3    H125571   6.883   0.604   0.082 -0.6731  0.7580 -0.7460
 1312TIP3    H225572   6.837   0.462   0.057  0.3749  0.5428 -1.4904
 1313TIP3   OH225573   1.020   6.012   0.130 -0.1115  0.6682 -0.5135
 1313TIP3    H125574   1.097   6.055   0.091  0.4073  1.3855  1.2043
 1313TIP3    H225575   1.055   5.968   0.207 -1.2488 -0.0313 -0.3862
 1314TIP3   OH225576   3.729   2.020   7.830 -0.1717  0.6670 -0.3399
 1314TIP3    H125577   3.657   2.001   7.769 -0.9119  0.4440  0.5756
 1314TIP3    H225578   3.797   2.058   7.775 -1.0999  1.1525 -1.1978
 1315TIP3   OH225579   1.707   4.274   0.716  0.3523 -0.2828 -0.1631
 1315TIP3    H125580   1.625   4.286   0.763  0.2287 -0.2148 -0.3977
 1315TIP3    H225581   1.692   4.199   0.659  0.2760  0.0535 -0.5938
 1316TIP3   OH225582   2.391   6.290   0.124  0.2304  0.0030  0.1905
 1316TIP3    H125583   2.347   6.206   0.110  0.5471  0.0100 -0.9876
 1316TIP3    H225584   2.478   6.278   0.085  0.9927  0.2528  1.7488
 1317TIP3   OH225585   0.770   6.666   0.523 -0.0082 -0.0048  0.0041
 1317TIP3    H125586   0.735   6.728   0.460 -0.8953  0.3862  0.8596
 1317TIP3    H225587   0.865   6.671   0.511 -0.1164  0.7953 -0.6096
 1318TIP3   OH225588   7.044   4.232   6.544 -0.0863 -0.5070  0.8475
 1318TIP3    H125589   6.987   4.240   6.467  0.6175  1.0706  0.4677
 1318TIP3    H225590   7.132   4.245   6.511  0.2133  0.4543  1.9544
 1319TIP3   OH225591   3.554   6.715   0.436 -0.3025 -0.4250  0.4506
 1319TIP3    H125592   3.516   6.799   0.463 -0.4263 -0.8078  1.4772
 1319TIP3    H225593   3.581   6.673   0.517  0.7797 -0.9078 -0.1429
 1320TIP3   OH225594   0.234   0.164   0.469 -0.1951 -0.3197 -0.4162
 1320TIP3    H125595   0.172   0.179   0.398 -2.0496 -0.7543  1.0374
 1320TIP3    H225596   0.203   0.221   0.540  2.1176  0.7693 -0.1862
 1321TIP3   OH225597   3.349   5.819   7.213  0.5598  0.2246  0.2458
 1321TIP3    H125598   3.280   5.882   7.234 -0.8486 -0.7646 -1.1649
 1321TIP3    H225599   3.398   5.860   7.142 -0.6903 -0.4252 -1.0467
 1322TIP3   OH225600   6.910   3.492   6.691  0.2742 -0.1195  0.1126
 1322TIP3    H125601   6.841   3.435   6.724 -0.7164  0.4544 -0.9136
 1322TIP3    H225602   6.973   3.497   6.763 -0.7881 -0.5884  1.1033
 1323TIP3   OH225603   0.391   4.423   1.398  0.0654  1.0575  0.5121
 1323TIP3    H125604   0.383   4.328   1.409 -0.3005  1.0826  0.4721
 1323TIP3    H225605   0.420   4.455   1.483  0.6431  0.8588  0.3949
 1324TIP3   OH225606   6.360   1.246   1.002 -0.0551 -0.0041  0.2235
 1324TIP3    H125607   6.358   1.152   1.016  0.0503 -0.2730 -1.4174
 1324TIP3    H225608   6.419   1.259   0.927 -1.9950  1.1147 -1.2094
 1325TIP3   OH225609   3.520   1.937   6.768  0.5179 -0.5038 -0.1125
 1325TIP3    H125610   3.515   1.886   6.687  0.2785  0.0382 -0.4466
 1325TIP3    H225611   3.573   1.883   6.827  0.3017 -1.1183 -0.4659
 1326TIP3   OH225612   2.846   5.367   5.919  0.1684  0.0437  0.5230
 1326TIP3    H125613   2.862   5.277   5.890 -0.2021 -1.7711  5.1795
 1326TIP3    H225614   2.751   5.371   5.930  0.1739  1.0919  0.2247
 1327TIP3   OH225615   5.139   5.909   0.871  0.5573  0.4700  0.1321
 1327TIP3    H125616   5.069   5.862   0.826  0.6659  1.4919 -1.1767
 1327TIP3    H225617   5.184   5.958   0.802  1.4749  1.2030  1.1961
 1328TIP3   OH225618   6.463   2.377   7.730  0.3698 -0.0741  0.4041
 1328TIP3    H125619   6.381   2.358   7.686  0.5692 -0.9162  0.3649
 1328TIP3    H225620   6.438   2.427   7.808 -0.0729  0.5517 -0.1298
 1329TIP3   OH225621   3.437   0.383   7.409 -0.2252 -0.6599 -0.2867
 1329TIP3    H125622   3.533   0.377   7.408 -0.0845  0.4288  1.6625
 1329TIP3    H225623   3.419   0.476   7.400 -1.1062 -0.8384 -0.4407
 1330TIP3   OH225624   0.773   3.287   0.195 -0.6338  0.3794  0.8243
 1330TIP3    H125625   0.793   3.195   0.214 -0.6342  0.5062  1.4761
 1330TIP3    H225626   0.786   3.331   0.279 -2.3558  0.6854  0.9593
 1331TIP3   OH225627   4.542   3.541   6.377  0.0616  0.0131 -0.1805
 1331TIP3    H125628   4.495   3.494   6.445  1.3571 -0.5815  0.3302
 1331TIP3    H225629   4.554   3.477   6.307  1.3162 -0.2890  0.2769
 1332TIP3   OH225630   3.472   4.765   0.656 -0.3935  0.3149  0.0872
 1332TIP3    H125631   3.492   4.858   0.644  0.6824  0.1301  0.4046
 1332TIP3    H225632   3.449   4.757   0.748  1.4134 -0.0451  0.5482
 1333TIP3   OH225633   5.279   4.530   0.476 -0.3702  0.7954 -0.4982
 1333TIP3    H125634   5.233   4.604   0.436  1.3658  0.9737 -2.3149
 1333TIP3    H225635   5.366   4.564   0.496  0.7311 -0.9159 -2.1085
 1334TIP3   OH225636   3.223   3.895   7.473  0.2779  0.4822 -0.2477
 1334TIP3    H125637   3.167   3.889   7.550  1.2139 -1.5052  0.3461
 1334TIP3    H225638   3.295   3.952   7.501  0.7225 -0.3939  0.4647
 1335TIP3   OH225639   2.530   2.115   0.316  0.8376 -0.4507 -0.6602
 1335TIP3    H125640   2.453   2.172   0.321  0.4251 -1.0847  1.9263
 1335TIP3    H225641   2.605   2.173   0.329  0.6668 -0.0654 -1.3996
 1336TIP3   OH225642   3.222   4.349   1.047  0.1424  0.6284 -0.3915
 1336TIP3    H125643   3.148   4.406   1.064  0.0740  0.7608 -1.1073
 1336TIP3    H225644   3.223   4.339   0.952  0.2318 -0.4488 -0.2923
 1337TIP3   OH225645   0.221   6.265   5.670  0.1515 -0.2013 -0.1816
 1337TIP3    H125646   0.199   6.274   5.578 -0.3135 -0.3287 -0.0818
 1337TIP3    H225647   0.194   6.176   5.693  1.4516 -0.6412 -0.2463
 1338TIP3   OH225648   2.972   5.043   0.032  0.3150 -0.0362  0.3445
 1338TIP3    H125649   2.919   4.971   0.066 -1.2354 -0.0538 -1.8484
 1338TIP3    H225650   2.922   5.121   0.054 -1.0872 -0.0876 -2.2279
 1339TIP3   OH225651   6.926   6.091   1.526  0.6909  0.3951 -0.0095
 1339TIP3    H125652   6.914   5.998   1.542 -0.2728  0.8991  2.8762
 1339TIP3    H225653   6.848   6.119   1.480 -0.3859  0.2127  1.6211
 1340TIP3   OH225654   4.893   0.055   0.239  0.0127 -0.2840 -0.1478
 1340TIP3    H125655   4.845   0.137   0.237  0.2124 -0.0837  1.3967
 1340TIP3    H225656   4.831  -0.009   0.274  0.4541 -0.3015  0.6491
 1341TIP3   OH225657   0.570   7.038   1.984  0.6128  0.0265 -0.5459
 1341TIP3    H125658   0.533   7.066   2.068 -0.9282  1.7609 -1.7095
 1341TIP3    H225659   0.512   6.968   1.955 -0.3754  1.0816 -1.2308
 1342TIP3   OH225660   4.271   5.041   0.831  0.3305 -0.3411  0.1005
 1342TIP3    H125661   4.220   5.026   0.751  2.0769  0.5264 -1.2545
 1342TIP3    H225662   4.320   5.121   0.813  0.6737 -0.0523  2.1263
 1343TIP3   OH225663   3.651   5.110   1.986  0.5992  0.1499  0.5473
 1343TIP3    H125664   3.571   5.066   1.957  0.2808 -0.2392  1.9536
 1343TIP3    H225665   3.680   5.060   2.062  1.9048  0.5960  0.3693
 1344TIP3   OH225666   2.616   7.069   0.080  0.5765  0.0055  0.4759
 1344TIP3    H125667   2.684   7.132   0.102  0.2908  0.1982  0.8131
 1344TIP3    H225668   2.607   7.074  -0.015 -1.0122  2.1090  0.6705
 1345TIP3   OH225669   1.813   6.077   0.272  0.7093  0.1011 -0.2893
 1345TIP3    H125670   1.908   6.087   0.278  0.5687  1.2828  0.2469
 1345TIP3    H225671   1.778   6.154   0.317 -0.5309 -1.3438  1.3091
 1346TIP3   OH225672   0.202   4.270   2.071 -0.2767 -0.6497 -0.1560
 1346TIP3    H125673   0.267   4.200   2.066 -0.4034 -0.7203 -0.9481
 1346TIP3    H225674   0.118   4.224   2.083 -0.2344 -0.5852  0.3630
 1347TIP3   OH225675   1.677   5.184   7.618 -0.1892 -0.0787 -0.2175
 1347TIP3    H125676   1.691   5.114   7.683  1.1110 -0.7033 -1.1191
 1347TIP3    H225677   1.583   5.198   7.618 -0.2302  0.0053  1.8672
 1348TIP3   OH225678   5.573   1.280   7.730  0.4292  0.4068 -0.2546
 1348TIP3    H125679   5.547   1.365   7.764 -1.0199 -0.7548  1.7655
 1348TIP3    H225680   5.633   1.245   7.796  1.3859  0.0135 -1.2923
 1349TIP3   OH225681   5.264   0.624   7.437  0.2638  0.0342  0.6013
 1349TIP3    H125682   5.244   0.635   7.344  0.1258 -0.2061  0.6034
 1349TIP3    H225683   5.308   0.705   7.461  3.0160 -1.0169 -0.4024
 1350TIP3   OH225684   4.146   1.094   1.087  0.1891  0.4764  0.0922
 1350TIP3    H125685   4.140   1.006   1.049 -0.4519 -0.1427  1.5820
 1350TIP3    H225686   4.126   1.082   1.180 -0.2279  2.2470  0.2663
 1351TIP3   OH225687   5.982   2.362   7.036 -0.2166  0.3949  0.5303
 1351TIP3    H125688   5.959   2.308   7.112 -0.2039  0.4556  0.5772
 1351TIP3    H225689   5.920   2.335   6.968  0.1384 -0.0586  0.3873
 1352TIP3   OH225690   0.267   1.134   1.460 -0.3594  0.0858 -0.5430
 1352TIP3    H125691   0.204   1.065   1.438  0.3193  0.1689 -3.0638
 1352TIP3    H225692   0.267   1.136   1.556 -1.5152 -2.3568 -0.4006
 1353TIP3   OH225693   6.395   6.978   6.682  0.7048 -0.2396  0.4358
 1353TIP3    H125694   6.350   6.971   6.598  0.0079  0.4378  0.7381
 1353TIP3    H225695   6.485   6.998   6.659  0.5961 -0.4220 -0.1614
 1354TIP3   OH225696   1.526   1.644   7.730  0.2253  0.1318  0.0086
 1354TIP3    H125697   1.462   1.649   7.801 -0.1363 -0.4900 -0.2622
 1354TIP3    H225698   1.486   1.692   7.658 -0.3907 -1.0702 -0.4822
 1355TIP3   OH225699   1.436   0.229   0.277  0.2915 -0.3301 -0.3695
 1355TIP3    H125700   1.340   0.236   0.282  0.1940 -0.5280 -1.6720
 1355TIP3    H225701   1.467   0.317   0.302 -0.2825  0.0845 -1.0781
 1356TIP3   OH225702   0.993   2.479   2.214 -0.6131  0.3094  0.1010
 1356TIP3    H125703   0.913   2.427   2.219 -0.5881  0.3619  1.5932
 1356TIP3    H225704   1.063   2.414   2.212 -0.6523  0.2722 -0.0862
 1357TIP3   OH225705   4.455   3.310   1.780  0.5788  0.0959  0.6028
 1357TIP3    H125706   4.527   3.307   1.716  1.4006 -0.5930  1.5450
 1357TIP3    H225707   4.436   3.404   1.788  0.9416  0.2457 -0.1162
 1358TIP3   OH225708   3.806   1.982   2.095 -0.1538 -0.0582 -0.3432
 1358TIP3    H125709   3.850   2.013   2.174  0.9303 -2.8018  0.2445
 1358TIP3    H225710   3.871   1.992   2.025 -0.0358 -0.3914 -0.2821
 1359TIP3   OH225711   1.297   5.951   6.621  0.2728 -0.1057  0.1972
 1359TIP3    H125712   1.269   6.016   6.557  0.9934 -0.1631 -0.1824
 1359TIP3    H225713   1.216   5.908   6.649 -0.4301  1.9983  1.6425
 1360TIP3   OH225714   6.541   1.214   6.605 -0.4972  0.1730 -0.4636
 1360TIP3    H125715   6.546   1.298   6.651 -1.2088  0.6984 -1.3314
 1360TIP3    H225716   6.493   1.233   6.525 -1.2640 -1.2086 -0.3544
 1361TIP3   OH225717   0.541   2.588   1.535 -0.4970  0.4000 -0.3712
 1361TIP3    H125718   0.466   2.536   1.564 -0.2571 -0.7124 -1.6471
 1361TIP3    H225719   0.502   2.667   1.497 -0.9421  0.4797  0.2343
 1362TIP3   OH225720   0.579   4.426   1.197 -0.5295  0.0131 -0.3532
 1362TIP3    H125721   0.515   4.447   1.265 -0.6009 -1.2172 -0.0060
 1362TIP3    H225722   0.615   4.511   1.170 -0.1988  0.5239  1.5351
 1363TIP3   OH225723   5.564   5.422   5.444 -1.2021 -0.3495 -0.2722
 1363TIP3    H125724   5.573   5.510   5.408 -0.5181 -0.2026  0.2388
 1363TIP3    H225725   5.480   5.390   5.411 -1.2658  0.3434 -0.7790
 1364TIP3   OH225726   5.498   3.298   6.585  0.0574 -0.6265  0.5083
 1364TIP3    H125727   5.507   3.279   6.492  1.1654  1.6432  0.0591
 1364TIP3    H225728   5.466   3.388   6.588 -1.7096 -1.2487  2.3583
 1365TIP3   OH225729   1.651   7.059   1.267 -0.0014 -0.2964 -0.0689
 1365TIP3    H125730   1.605   6.991   1.217 -0.1030 -0.8182  0.7166
 1365TIP3    H225731   1.639   7.034   1.358  1.7356 -0.3862  0.1730
 1366TIP3   OH225732   5.068   6.724   0.627  0.0086 -0.5165 -0.0016
 1366TIP3    H125733   5.003   6.792   0.647  0.0549 -0.2539 -0.6973
 1366TIP3    H225734   5.094   6.742   0.537  0.6548 -0.9494  0.0918
 1367TIP3   OH225735   6.397   4.628   0.397  0.1374  0.2152  0.2382
 1367TIP3    H125736   6.450   4.569   0.345 -1.1990 -1.0166  0.2264
 1367TIP3    H225737   6.310   4.623   0.359 -1.0981 -1.3127  2.9622
 1368TIP3   OH225738   0.331   1.692   0.705  0.3374  0.0620  0.2274
 1368TIP3    H125739   0.256   1.706   0.763  1.0251  0.3069  1.0779
 1368TIP3    H225740   0.363   1.605   0.729  0.1679 -0.1544 -0.3230
 1369TIP3   OH225741   0.502   2.632   0.096  0.0107 -0.1193 -0.0672
 1369TIP3    H125742   0.519   2.721   0.128 -0.4730 -0.6866  1.9057
 1369TIP3    H225743   0.587   2.600   0.068  0.5665  0.2691  1.1106
 1370TIP3   OH225744   0.925   4.264   8.017  0.0867 -0.7062 -0.0618
 1370TIP3    H125745   0.892   4.175   8.001  0.0444 -0.8929  0.9839
 1370TIP3    H225746   0.848   4.312   8.048  0.2886 -0.5354  0.1789
 1371TIP3   OH225747   6.783   1.536   7.621 -0.0174 -0.9868 -0.1255
 1371TIP3    H125748   6.860   1.565   7.573 -0.4474  0.2393 -0.1032
 1371TIP3    H225749   6.737   1.617   7.645 -0.4258 -1.6087  1.3297
 1372TIP3   OH225750   0.751   6.410   0.839  0.4516  0.0569 -0.7202
 1372TIP3    H125751   0.707   6.490   0.867  0.8969 -0.2023  0.8187
 1372TIP3    H225752   0.844   6.432   0.839  0.5774 -0.4546 -0.2760
 1373TIP3   OH225753   1.181   4.709   1.434  0.1114 -0.2720  0.2653
 1373TIP3    H125754   1.178   4.619   1.402  0.4907 -0.6700  1.2981
 1373TIP3    H225755   1.125   4.709   1.512  0.6361  0.2226  0.6535
 1374TIP3   OH225756   2.411   0.856   7.309  0.3068 -0.4952 -0.1444
 1374TIP3    H125757   2.492   0.835   7.263  0.7622  0.2972  0.2766
 1374TIP3    H225758   2.341   0.821   7.252  0.9412 -1.3558 -0.4106
 1375TIP3   OH225759   0.273   0.623   1.694  1.0068 -0.2502  0.2584
 1375TIP3    H125760   0.362   0.626   1.658  1.4438 -2.1385  1.0788
 1375TIP3    H225761   0.240   0.537   1.669 -1.9090  1.5463 -2.8688
 1376TIP3   OH225762   0.500   4.050   0.890 -0.4362 -0.0654  0.2905
 1376TIP3    H125763   0.433   4.080   0.829 -1.7297  0.1972  1.7589
 1376TIP3    H225764   0.457   3.979   0.939 -0.2332  1.1046  2.2920
 1377TIP3   OH225765   0.946   1.856   8.085  0.1689  0.2342 -0.3998
 1377TIP3    H125766   0.891   1.929   8.116 -0.5161 -0.9711  1.3671
 1377TIP3    H225767   1.022   1.857   8.144  0.6254  0.0883 -0.9789
 1378TIP3   OH225768   1.948   6.908   5.895 -0.4008 -0.4382  0.2001
 1378TIP3    H125769   1.865   6.867   5.871 -0.3175  0.2779 -1.4242
 1378TIP3    H225770   1.951   6.988   5.843  0.9749 -0.0652  0.8059
 1379TIP3   OH225771   3.724   2.513   2.064 -0.2466 -0.1786  0.3254
 1379TIP3    H125772   3.752   2.454   2.133 -1.1244 -1.1419 -0.1067
 1379TIP3    H225773   3.803   2.561   2.039  1.1181 -2.8567 -0.9387
 1380TIP3   OH225774   0.520   5.978   6.206 -0.6159 -0.1607 -0.3439
 1380TIP3    H125775   0.482   5.896   6.176  1.8693 -1.5678  0.0923
 1380TIP3    H225776   0.445   6.033   6.226 -2.3705 -2.3052 -0.6463
 1381TIP3   OH225777   3.224   0.716   1.402  0.2139  0.6139  0.4940
 1381TIP3    H125778   3.283   0.730   1.328  0.5915 -0.8329  0.4817
 1381TIP3    H225779   3.268   0.650   1.456 -0.2923  1.2626  1.7563
 1382TIP3   OH225780   0.009   5.362   7.665  0.0147 -0.1085  0.1219
 1382TIP3    H125781  -0.074   5.410   7.668  0.2302  0.2564  0.2844
 1382TIP3    H225782   0.024   5.347   7.572  0.2451  0.6728  0.0220
 1383TIP3   OH225783   5.081   2.275   7.682  0.3664  0.0264 -0.1902
 1383TIP3    H125784   5.063   2.233   7.766 -0.1365  0.6937  0.0432
 1383TIP3    H225785   5.177   2.271   7.674  0.3738 -0.6098  0.1071
 1384TIP3   OH225786   5.579   2.533   7.852 -0.3017 -0.5758 -0.1578
 1384TIP3    H125787   5.484   2.523   7.857 -0.0570 -2.7970  1.4800
 1384TIP3    H225788   5.598   2.607   7.910 -1.0514  0.3839 -1.0903
 1385TIP3   OH225789   2.241   3.267   7.948  0.5939 -0.6312  0.6719
 1385TIP3    H125790   2.191   3.307   7.877 -1.0870 -0.8934  1.6601
 1385TIP3    H225791   2.212   3.175   7.949  2.0039 -1.1000  0.5027
 1386TIP3   OH225792   2.810   6.177   1.291 -0.5802  0.2146 -0.0929
 1386TIP3    H125793   2.859   6.096   1.277 -0.2248  0.3156  0.5319
 1386TIP3    H225794   2.847   6.214   1.371 -0.8000  0.9549 -0.3275
 1387TIP3   OH225795   3.424   2.980   6.744  0.5868  0.6921 -0.0047
 1387TIP3    H125796   3.423   3.069   6.781 -0.2486  0.0674  1.5886
 1387TIP3    H225797   3.425   2.923   6.821  1.6712 -0.6935 -1.0045
 1388TIP3   OH225798   1.435   4.649   0.257 -0.4469 -0.0024 -0.2445
 1388TIP3    H125799   1.470   4.711   0.320  0.2487 -0.9025  0.2857
 1388TIP3    H225800   1.403   4.576   0.310 -0.7089 -0.3596 -0.8839
 1389TIP3   OH225801   1.168   0.436   7.217  0.0246 -0.9122  0.3214
 1389TIP3    H125802   1.248   0.400   7.179  0.0021  0.0332 -0.6479
 1389TIP3    H225803   1.188   0.527   7.236 -0.4785 -0.9508  1.1121
 1390TIP3   OH225804   6.540   2.430   1.286 -0.1843  0.4178 -1.3406
 1390TIP3    H125805   6.551   2.339   1.311 -0.6718  0.4857 -0.8576
 1390TIP3    H225806   6.453   2.454   1.320  1.5178  2.2514  2.2834
 1391TIP3   OH225807   3.041   4.525   0.844 -0.4506  0.5324  0.4636
 1391TIP3    H125808   2.958   4.487   0.873 -0.0442  1.0601  2.4852
 1391TIP3    H225809   3.088   4.453   0.803 -1.5943  0.0478 -0.0199
 1392TIP3   OH225810   4.833   3.434   0.590  0.0226 -0.2143  0.0252
 1392TIP3    H125811   4.825   3.432   0.494 -1.6023  0.8794  0.0893
 1392TIP3    H225812   4.742   3.436   0.621  0.5305 -0.1386  1.5818
 1393TIP3   OH225813   3.841   0.085   1.017  0.0472  0.3117 -0.1098
 1393TIP3    H125814   3.921   0.041   0.989 -0.6548 -0.5031 -0.8715
 1393TIP3    H225815   3.820   0.045   1.102 -0.1030 -0.1994 -0.3849
 1394TIP3   OH225816   3.486   5.489   0.983 -0.2589  0.0178  0.8109
 1394TIP3    H125817   3.512   5.515   1.072 -0.8702  2.5611  0.3243
 1394TIP3    H225818   3.397   5.524   0.973  1.7501  5.2694 -2.6903
 1395TIP3   OH225819   7.006   7.079   6.502 -0.7614 -0.3055  0.1446
 1395TIP3    H125820   7.069   7.057   6.571  0.8561 -0.9382 -1.4606
 1395TIP3    H225821   6.986   6.996   6.460 -2.1290 -0.0013  0.1577
 1396TIP3   OH225822   0.701   3.874   7.753 -0.0571 -0.9681  0.2034
 1396TIP3    H125823   0.640   3.869   7.680  0.6481  0.4061 -0.5093
 1396TIP3    H225824   0.774   3.818   7.728  0.2956 -0.3063 -0.2746
 1397TIP3   OH225825   2.376   4.296   6.087  0.0950 -0.0178 -0.4795
 1397TIP3    H125826   2.442   4.241   6.043  1.0579  1.8227 -1.4685
 1397TIP3    H225827   2.362   4.253   6.171 -1.1965 -3.2402 -2.1431
 1398TIP3   OH225828   1.940   1.615   7.712  0.0120  0.5787  0.6315
 1398TIP3    H125829   2.024   1.610   7.759  0.8140 -0.1348 -0.7934
 1398TIP3    H225830   1.941   1.701   7.670  0.7322  0.0062 -0.5751
 1399TIP3   OH225831   5.710   2.358   7.193 -0.5486 -0.2353  0.1460
 1399TIP3    H125832   5.727   2.452   7.192 -0.9383 -0.1633  0.0972
 1399TIP3    H225833   5.790   2.319   7.227 -0.7402  0.1863  1.1169
 1400TIP3   OH225834   3.692   4.686   0.897  0.4745 -0.5789 -0.0609
 1400TIP3    H125835   3.622   4.679   0.962  0.8400  1.5418  0.6271
 1400TIP3    H225836   3.646   4.708   0.816  0.3363  1.7933  0.5927
 1401TIP3   OH225837   0.461   1.409   7.293  0.1466 -0.0908  0.0222
 1401TIP3    H125838   0.479   1.480   7.231 -0.7162 -0.5744 -0.8177
 1401TIP3    H225839   0.367   1.418   7.312  0.7972  1.5017  3.1461
 1402TIP3   OH225840   4.039   3.538   7.388 -0.0404  0.0292 -0.1057
 1402TIP3    H125841   4.094   3.538   7.309 -1.6960  0.1959 -1.3157
 1402TIP3    H225842   4.087   3.484   7.451  2.2216  1.3768 -0.5459
 1403TIP3   OH225843   1.572   4.454   6.343 -0.4325 -0.0451 -0.7860
 1403TIP3    H125844   1.498   4.475   6.401  0.8713 -0.6313  1.1841
 1403TIP3    H225845   1.599   4.366   6.368  1.4419  0.4535 -0.8738
 1404TIP3   OH225846   0.671   1.796   1.724 -0.1738 -0.0530  0.5673
 1404TIP3    H125847   0.734   1.789   1.796 -0.1039  0.7132  0.5922
 1404TIP3    H225848   0.586   1.781   1.766 -0.5647  3.9651  1.6438
 1405TIP3   OH225849   5.761   3.038   7.068 -0.1162  1.1886  0.8284
 1405TIP3    H125850   5.844   3.039   7.020 -0.6965 -0.2308 -0.2904
 1405TIP3    H225851   5.781   3.078   7.152  1.9910 -0.1609  1.0307
 1406TIP3   OH225852   0.402   4.026   0.629  0.0730  0.4594 -0.6219
 1406TIP3    H125853   0.309   4.005   0.638 -0.4717  1.6590 -2.7128
 1406TIP3    H225854   0.442   3.943   0.600 -0.6339  0.2842 -1.1318
 1407TIP3   OH225855   0.806   0.400   7.534 -0.4372 -0.1951 -0.0742
 1407TIP3    H125856   0.781   0.492   7.544 -0.0032  0.2503 -2.4627
 1407TIP3    H225857   0.763   0.372   7.454  2.8790 -0.7283 -1.8637
 1408TIP3   OH225858   3.622   2.629   8.016  0.0885  0.3300 -0.0715
 1408TIP3    H125859   3.675   2.652   7.940 -0.7049  0.1718 -0.6907
 1408TIP3    H225860   3.644   2.538   8.035 -0.5339  0.0077 -0.8310
 1409TIP3   OH225861   0.657   2.588   0.371 -0.0002 -0.1473 -0.1982
 1409TIP3    H125862   0.584   2.618   0.318  1.4504  0.7813 -1.7508
 1409TIP3    H225863   0.664   2.653   0.441 -1.1019 -0.6655  0.4246
 1410TIP3   OH225864   2.383   5.789   0.772 -0.2136 -0.2629 -0.1158
 1410TIP3    H125865   2.430   5.782   0.855  0.7788  0.1055 -0.6259
 1410TIP3    H225866   2.291   5.791   0.796  0.0374 -0.7221  0.9374
 1411TIP3   OH225867   3.120   6.433   6.841  0.1760 -0.3594  0.5563
 1411TIP3    H125868   3.150   6.473   6.923  1.2358  3.0946 -1.2979
 1411TIP3    H225869   3.199   6.396   6.802 -0.0670 -0.8152  0.4903
 1412TIP3   OH225870   3.562   1.287   7.830 -0.4709  0.1296  0.3686
 1412TIP3    H125871   3.611   1.330   7.900 -0.3357 -1.7818  1.5264
 1412TIP3    H225872   3.470   1.298   7.854 -0.4628  0.3143  0.3158
 1413TIP3   OH225873   5.577   0.750   1.329 -0.4597  0.0398  0.3364
 1413TIP3    H125874   5.541   0.796   1.405  0.6148 -0.8731  1.4516
 1413TIP3    H225875   5.668   0.733   1.352 -0.5619 -1.7762 -0.4171
 1414TIP3   OH225876   1.410   5.269   7.540  0.4782 -0.1401 -0.1897
 1414TIP3    H125877   1.358   5.272   7.459  0.8379 -0.0254 -0.4199
 1414TIP3    H225878   1.385   5.349   7.587 -0.2203 -0.5375  0.1200
 1415TIP3   OH225879   1.343   0.857   1.225 -0.2401 -0.1320  0.1453
 1415TIP3    H125880   1.386   0.772   1.216 -1.5867 -0.8974  0.5104
 1415TIP3    H225881   1.361   0.883   1.316 -1.6190 -1.1165  0.7457
 1416TIP3   OH225882   4.059   3.319   7.722  0.0275 -0.2728  0.4867
 1416TIP3    H125883   4.000   3.392   7.743  0.3180 -0.2898  1.4167
 1416TIP3    H225884   4.144   3.361   7.705 -0.1369 -0.2852 -0.4052
 1417TIP3   OH225885   6.775   6.422   7.884 -0.4534  0.7666  0.0450
 1417TIP3    H125886   6.774   6.501   7.938 -0.1273  2.0742 -1.7780
 1417TIP3    H225887   6.867   6.399   7.876 -0.5693 -0.0466  0.8720
 1418TIP3   OH225888   6.578   6.397   0.807 -0.4411 -0.1910 -0.1013
 1418TIP3    H125889   6.552   6.355   0.889  1.5584  0.6535  1.0440
 1418TIP3    H225890   6.667   6.366   0.791 -0.1256  1.0629 -0.9445
 1419TIP3   OH225891   2.113   4.942   6.039  0.1935 -0.6028 -0.9055
 1419TIP3    H125892   2.100   5.035   6.027  0.6740 -0.4365 -0.2355
 1419TIP3    H225893   2.025   4.904   6.034 -0.1584  0.0438  0.0222
 1420TIP3   OH225894   5.826   7.034   7.759 -0.0345  0.4630 -0.1514
 1420TIP3    H125895   5.865   7.053   7.845 -1.7600  1.1151  0.5325
 1420TIP3    H225896   5.890   6.977   7.716  0.6360 -0.3266  1.7786
 1421TIP3   OH225897   6.123   0.434   2.040  0.0962  0.9048 -0.0267
 1421TIP3    H125898   6.218   0.426   2.045  0.1267  0.5886 -0.9758
 1421TIP3    H225899   6.091   0.391   2.119  0.6351 -1.2935 -0.9371
 1422TIP3   OH225900   4.793   4.284   7.574 -0.2827  0.1192 -0.2517
 1422TIP3    H125901   4.779   4.252   7.663 -0.6129 -0.4840 -0.5176
 1422TIP3    H225902   4.852   4.219   7.535 -0.0160  0.4645 -0.4232
 1423TIP3   OH225903   5.713   4.192   1.078  0.2130  0.2336  0.1928
 1423TIP3    H125904   5.675   4.144   1.151 -1.5938  1.0389 -0.1628
 1423TIP3    H225905   5.691   4.140   1.001 -0.3297  0.7772 -0.0306
 1424TIP3   OH225906   2.533   0.237   7.867  0.0768  0.3172  0.0668
 1424TIP3    H125907   2.459   0.296   7.878 -1.4566 -1.5813  0.4349
 1424TIP3    H225908   2.531   0.213   7.775 -0.6860 -0.8385  0.3644
 1425TIP3   OH225909   5.424   2.578   6.079  0.2393  0.0113  0.4505
 1425TIP3    H125910   5.351   2.527   6.046  1.2373 -0.4704 -1.1461
 1425TIP3    H225911   5.396   2.669   6.068  0.0965 -0.1577 -0.7336
 1426TIP3   OH225912   0.383   3.694   1.563 -0.5815 -0.0603  0.4730
 1426TIP3    H125913   0.379   3.766   1.627 -1.1312 -0.3057  0.7152
 1426TIP3    H225914   0.358   3.616   1.612  0.4513 -0.5074  0.3206
 1427TIP3   OH225915   3.499   5.253   1.293  0.6330 -0.5966 -0.3684
 1427TIP3    H125916   3.518   5.335   1.249  0.2798 -1.2120 -1.7490
 1427TIP3    H225917   3.508   5.272   1.386 -1.3107  1.5076 -0.5220
 1428TIP3   OH225918   1.343   0.060   7.414 -0.1812 -0.0614 -0.3952
 1428TIP3    H125919   1.424   0.111   7.408  0.0559 -0.1048  1.7818
 1428TIP3    H225920   1.273   0.126   7.410  0.1120  0.4631  1.8891
 1429TIP3   OH225921   5.354   6.976   7.813 -0.0186 -0.3281  0.1790
 1429TIP3    H125922   5.417   7.025   7.760 -1.5443  1.0294 -0.4793
 1429TIP3    H225923   5.364   7.012   7.901  0.1287 -0.1227  0.0804
 1430TIP3   OH225924   6.296   5.412   6.567  0.1873 -0.1165 -0.1017
 1430TIP3    H125925   6.202   5.397   6.557  0.4244 -0.6901 -1.8116
 1430TIP3    H225926   6.337   5.332   6.533  1.3178  1.0407 -1.6619
 1431TIP3   OH225927   4.914   4.311   0.012  0.1899 -0.1275  0.2950
 1431TIP3    H125928   4.851   4.238   0.014 -0.8204  0.6799 -0.7173
 1431TIP3    H225929   4.865   4.383  -0.027  1.3191  0.9693  0.8479
 1432TIP3   OH225930   3.798   2.082   7.344  0.3432 -0.2570  0.6523
 1432TIP3    H125931   3.827   2.167   7.311 -0.7310  0.9146  2.5497
 1432TIP3    H225932   3.797   2.092   7.439 -1.5246 -1.8018  0.8667
 1433TIP3   OH225933   1.672   5.688   0.415  0.3581 -0.5193 -0.2283
 1433TIP3    H125934   1.728   5.745   0.363  1.6074 -0.9477  0.5887
 1433TIP3    H225935   1.681   5.720   0.505 -0.8100 -0.5322 -0.0892
 1434TIP3   OH225936   4.211   1.236   7.691  0.1747 -0.2285 -0.1536
 1434TIP3    H125937   4.159   1.291   7.632 -0.9813 -1.9391 -0.7881
 1434TIP3    H225938   4.243   1.297   7.758 -1.7271  1.0925 -0.3584
 1435TIP3   OH225939   0.052   3.284   7.077 -0.1158 -0.4533  0.7711
 1435TIP3    H125940   0.118   3.256   7.141 -0.9157 -1.7589  1.0697
 1435TIP3    H225941   0.063   3.224   7.004 -0.5323 -0.2355  0.5306
 1436TIP3   OH225942   0.510   3.130   2.193 -0.4635  0.0765 -0.4943
 1436TIP3    H125943   0.430   3.166   2.230 -0.5792  0.6903 -1.3074
 1436TIP3    H225944   0.481   3.052   2.145 -0.8674  1.2004 -2.1781
 1437TIP3   OH225945   2.832   0.486   0.633 -0.4166  0.0263 -0.4856
 1437TIP3    H125946   2.918   0.501   0.672 -0.5921  1.5104 -0.6038
 1437TIP3    H225947   2.771   0.525   0.695 -0.8304  0.9187 -1.4310
 1438TIP3   OH225948   6.827   3.379   0.938  0.3026  0.3945 -0.4756
 1438TIP3    H125949   6.915   3.343   0.924  0.5671  0.6193  0.5180
 1438TIP3    H225950   6.843   3.466   0.973 -0.3358  1.0171 -1.6744
 1439TIP3   OH225951   4.734   6.041   7.776 -0.5548 -0.0445  0.7519
 1439TIP3    H125952   4.687   6.024   7.858  1.2425 -1.3813  1.5863
 1439TIP3    H225953   4.792   6.114   7.796 -0.4298 -0.0832  0.5313
 1440TIP3   OH225954   0.943   6.640   6.790  0.1584 -0.0992  0.0033
 1440TIP3    H125955   0.925   6.666   6.700  1.1481 -1.0340 -0.4905
 1440TIP3    H225956   1.010   6.701   6.821  1.3717 -1.0375 -0.6456
 1441TIP3   OH225957   0.972   2.826   1.121 -0.0267 -0.0847 -0.1429
 1441TIP3    H125958   0.963   2.822   1.217 -0.6242  1.4758 -0.0940
 1441TIP3    H225959   1.049   2.882   1.107 -0.2778  0.1580 -0.5727
 1442TIP3   OH225960   2.024   1.098   5.848 -0.2271 -0.0186 -0.1609
 1442TIP3    H125961   2.100   1.040   5.858  1.2064  1.4272 -2.0203
 1442TIP3    H225962   2.050   1.180   5.891  0.3346  1.3162 -2.8396
 1443TIP3   OH225963   5.587   6.804   7.375 -0.4342  0.1182 -0.3287
 1443TIP3    H125964   5.564   6.879   7.320 -1.2561  1.7780  2.1044
 1443TIP3    H225965   5.504   6.775   7.412  0.3358  0.9594  2.2472
 1444TIP3   OH225966   3.029   3.598   1.403  0.2215  0.7162 -0.0601
 1444TIP3    H125967   2.962   3.660   1.432  0.3124  1.2920 -1.0187
 1444TIP3    H225968   2.984   3.541   1.341  0.0679 -0.3884  1.0282
 1445TIP3   OH225969   6.046   3.333   7.599 -0.1708  0.7016 -0.3064
 1445TIP3    H125970   6.065   3.379   7.681  0.7650 -0.5012  0.1827
 1445TIP3    H225971   6.112   3.366   7.538 -0.9118  1.6500 -0.6144
 1446TIP3   OH225972   0.255   2.686   6.553  0.1172 -0.2949 -0.3361
 1446TIP3    H125973   0.271   2.657   6.464 -0.4839  1.2454 -0.9928
 1446TIP3    H225974   0.301   2.770   6.560  1.7144 -1.2319  1.4360
 1447TIP3   OH225975   5.528   0.589   0.711 -0.0097 -0.6000 -0.3254
 1447TIP3    H125976   5.519   0.563   0.619 -0.0891  0.2113 -0.5518
 1447TIP3    H225977   5.550   0.508   0.756 -0.8558 -1.1814 -0.9227
 1448TIP3   OH225978   3.451   0.389   7.096 -0.1968  0.0287  0.0161
 1448TIP3    H125979   3.430   0.297   7.112 -2.3071  0.1127 -1.8459
 1448TIP3    H225980   3.490   0.419   7.178  0.8476 -2.5761  0.5748
 1449TIP3   OH225981   0.433   4.174   1.138 -0.3315 -0.2010 -0.1152
 1449TIP3    H125982   0.477   4.149   1.057 -0.0896  0.2433 -0.1243
 1449TIP3    H225983   0.487   4.244   1.174 -0.1913 -0.6902  0.6609
 1450TIP3   OH225984   0.921   3.882   1.150 -0.3029  0.0287 -0.2908
 1450TIP3    H125985   0.871   3.872   1.069  0.8125 -1.7996 -0.8108
 1450TIP3    H225986   1.012   3.869   1.124  0.4601  2.5514  0.7580
 1451TIP3   OH225987   4.382   3.042   7.819 -0.5759 -0.0680 -0.2261
 1451TIP3    H125988   4.352   2.995   7.897 -1.1448  1.0526  0.2501
 1451TIP3    H225989   4.467   3.078   7.843 -0.5691 -0.0580 -0.2644
 1452TIP3   OH225990   6.955   2.547   6.716 -0.5891  0.7386 -0.0229
 1452TIP3    H125991   6.896   2.617   6.689  0.3932  1.4985 -0.2160
 1452TIP3    H225992   7.036   2.591   6.739  0.8278 -0.4932 -2.3059
 1453TIP3   OH225993   6.259   6.356   0.920 -0.4714  0.1508  0.3026
 1453TIP3    H125994   6.182   6.324   0.967  1.6954 -1.9139  2.8000
 1453TIP3    H225995   6.262   6.302   0.841 -1.0609 -0.4569  0.6729
 1454TIP3   OH225996   5.048   5.486   0.991  0.2795 -0.3697 -0.2131
 1454TIP3    H125997   5.036   5.415   0.928 -0.3347 -0.8988  0.4870
 1454TIP3    H225998   5.027   5.448   1.075  0.4574  0.5090  0.2482
 1455TIP3   OH225999   1.359   5.168   6.311  0.4842  0.6383 -0.3091
 1455TIP3    H126000   1.394   5.091   6.265 -0.4467  1.9446 -3.4719
 1455TIP3    H226001   1.265   5.165   6.295  0.1956  1.4858  1.0904
 1456TIP3   OH226002   0.721   4.929   0.899 -0.2635  0.0998 -0.3434
 1456TIP3    H126003   0.802   4.877   0.903  1.3576  2.5362  1.1972
 1456TIP3    H226004   0.698   4.945   0.990 -0.9862  1.6392 -0.7699
 1457TIP3   OH226005   6.306   5.556   0.699  0.1475 -0.3438 -0.2203
 1457TIP3    H126006   6.224   5.564   0.650 -0.7525 -1.4319  1.0189
 1457TIP3    H226007   6.325   5.645   0.729 -1.0108 -0.1909  0.1176
 1458TIP3   OH226008   2.648   4.063   7.593 -0.3078  0.0347  0.5574
 1458TIP3    H126009   2.598   4.055   7.512  3.0945  0.0171 -1.7451
 1458TIP3    H226010   2.663   4.157   7.604 -0.7353  0.0372  1.1976
 1459TIP3   OH226011   1.333   1.878   7.179  0.0298  0.3561  0.6520
 1459TIP3    H126012   1.359   1.941   7.112  2.3240 -0.1992  0.9671
 1459TIP3    H226013   1.254   1.836   7.143 -0.2021  1.7543 -0.5772
 1460TIP3   OH226014   6.812   6.547   6.668 -0.3214 -0.5559  0.0955
 1460TIP3    H126015   6.717   6.560   6.676 -0.3959  2.0073 -2.9483
 1460TIP3    H226016   6.849   6.592   6.744 -1.4918 -0.3324  0.5573
 1461TIP3   OH226017   1.168   0.052   0.637  0.4429  0.0692 -0.1702
 1461TIP3    H126018   1.160  -0.030   0.686  1.2126  0.5196  0.7492
 1461TIP3    H226019   1.110   0.041   0.562  0.4884 -1.2925 -0.0322
 1462TIP3   OH226020   0.335   5.774   7.004  1.0324 -0.0904  0.2728
 1462TIP3    H126021   0.415   5.759   6.955  0.5118 -2.9299  0.1491
 1462TIP3    H226022   0.297   5.687   7.016 -2.1809  1.1475  0.0937
 1463TIP3   OH226023   4.785   4.817   0.601 -0.0641  0.7166  0.3788
 1463TIP3    H126024   4.787   4.877   0.526  1.7551  1.4213  0.9503
 1463TIP3    H226025   4.813   4.733   0.564  0.1459  0.8950  0.1280
 1464TIP3   OH226026   5.680   0.012   6.626  0.0681 -0.0185 -0.0031
 1464TIP3    H126027   5.698  -0.045   6.551  1.3281  0.7749 -0.3450
 1464TIP3    H226028   5.750  -0.008   6.688  0.9967  1.6582 -0.4485
 1465TIP3   OH226029   0.010   0.407   1.340 -0.0816 -0.5244 -0.4832
 1465TIP3    H126030   0.012   0.501   1.357  0.4625 -0.4927 -0.6939
 1465TIP3    H226031   0.100   0.378   1.353 -0.5857 -1.3666  1.3954
 1466TIP3   OH226032   3.597   1.163   1.097  0.2824  0.5122 -0.3751
 1466TIP3    H126033   3.611   1.123   1.183 -0.9651  0.1921 -0.2929
 1466TIP3    H226034   3.682   1.159   1.054  0.5154 -1.0200  0.1623
 1467TIP3   OH226035   4.346   5.812   7.853  0.3369  0.2031  0.1884
 1467TIP3    H126036   4.273   5.750   7.849  0.0541  0.5483 -0.1227
 1467TIP3    H226037   4.420   5.760   7.885  0.4274 -0.6186 -1.2547
 1468TIP3   OH226038   0.136   1.167   0.885  0.1222 -0.0714 -0.0798
 1468TIP3    H126039   0.085   1.199   0.811 -0.9986 -0.1303  0.6421
 1468TIP3    H226040   0.212   1.125   0.845 -0.5975 -0.3454 -1.2124
 1469TIP3   OH226041   0.662   2.460   6.766 -0.0891 -0.6279  0.0446
 1469TIP3    H126042   0.683   2.389   6.705  1.4701  0.0995 -0.3156
 1469TIP3    H226043   0.567   2.467   6.761 -0.0338 -0.5537 -2.3876
 1470TIP3   OH226044   4.780   4.154   1.340  0.4403 -0.4276 -0.2013
 1470TIP3    H126045   4.764   4.215   1.267 -0.2057  1.1870  1.2057
 1470TIP3    H226046   4.845   4.092   1.306 -0.8548 -0.6018 -2.5892
 1471TIP3   OH226047   4.487   2.905   0.269 -0.4014  0.2053 -0.5492
 1471TIP3    H126048   4.439   2.977   0.310 -0.1116 -0.0344  0.2282
 1471TIP3    H226049   4.547   2.874   0.337  0.6158  0.2741 -1.3884
 1472TIP3   OH226050   5.305   1.817   7.587  0.7189  0.6418  0.1313
 1472TIP3    H126051   5.246   1.782   7.653  1.0034  0.0928  0.0985
 1472TIP3    H226052   5.329   1.903   7.619 -1.4437  1.6221 -0.6718
 1473TIP3   OH226053   1.999   2.922   1.788 -0.0043  0.0369 -0.1579
 1473TIP3    H126054   2.003   2.889   1.698 -1.3560 -1.6207  0.3238
 1473TIP3    H226055   2.025   3.014   1.781 -2.4677  0.7022 -2.6811
 1474TIP3   OH226056   0.742   0.946   1.167  0.1197  0.0075 -0.5086
 1474TIP3    H126057   0.808   1.005   1.204  0.6543 -1.4667  1.0326
 1474TIP3    H226058   0.778   0.919   1.083 -0.2595  2.0258 -1.3683
 1475TIP3   OH226059   2.210   4.292   1.479 -0.3983 -0.4345  0.4049
 1475TIP3    H126060   2.272   4.231   1.437  0.5517 -0.0292  1.1709
 1475TIP3    H226061   2.134   4.292   1.421  0.7537 -0.0750 -1.2051
 1476TIP3   OH226062   2.596   2.345   6.073  0.3020  0.0505  0.5467
 1476TIP3    H126063   2.653   2.296   6.014 -0.1010  0.8578 -0.5333
 1476TIP3    H226064   2.511   2.346   6.029  0.1817  1.3056  0.7812
 1477TIP3   OH226065   4.310   1.093   0.273 -0.3188  0.5742 -0.2643
 1477TIP3    H126066   4.314   1.021   0.209 -0.8576  0.9956 -0.7944
 1477TIP3    H226067   4.222   1.086   0.310  0.2803 -0.1916  1.0859
 1478TIP3   OH226068   0.334   5.175   0.199  0.3121  0.5944 -0.1933
 1478TIP3    H126069   0.356   5.119   0.125 -1.8634  0.7898 -1.0590
 1478TIP3    H226070   0.368   5.129   0.275  1.2349 -0.3758 -1.1593
 1479TIP3   OH226071   1.373   1.315   6.873  0.6777 -0.1883  0.2629
 1479TIP3    H126072   1.364   1.406   6.902 -1.3264 -0.6799  1.3333
 1479TIP3    H226073   1.406   1.269   6.950 -1.2701 -0.8851  0.7122
 1480TIP3   OH226074   6.815   1.796   1.436  0.4364 -0.6792  0.2314
 1480TIP3    H126075   6.905   1.829   1.437  0.6146 -1.1478  1.8522
 1480TIP3    H226076   6.818   1.720   1.377  1.1748 -0.8638  0.4982
 1481TIP3   OH226077   3.768   1.257   7.006  0.1041 -0.3532 -0.0510
 1481TIP3    H126078   3.835   1.189   7.007 -0.3857 -0.8454  0.2868
 1481TIP3    H226079   3.694   1.218   6.959  0.2132  0.3503 -0.8323
 1482TIP3   OH226080   4.474   2.034   6.937  0.3062 -0.0962  0.2951
 1482TIP3    H126081   4.412   2.019   7.008  1.6725 -2.2238  1.1583
 1482TIP3    H226082   4.539   2.093   6.974  0.0774  0.2054  0.2151
 1483TIP3   OH226083   2.692   3.086   6.616 -0.2123  0.3742 -0.5115
 1483TIP3    H126084   2.648   3.007   6.649 -1.0514  0.6993 -0.8143
 1483TIP3    H226085   2.664   3.156   6.676 -1.2277  0.8447 -1.4922
 1484TIP3   OH226086   5.651   1.820   0.431  0.2653 -0.0548 -0.1691
 1484TIP3    H126087   5.691   1.889   0.377  1.2314  1.0025  1.7665
 1484TIP3    H226088   5.563   1.852   0.451 -0.0412 -0.3814 -0.9862
 1485TIP3   OH226089   1.562   5.222   0.049  0.0528 -0.1055 -0.1799
 1485TIP3    H126090   1.589   5.132   0.031 -1.3534 -0.8108  0.9360
 1485TIP3    H226091   1.520   5.252  -0.031 -0.5516 -0.8971 -0.1678
 1486TIP3   OH226092   3.535   1.021   0.817  0.1363 -0.0686  0.3732
 1486TIP3    H126093   3.620   1.038   0.857  0.7602  0.5798 -1.1809
 1486TIP3    H226094   3.478   1.090   0.851  1.2289  1.8657 -1.5356
 1487TIP3   OH226095   4.616   2.634   1.961 -0.1417  0.5403  0.4033
 1487TIP3    H126096   4.686   2.679   1.915 -0.5010  1.4252  0.7020
 1487TIP3    H226097   4.660   2.565   2.011  0.7141  2.0213  1.7617
 1488TIP3   OH226098   3.305   6.980   1.251 -0.0553  0.1431 -0.4303
 1488TIP3    H126099   3.400   6.974   1.246  0.0038  0.1554  0.5059
 1488TIP3    H226100   3.278   7.009   1.164  0.8647  1.0692 -0.4217
 1489TIP3   OH226101   2.553   3.289   6.763 -0.4552  0.0407  0.1914
 1489TIP3    H126102   2.570   3.360   6.702 -0.2965  1.2387  1.5810
 1489TIP3    H226103   2.460   3.296   6.784 -0.8197 -1.1812 -0.8606
 1490TIP3   OH226104   6.304   5.886   6.763  0.0793 -0.3723  0.5166
 1490TIP3    H126105   6.258   5.803   6.768 -1.2705  0.2284 -0.9554
 1490TIP3    H226106   6.375   5.871   6.701 -0.0428 -0.4822  0.4039
 1491TIP3   OH226107   3.510   4.081   0.975 -0.3108 -0.0553 -0.3587
 1491TIP3    H126108   3.570   4.135   0.924  2.0188 -1.5368  0.6062
 1491TIP3    H226109   3.549   4.078   1.063 -1.8502 -1.0398  0.3363
 1492TIP3   OH226110   4.881   2.853   1.544 -0.0637  0.0325  0.2933
 1492TIP3    H126111   4.826   2.892   1.612  0.0361  0.8119 -0.0535
 1492TIP3    H226112   4.961   2.827   1.590 -0.1880  0.1240  0.5640
 1493TIP3   OH226113   1.834   6.335   7.502  0.0616 -0.3295 -0.2706
 1493TIP3    H126114   1.746   6.354   7.472  0.0831 -1.1577 -0.8830
 1493TIP3    H226115   1.889   6.401   7.458  0.0474 -1.2891 -1.7933
 1494TIP3   OH226116   2.884   4.366   8.043 -0.4374 -0.7400 -0.1466
 1494TIP3    H126117   2.907   4.416   8.121 -0.1932  0.4497 -0.9507
 1494TIP3    H226118   2.878   4.432   7.973 -1.3026 -1.6842 -0.9978
 1495TIP3   OH226119   6.121   5.316   8.049 -0.1006  0.6729  0.9105
 1495TIP3    H126120   6.172   5.396   8.039  0.1101  0.7426  2.3144
 1495TIP3    H226121   6.037   5.336   8.008 -0.2336  1.8050  1.6916
 1496TIP3   OH226122   5.004   1.863   6.457  0.0808  0.1615 -0.3371
 1496TIP3    H126123   4.962   1.799   6.515  0.3282  0.8332  0.5880
 1496TIP3    H226124   4.932   1.914   6.422 -0.0275  0.0781 -0.2375
 1497TIP3   OH226125   0.118   0.531   7.680  0.4762  0.3972 -0.0577
 1497TIP3    H126126   0.129   0.437   7.692  0.4322  0.3528 -0.3757
 1497TIP3    H226127   0.206   0.563   7.658  0.4342  0.3901 -0.2330
 1498TIP3   OH226128   1.083   5.116   1.479 -0.3722  0.6187 -0.2818
 1498TIP3    H126129   1.145   5.156   1.539 -1.4253 -2.5302  3.2679
 1498TIP3    H226130   1.137   5.067   1.417  0.8931 -1.4709  2.2747
 1499TIP3   OH226131   6.764   6.969   7.451  0.1226 -0.0248  0.1814
 1499TIP3    H126132   6.702   6.966   7.524 -0.1738  0.2390 -0.0536
 1499TIP3    H226133   6.733   6.902   7.390 -1.8003  2.1214 -1.3776
 1500TIP3   OH226134   0.136   0.247   6.487  0.4205 -0.1933  0.3080
 1500TIP3    H126135   0.193   0.271   6.414  0.6486 -0.4103  0.4149
 1500TIP3    H226136   0.061   0.306   6.479  0.8148  0.3244  0.3625
 1501TIP3   OH226137   1.204   6.800   6.764  0.8805 -0.5319 -0.3925
 1501TIP3    H126138   1.188   6.893   6.784  0.2748 -0.7188  0.0215
 1501TIP3    H226139   1.260   6.802   6.687 -0.0262  0.1902 -1.0684
 1502TIP3   OH226140   4.002   0.491   7.396 -0.3003  0.2124 -0.8049
 1502TIP3    H126141   3.991   0.396   7.395 -0.9915  0.2929 -1.4460
 1502TIP3    H226142   4.055   0.509   7.319  2.9242  0.0291  1.1767
 1503TIP3   OH226143   2.506   6.651   7.973  0.3083  0.2770  0.3867
 1503TIP3    H126144   2.541   6.621   8.057 -0.4649  1.0691  1.0042
 1503TIP3    H226145   2.444   6.720   7.995 -2.6426 -1.8397 -0.5157
 1504TIP3   OH226146   6.692   4.247   7.606 -0.4272 -0.1913  0.2662
 1504TIP3    H126147   6.723   4.329   7.645  0.5977 -0.1205 -0.6440
 1504TIP3    H226148   6.729   4.179   7.661  1.4418 -0.1074 -0.7928
 1505TIP3   OH226149   5.044   5.155   6.934 -0.2085 -0.5396 -0.3376
 1505TIP3    H126150   5.038   5.089   7.003 -0.8721 -1.2425 -1.0397
 1505TIP3    H226151   4.963   5.205   6.942  0.4194  0.4012  0.3740
 1506TIP3   OH226152   6.275   5.587   6.771 -0.3097 -0.1123 -0.2848
 1506TIP3    H126153   6.253   5.510   6.718 -1.1954 -0.8092  1.0352
 1506TIP3    H226154   6.252   5.562   6.860  0.2393  1.3778  0.3082
 1507TIP3   OH226155   3.893   6.497   0.887  0.1845 -0.4681  0.4425
 1507TIP3    H126156   3.920   6.430   0.950 -1.4211 -1.3774  0.2229
 1507TIP3    H226157   3.816   6.539   0.927  0.9998  1.0880  0.4574
 1508TIP3   OH226158   1.866   6.570   7.374  0.1291 -0.0808 -0.0926
 1508TIP3    H126159   1.888   6.655   7.413  2.2802 -1.8139  2.9363
 1508TIP3    H226160   1.778   6.551   7.408 -0.2005  0.7375 -0.4618
 1509TIP3   OH226161   4.640   4.285   6.507 -0.4301  0.3406  0.0292
 1509TIP3    H126162   4.627   4.379   6.498 -0.7524  0.1874 -1.5481
 1509TIP3    H226163   4.648   4.253   6.416  0.4571 -1.0408  0.5474
 1510TIP3   OH226164   4.458   6.637   1.478  0.5999  0.1883 -0.0149
 1510TIP3    H126165   4.487   6.603   1.393 -0.8231 -0.8583 -0.1091
 1510TIP3    H226166   4.477   6.567   1.540 -0.5920 -0.0487  0.1087
 1511TIP3   OH226167   5.871   3.823   0.967 -0.0398 -0.2002  0.1110
 1511TIP3    H126168   5.791   3.800   1.015  0.4741 -0.0820  1.0492
 1511TIP3    H226169   5.874   3.761   0.894 -1.2321  0.0992 -0.2211
 1512TIP3   OH226170   3.571   6.524   7.057  0.1796 -0.4257  0.9912
 1512TIP3    H126171   3.617   6.522   7.141  0.7452 -1.0726  0.6662
 1512TIP3    H226172   3.628   6.575   6.999 -0.2558  0.1054  1.0162
 1513TIP3   OH226173   3.071   3.905   7.911  0.4186  0.3439  0.3095
 1513TIP3    H126174   3.022   3.987   7.918  0.7092  0.4616  1.0123
 1513TIP3    H226175   3.083   3.876   8.002 -0.0374 -0.6939  0.0594
 1514TIP3   OH226176   5.330   2.491   6.469  0.0502  0.0350  0.2748
 1514TIP3    H126177   5.385   2.479   6.392 -2.1649  2.3078 -1.8160
 1514TIP3    H226178   5.298   2.403   6.489 -0.2625 -0.4758 -2.1627
 1515TIP3   OH226179   4.703   2.409   0.594  0.5062  0.1421 -0.8176
 1515TIP3    H126180   4.704   2.477   0.661  1.4976  0.6819 -1.3637
 1515TIP3    H226181   4.672   2.455   0.515 -0.9284 -0.5474 -0.6861
 1516TIP3   OH226182   4.688   6.493   7.663  0.0678  0.2808  0.0854
 1516TIP3    H126183   4.719   6.582   7.648 -0.7703  0.3023 -1.9066
 1516TIP3    H226184   4.763   6.437   7.642  0.6015  0.4999  1.3628
 1517TIP3   OH226185   6.411   0.329   2.101  0.2136 -0.0899 -0.2783
 1517TIP3    H126186   6.498   0.358   2.127  0.1878  1.4651 -1.7561
 1517TIP3    H226187   6.395   0.251   2.154  2.7936 -0.8535 -0.4791
 1518TIP3   OH226188   1.034   4.700   7.918 -0.1577  0.5406  0.4277
 1518TIP3    H126189   0.986   4.673   7.839 -1.4032  2.9549  0.2608
 1518TIP3    H226190   0.972   4.685   7.989  0.5917 -0.6535  0.8640
 1519TIP3   OH226191   1.628   1.712   1.185 -0.1317 -0.1181 -0.3817
 1519TIP3    H126192   1.547   1.678   1.223 -0.4740  1.0398 -0.0090
 1519TIP3    H226193   1.663   1.770   1.253  1.4170 -1.1750 -0.2419
 1520TIP3   OH226194   4.321   3.090   0.924 -0.5042  0.2831 -0.1171
 1520TIP3    H126195   4.373   3.125   0.851  0.8898 -1.4899 -0.0295
 1520TIP3    H226196   4.248   3.045   0.881  0.4441 -0.9651 -0.4841
 1521TIP3   OH226197   2.785   6.515   7.938 -0.3953 -0.1405 -0.6805
 1521TIP3    H126198   2.777   6.508   8.033  0.0307 -1.0894 -0.7009
 1521TIP3    H226199   2.695   6.516   7.906 -0.5593 -1.7637 -0.3742
 1522TIP3   OH226200   4.862   2.222   0.984  0.1078 -0.1405 -0.7537
 1522TIP3    H126201   4.906   2.306   0.993 -0.6969  0.1884  0.3048
 1522TIP3    H226202   4.878   2.177   1.066  1.4245 -1.5029 -1.6970
 1523TIP3   OH226203   6.980   1.948   1.023  0.0450  0.0686  0.1075
 1523TIP3    H126204   7.056   1.939   1.081  1.0967  0.1917 -1.2038
 1523TIP3    H226205   6.906   1.956   1.083  1.1379  0.6920  1.4456
 1524TIP3   OH226206   0.392   1.313   1.298  0.5865 -0.0004 -0.3825
 1524TIP3    H126207   0.335   1.255   1.348 -0.2032  0.5863 -0.5831
 1524TIP3    H226208   0.365   1.301   1.207  0.4127  0.6685 -0.4277
 1525TIP3   OH226209   7.123   2.964   1.849  0.3680  0.1974  0.4339
 1525TIP3    H126210   7.150   2.947   1.939 -1.9864 -0.3665  1.0874
 1525TIP3    H226211   7.115   3.060   1.844  0.6469  0.2398  0.7708
 1526TIP3   OH226212   0.376   3.612   6.591  0.4603  0.5739 -0.5305
 1526TIP3    H126213   0.461   3.612   6.635 -0.7196  0.5595  1.9105
 1526TIP3    H226214   0.317   3.653   6.653 -1.6097 -0.6451 -1.5986
 1527TIP3   OH226215   6.449   2.834   7.379 -0.1604  0.1631  0.4094
 1527TIP3    H126216   6.521   2.893   7.355 -0.8071  1.5750  1.8028
 1527TIP3    H226217   6.390   2.837   7.304  0.2813  0.5095  0.0690
 1528TIP3   OH226218   1.324   3.538   1.586  0.5210 -0.3515  0.9490
 1528TIP3    H126219   1.295   3.536   1.677 -0.4887 -0.2776  0.6439
 1528TIP3    H226220   1.315   3.447   1.556 -0.3530 -0.1569  0.5777
 1529TIP3   OH226221   2.648   4.243   7.112  0.1856 -0.7820 -0.2006
 1529TIP3    H126222   2.599   4.320   7.141 -0.6038 -1.5062  0.4470
 1529TIP3    H226223   2.671   4.261   7.021  2.0007  1.1962  0.5620
 1530TIP3   OH226224   3.200   4.507   7.527 -0.3338  0.4597  0.1549
 1530TIP3    H126225   3.166   4.419   7.544 -0.0415  0.1418 -0.8012
 1530TIP3    H226226   3.136   4.566   7.567 -0.6739 -0.1804  0.5767
 1531TIP3   OH226227   2.651   6.933   0.370  1.0734 -0.3169  0.8895
 1531TIP3    H126228   2.652   6.926   0.466  0.1143 -0.4516  0.8983
 1531TIP3    H226229   2.580   6.995   0.351  0.4594 -1.1946  0.2255
 1532TIP3   OH226230   2.782   4.724   1.651  0.1237  0.5412 -0.0006
 1532TIP3    H126231   2.861   4.676   1.676 -0.9469 -0.7686  1.0564
 1532TIP3    H226232   2.787   4.732   1.556  0.6177 -1.2352 -0.1573
 1533TIP3   OH226233   4.933   0.931   6.802  0.7329  0.3825 -0.1773
 1533TIP3    H126234   4.967   0.997   6.742  5.9461 -1.6287 -0.0004
 1533TIP3    H226235   4.973   0.953   6.886  0.9471 -1.7631  0.3393
 1534TIP3   OH226236   3.254   5.045   8.097 -0.4316 -0.0542  0.0861
 1534TIP3    H126237   3.181   5.098   8.129 -1.0160  0.6647 -2.2178
 1534TIP3    H226238   3.213   4.966   8.061  0.1754 -0.7554  0.8744
 1535TIP3   OH226239   0.351   7.067   6.532 -0.0583  0.0623  0.0446
 1535TIP3    H126240   0.340   7.080   6.438 -0.5345  0.0023  0.0915
 1535TIP3    H226241   0.446   7.070   6.545  0.0018  0.2360 -0.4119
 1536TIP3   OH226242   0.605   2.647   1.270  0.2328 -0.6094  0.0170
 1536TIP3    H126243   0.647   2.613   1.349 -0.2451  0.7260  0.8887
 1536TIP3    H226244   0.622   2.581   1.203  2.4805 -0.7845  0.6799
 1537TIP3   OH226245   2.023   5.271   1.301  0.5782  0.3811 -0.0822
 1537TIP3    H126246   1.931   5.244   1.301  0.5398  0.4801 -0.7590
 1537TIP3    H226247   2.067   5.207   1.245  1.0389 -0.0125  0.7082
 1538TIP3   OH226248   1.075   0.179   1.072  0.3550  0.2867  0.4172
 1538TIP3    H126249   1.032   0.260   1.047  0.4858  1.1247  2.6480
 1538TIP3    H226250   1.056   0.118   1.001 -1.8309  1.5349 -0.1569
 1539TIP3   OH226251   0.277   2.575   0.437 -0.4386  0.1918  0.2545
 1539TIP3    H126252   0.266   2.613   0.524  2.8909  2.4185 -0.1020
 1539TIP3    H226253   0.211   2.618   0.383  0.4903  2.4049  0.7833
 1540TIP3   OH226254   5.802   5.829   1.214  0.0533  0.3291  0.1379
 1540TIP3    H126255   5.863   5.781   1.270 -1.2599  0.7600  2.0313
 1540TIP3    H226256   5.854   5.855   1.138  1.4968 -1.6440  0.3847
 1541TIP3   OH226257   6.934   0.128   0.843 -0.0454  0.0361  0.3999
 1541TIP3    H126258   6.878   0.196   0.881  2.1618  1.9489  0.4853
 1541TIP3    H226259   6.883   0.090   0.772 -1.2895  1.9753  0.2072
 1542TIP3   OH226260   6.003   2.532   0.648 -0.3774  0.4023  0.4405
 1542TIP3    H126261   5.969   2.565   0.731 -1.0321  0.4725  0.1575
 1542TIP3    H226262   6.006   2.610   0.592  2.6251  0.9229  1.1629
 1543TIP3   OH226263   5.573   0.225   7.850  0.1389  0.0105  0.2980
 1543TIP3    H126264   5.569   0.159   7.920  1.3877  0.2544  0.6241
 1543TIP3    H226265   5.536   0.304   7.890 -0.3668 -0.1975  0.2508
 1544TIP3   OH226266   6.635   2.868   0.551  0.9442 -0.1325  0.4939
 1544TIP3    H126267   6.562   2.866   0.613 -0.0369 -0.5125 -0.6266
 1544TIP3    H226268   6.692   2.937   0.584 -1.0785  1.8091  0.1875
 1545TIP3   OH226269   6.053   0.473   5.934  0.4119 -0.6750 -0.1818
 1545TIP3    H126270   5.966   0.471   5.973  0.3428  2.8548  0.1686
 1545TIP3    H226271   6.037   0.459   5.840 -0.2413 -1.9319  0.0871
 1546TIP3   OH226272   2.362   0.083   0.029  0.1915  0.0334  0.3350
 1546TIP3    H126273   2.346   0.135   0.108  1.0267 -1.5338  1.6009
 1546TIP3    H226274   2.321  -0.001   0.047 -1.3851  0.2841 -1.7856
 1547TIP3   OH226275   5.290   2.433   1.307 -0.0117 -0.0588  0.0176
 1547TIP3    H126276   5.321   2.524   1.305 -0.6954  0.1839  0.2377
 1547TIP3    H226277   5.209   2.436   1.357  0.9104 -1.0966  1.6432
 1548TIP3   OH226278   0.902   2.766   6.131 -0.1272 -0.2749 -0.1910
 1548TIP3    H126279   0.873   2.838   6.187  0.4319 -0.6909  0.6637
 1548TIP3    H226280   0.894   2.800   6.042  0.2709  0.8972  0.1996
 1549TIP3   OH226281   4.605   5.085   1.481 -0.5967 -0.4518 -0.1773
 1549TIP3    H126282   4.592   5.171   1.522 -1.1496 -0.9080  0.6456
 1549TIP3    H226283   4.537   5.030   1.520  0.6060 -1.6075  0.3581
 1550TIP3   OH226284   5.344   1.175   1.808 -0.2684  0.4919  0.1265
 1550TIP3    H126285   5.265   1.197   1.857  0.7795 -0.4009  2.3411
 1550TIP3    H226286   5.416   1.209   1.862  0.9230  0.2581 -1.2508
 1551TIP3   OH226287   0.320   6.082   6.894 -0.1215  0.1740  0.7668
 1551TIP3    H126288   0.331   5.987   6.903  0.3694  0.2226  0.6825
 1551TIP3    H226289   0.408   6.117   6.903 -0.4048  0.6910  1.6062
 1552TIP3   OH226290   6.944   3.199   1.644 -0.1443  0.5463 -0.6348
 1552TIP3    H126291   6.971   3.265   1.708  0.4141  0.5111 -0.8329
 1552TIP3    H226292   6.874   3.242   1.594 -0.4955  0.6180 -0.0863
 1553TIP3   OH226293   0.690   5.652   1.000  0.0800  0.0669  0.2141
 1553TIP3    H126294   0.706   5.734   1.046  0.4332 -0.6752  1.4971
 1553TIP3    H226295   0.689   5.586   1.070 -1.5289 -0.8583 -0.6212
 1554TIP3   OH226296   0.018   3.647   7.472 -0.1857 -0.4805  0.3857
 1554TIP3    H126297   0.057   3.675   7.390  0.1758 -1.5001  0.1882
 1554TIP3    H226298  -0.026   3.724   7.506 -0.0208  0.0488 -0.5799
 1555TIP3   OH226299   3.889   0.980   7.051 -0.1675 -0.8777 -0.0742
 1555TIP3    H126300   3.866   0.934   7.132 -0.1063 -1.1221 -0.1936
 1555TIP3    H226301   3.968   1.029   7.073 -0.0335 -1.1069 -0.0441
 1556TIP3   OH226302   0.236   4.748   0.357 -0.2745 -0.1355  0.0959
 1556TIP3    H126303   0.158   4.800   0.375  1.0000  1.6992  0.5827
 1556TIP3    H226304   0.230   4.674   0.417 -0.8677  0.8515  1.3076
 1557TIP3   OH226305   4.801   2.423   2.094  0.5513 -0.6431  0.0168
 1557TIP3    H126306   4.878   2.466   2.058  0.2144  0.0097  0.0610
 1557TIP3    H226307   4.806   2.438   2.188 -0.9087  1.6152 -0.1845
 1558TIP3   OH226308   6.445   4.916   7.263 -0.7365 -0.2819 -0.5982
 1558TIP3    H126309   6.533   4.939   7.291 -0.6370 -0.9946 -0.3205
 1558TIP3    H226310   6.387   4.972   7.316 -0.4829 -0.3158 -0.2858
 1559TIP3   OH226311   0.141   1.099   7.165  0.0120 -0.3081  0.5279
 1559TIP3    H126312   0.079   1.132   7.230 -1.8011 -2.1122 -0.1980
 1559TIP3    H226313   0.094   1.106   7.081  1.1627 -0.8046 -0.1842
 1560TIP3   OH226314   3.940   2.370   0.367 -0.0814 -0.3406  0.3691
 1560TIP3    H126315   3.943   2.465   0.356 -1.4429 -0.4666 -1.5358
 1560TIP3    H226316   3.980   2.355   0.453 -1.5429  2.0825  1.5765
 1561TIP3   OH226317   1.466   1.704   0.498 -0.2898 -0.2130 -0.1789
 1561TIP3    H126318   1.379   1.743   0.492  0.2496  1.0363 -0.2748
 1561TIP3    H226319   1.486   1.677   0.408  0.1352  1.1892 -0.5452
 1562TIP3   OH226320   0.346   2.594   6.801 -0.3692  0.7591  0.0782
 1562TIP3    H126321   0.310   2.602   6.713 -3.1378 -0.7810  0.9352
 1562TIP3    H226322   0.269   2.591   6.858  1.2775  0.3460  2.4260
 1563TIP3   OH226323   0.343   1.182   0.663 -0.7296 -0.4220 -0.1607
 1563TIP3    H126324   0.254   1.196   0.630 -0.5895  1.3443  0.1622
 1563TIP3    H226325   0.396   1.249   0.620  0.2408 -0.7574  0.4877
 1564TIP3   OH226326   3.059   5.661   6.437  0.1490 -0.7332 -0.6457
 1564TIP3    H126327   3.073   5.646   6.344  2.8544  0.2204 -0.4840
 1564TIP3    H226328   3.093   5.582   6.479  1.3198 -0.1171 -0.3968
 1565TIP3   OH226329   0.734   3.624   0.140  0.4361 -0.1070  0.0717
 1565TIP3    H126330   0.669   3.684   0.176 -2.1431 -1.2685 -2.2710
 1565TIP3    H226331   0.723   3.544   0.190 -0.9866 -0.7356 -1.1752
 1566TIP3   OH226332   7.010   0.823   6.719 -0.3696 -0.2364  0.1008
 1566TIP3    H126333   7.086   0.864   6.678 -0.1725 -2.6536 -2.2031
 1566TIP3    H226334   6.937   0.882   6.698  0.3820  0.5630 -0.3057
 1567TIP3   OH226335   4.467   5.608   7.004 -0.1137  0.1284  0.0653
 1567TIP3    H126336   4.549   5.652   7.024 -0.5812  1.7417 -1.2857
 1567TIP3    H226337   4.490   5.516   6.993  1.5070  0.5616 -0.3315
 1568TIP3   OH226338   6.883   2.758   0.842  0.1737 -0.0951 -0.2169
 1568TIP3    H126339   6.907   2.757   0.935  0.8055 -0.4638 -0.3806
 1568TIP3    H226340   6.791   2.731   0.841  0.2183 -0.2812  0.2871
 1569TIP3   OH226341   6.783   5.240   1.092 -0.1784 -0.4183 -0.7979
 1569TIP3    H126342   6.705   5.193   1.062 -0.7107  0.8712 -1.4987
 1569TIP3    H226343   6.773   5.245   1.187 -0.4871 -1.0585 -0.7936
 1570TIP3   OH226344   0.153   6.251   0.815 -0.0533  0.0291  0.1945
 1570TIP3    H126345   0.230   6.286   0.770 -0.9787 -0.4563 -1.8785
 1570TIP3    H226346   0.089   6.322   0.813 -0.2573 -0.1448  0.3877
 1571TIP3   OH226347   1.258   5.727   7.466 -0.6413 -0.0894  0.2401
 1571TIP3    H126348   1.256   5.631   7.465 -1.6930 -0.0936  0.8362
 1571TIP3    H226349   1.303   5.751   7.385  0.0604 -1.0886  0.3078
 1572TIP3   OH226350   2.995   6.791   7.920  0.5506 -1.2588  0.3554
 1572TIP3    H126351   2.900   6.802   7.917  0.6833  0.3105  0.8069
 1572TIP3    H226352   3.010   6.741   8.000  0.1134 -1.4538  0.3228
 1573TIP3   OH226353   6.508   3.999   0.506 -0.1598  0.3417 -0.6150
 1573TIP3    H126354   6.445   3.927   0.509  1.1341 -0.8412 -0.9466
 1573TIP3    H226355   6.457   4.077   0.530 -1.4987 -0.7328  0.1498
 1574TIP3   OH226356   2.689   6.608   7.670 -0.2872 -0.2101  0.5267
 1574TIP3    H126357   2.721   6.690   7.633  0.3779 -0.8367 -0.3331
 1574TIP3    H226358   2.718   6.610   7.761 -0.0648  0.4013  0.4471
 1575TIP3   OH226359   3.581   5.373   7.597  0.3738  0.6693  0.3987
 1575TIP3    H126360   3.564   5.438   7.666  1.8642  1.0662  0.4277
 1575TIP3    H226361   3.513   5.307   7.610  1.4131  0.0012  3.1824
 1576TIP3   OH226362   5.018   2.885   2.174 -0.2805 -0.2683 -0.4449
 1576TIP3    H126363   5.057   2.798   2.185  0.1781 -0.0001  0.1023
 1576TIP3    H226364   4.932   2.878   2.216 -0.1462 -0.3918 -0.1885
 1577TIP3   OH226365   0.051   0.122   6.718  0.1555 -0.2838 -0.2214
 1577TIP3    H126366   0.070   0.170   6.637 -2.7859 -0.2905 -1.0379
 1577TIP3    H226367  -0.012   0.178   6.764  1.3821 -0.5210  1.8923
 1578TIP3   OH226368   2.111   4.652   7.105  0.2053  0.7086 -0.3793
 1578TIP3    H126369   2.189   4.664   7.050  1.2989  0.2472  1.0242
 1578TIP3    H226370   2.042   4.629   7.043  1.5676 -0.5328 -1.5252
 1579TIP3   OH226371   6.605   2.220   0.973  0.0539 -0.1203  0.1640
 1579TIP3    H126372   6.542   2.148   0.979  0.0283 -0.3571 -2.1251
 1579TIP3    H226373   6.683   2.187   1.017 -0.6261 -0.7472  0.9348
 1580TIP3   OH226374   3.513   4.896   7.837  0.3941 -0.5832 -0.7759
 1580TIP3    H126375   3.542   4.951   7.910 -0.1817 -0.8783 -0.3112
 1580TIP3    H226376   3.562   4.815   7.847 -0.0127 -0.7947 -0.4388
 1581TIP3   OH226377   1.466   4.183   0.151  0.1959  0.3007  0.3934
 1581TIP3    H126378   1.531   4.112   0.145  1.4272  1.4569 -0.4595
 1581TIP3    H226379   1.413   4.173   0.072  1.4425  1.3002 -0.6146
 1582TIP3   OH226380   4.409   1.622   1.125 -0.4501  0.7403  0.1069
 1582TIP3    H126381   4.323   1.594   1.157 -1.1150  1.2609 -1.1383
 1582TIP3    H226382   4.431   1.558   1.057 -1.3801  2.3680 -1.8374
 1583TIP3   OH226383   1.664   2.304   7.537  0.2525  0.2683 -0.3593
 1583TIP3    H126384   1.612   2.229   7.507 -0.8167  0.4959  0.8404
 1583TIP3    H226385   1.626   2.327   7.622  1.6411  1.1315  0.0577
 1584TIP3   OH226386   2.076   3.142   1.266 -0.3446  0.4984 -0.4181
 1584TIP3    H126387   2.106   3.097   1.187 -0.7978  0.3101 -0.4933
 1584TIP3    H226388   2.151   3.140   1.325 -0.7337 -1.6398  0.1226
 1585TIP3   OH226389   3.576   5.776   7.863  0.2517  0.1789 -0.3569
 1585TIP3    H126390   3.666   5.810   7.864  0.1171  0.5329 -0.0386
 1585TIP3    H226391   3.578   5.704   7.800  1.2143 -1.0270  0.9666
 1586TIP3   OH226392   4.571   2.359   6.540 -0.2110  0.3500 -0.0002
 1586TIP3    H126393   4.638   2.293   6.555  0.0206 -0.0088 -2.2778
 1586TIP3    H226394   4.607   2.439   6.578  1.1345 -0.0348 -0.4074
 1587TIP3   OH226395   6.922   2.481   7.595  0.1454  0.2361  0.3194
 1587TIP3    H126396   6.872   2.448   7.521  0.8305  0.6919 -0.3617
 1587TIP3    H226397   7.009   2.501   7.559  0.3636  0.8476  1.1442
 1588TIP3   OH226398   0.697   0.724   7.946 -0.0203 -0.3509 -0.4287
 1588TIP3    H126399   0.613   0.699   7.907 -0.0924 -0.4982 -0.1789
 1588TIP3    H226400   0.707   0.667   8.022  1.1102 -1.5723 -1.4236
 1589TIP3   OH226401   4.350   4.203   1.556 -0.1675  0.3404  0.8643
 1589TIP3    H126402   4.401   4.283   1.544 -0.0445  0.0941 -0.3815
 1589TIP3    H226403   4.292   4.222   1.630 -0.2110  1.6126  0.5261
 1590TIP3   OH226404   3.642   2.063   0.749  0.4280  0.3943  0.2318
 1590TIP3    H126405   3.708   2.105   0.694  0.3950  1.6572  1.1245
 1590TIP3    H226406   3.574   2.130   0.762  2.8735  2.4238  6.2312
 1591TIP3   OH226407   3.307   3.927   0.235 -0.3719 -0.0938 -0.1765
 1591TIP3    H126408   3.300   3.867   0.160 -1.1246 -2.1755  1.4671
 1591TIP3    H226409   3.401   3.945   0.242 -0.2146 -0.4442 -1.1812
 1592TIP3   OH226410   4.592   4.528   6.767  0.0581 -0.1633 -0.0620
 1592TIP3    H126411   4.634   4.492   6.688 -1.8851 -0.5662 -0.9587
 1592TIP3    H226412   4.665   4.565   6.817  1.3971 -0.1285 -1.9127
 1593TIP3   OH226413   4.510   3.896   1.032 -0.4266  0.6656  0.6497
 1593TIP3    H126414   4.570   3.924   1.101 -0.6014  0.8509  0.7259
 1593TIP3    H226415   4.449   3.969   1.021 -0.9289  0.2882  0.9033
 1594TIP3   OH226416   6.215   4.816   0.529  0.2785  0.4655  0.6345
 1594TIP3    H126417   6.253   4.861   0.605  0.0607 -0.5699  1.3734
 1594TIP3    H226418   6.281   4.751   0.505 -1.2239 -1.8380  2.3633
 1595TIP3   OH226419   1.019   1.122   2.475  0.0746  0.5395  0.3828
 1595TIP3    H126420   1.010   1.209   2.514  0.0418  0.3576  0.7879
 1595TIP3    H226421   0.929   1.096   2.456  0.0627  0.4819  0.5151
 1596TIP3   OH226422   2.047   6.513   1.480  0.0541  0.3435 -0.3360
 1596TIP3    H126423   2.124   6.497   1.533  0.3556 -0.1082 -0.9082
 1596TIP3    H226424   1.973   6.486   1.535  0.3251  0.3948  0.0527
 1597TIP3   OH226425   1.302   5.006   0.562  0.2671  0.0020  0.5130
 1597TIP3    H126426   1.336   5.066   0.628  1.8433  1.2800 -1.3609
 1597TIP3    H226427   1.379   4.959   0.531 -0.4816 -0.7405 -0.2761
 1598TIP3   OH226428   6.590   4.395   1.279 -0.2234  0.2764 -0.0760
 1598TIP3    H126429   6.627   4.307   1.284  0.3806  0.5926  3.1185
 1598TIP3    H226430   6.496   4.381   1.270  0.0530 -0.5950 -2.1876
 1599TIP3   OH226431   5.326   6.731   8.067 -0.3346  0.1958 -0.2819
 1599TIP3    H126432   5.388   6.658   8.059  0.3934  0.8588 -0.7892
 1599TIP3    H226433   5.242   6.693   8.042 -0.1528 -0.7172  0.4186
 1600TIP3   OH226434   4.793   2.859   1.286  0.6138  0.2101 -0.1677
 1600TIP3    H126435   4.826   2.859   1.376  0.9641  1.3399 -0.2809
 1600TIP3    H226436   4.865   2.820   1.235  0.7899  0.4253 -0.0853
 1601TIP3   OH226437   7.047   3.502   2.114  0.1048 -0.3579  0.7713
 1601TIP3    H126438   7.088   3.465   2.192 -1.3810 -0.8956  1.3416
 1601TIP3    H226439   6.997   3.430   2.077 -0.1409  0.2089 -0.0289
 1602TIP3   OH226440   3.689   7.092   0.224  0.4671 -0.9418  0.4281
 1602TIP3    H126441   3.706   7.138   0.142 -0.1036 -1.6539 -0.1046
 1602TIP3    H226442   3.734   7.008   0.216  3.3605  0.2811  2.2828
 1603TIP3   OH226443   6.380   3.651   1.161 -0.4820 -0.5746 -0.1650
 1603TIP3    H126444   6.327   3.636   1.239 -1.7665 -3.0492 -1.3836
 1603TIP3    H226445   6.445   3.581   1.163 -0.9176 -1.0500 -1.5854
 1604TIP3   OH226446   4.681   2.213   6.999 -0.8193 -0.0089 -0.3034
 1604TIP3    H126447   4.721   2.252   7.076 -0.1173  1.1191 -1.2025
 1604TIP3    H226448   4.736   2.242   6.926 -2.7650  0.9260 -1.5022
 1605TIP3   OH226449   0.725   4.439   0.602  0.4926  0.0894  0.2149
 1605TIP3    H126450   0.699   4.347   0.607 -0.4860  0.4231  3.5612
 1605TIP3    H226451   0.643   4.486   0.589  0.8897  0.5671 -0.6286
 1606TIP3   OH226452   5.539   3.104   0.455 -0.1607  1.0474 -0.2957
 1606TIP3    H126453   5.462   3.047   0.458 -1.3505  2.5124 -1.5079
 1606TIP3    H226454   5.594   3.073   0.527 -1.6844 -0.3099  0.3587
 1607TIP3   OH226455   1.411   3.120   2.208 -0.4153  0.1169  0.0300
 1607TIP3    H126456   1.443   3.038   2.172  0.1711 -0.0928  1.0079
 1607TIP3    H226457   1.487   3.178   2.208 -0.8026  0.6407 -0.5682
 1608TIP3   OH226458   3.623   6.440   0.830  0.5391  0.7093  0.0011
 1608TIP3    H126459   3.594   6.494   0.757  0.6206  1.1343  0.2833
 1608TIP3    H226460   3.659   6.361   0.789  0.8755  1.0836 -0.4220
 1609TIP3   OH226461   4.019   1.549   6.151  0.5786  0.4938 -0.0628
 1609TIP3    H126462   4.061   1.482   6.097 -1.3102  0.8843 -2.1939
 1609TIP3    H226463   4.021   1.514   6.239  2.3956 -0.9243 -0.6113
 1610TIP3   OH226464   2.741   2.121   6.446 -0.6304 -0.0191  0.2802
 1610TIP3    H126465   2.656   2.135   6.404  0.5095  0.6691 -1.9752
 1610TIP3    H226466   2.786   2.058   6.389  0.4068 -0.3393  1.4087
 1611TIP3   OH226467   6.587   3.963   1.607  0.2904 -0.0698 -0.1511
 1611TIP3    H126468   6.543   4.025   1.550 -0.9350 -0.8718 -0.1245
 1611TIP3    H226469   6.567   3.993   1.696 -0.4268 -0.5537 -0.1362
 1612TIP3   OH226470   5.329   0.346   5.990 -0.0232  0.6527 -0.7239
 1612TIP3    H126471   5.375   0.375   5.911  0.8229  1.8196  0.1482
 1612TIP3    H226472   5.321   0.426   6.043 -0.3745 -0.1398  0.4509
 1613TIP3   OH226473   4.380   5.584   6.349 -0.3654  0.1700 -0.3347
 1613TIP3    H126474   4.449   5.651   6.352 -1.6229  1.5750 -1.3629
 1613TIP3    H226475   4.309   5.625   6.301 -0.8788 -2.2594 -1.7986
 1614TIP3   OH226476   2.278   6.014   1.486 -0.5854  0.5357 -0.5884
 1614TIP3    H126477   2.330   5.940   1.453  0.1557 -2.2643  5.3883
 1614TIP3    H226478   2.331   6.091   1.467  1.7930 -1.2397 -1.7858
 1615TIP3   OH226479   3.739   3.110   8.103 -0.1772 -0.5326 -0.3827
 1615TIP3    H126480   3.688   3.180   8.142  2.7432  0.2059  2.5223
 1615TIP3    H226481   3.798   3.154   8.042 -0.0417 -0.8004 -0.4472
 1616TIP3   OH226482   2.227   4.143   0.288 -0.1687 -0.2857  0.0471
 1616TIP3    H126483   2.312   4.122   0.328 -0.5891 -0.8558  0.6598
 1616TIP3    H226484   2.236   4.233   0.259  1.4276 -1.0039 -1.9450
 1617TIP3   OH226485   0.545   6.398   5.781  0.2916  0.6958  0.4563
 1617TIP3    H126486   0.488   6.417   5.855 -1.0628 -2.5653  0.4026
 1617TIP3    H226487   0.487   6.363   5.714  1.8027  1.4978 -1.3681
 1618TIP3   OH226488   6.423   6.746   6.243 -0.2246 -0.2145 -0.1359
 1618TIP3    H126489   6.361   6.696   6.296  0.1473  0.2765  0.7880
 1618TIP3    H226490   6.446   6.687   6.171  1.1222 -1.8903  1.5659
 1619TIP3   OH226491   6.344   5.251   7.075 -0.0223  0.0699  0.2472
 1619TIP3    H126492   6.401   5.250   6.998  0.0286 -0.1829  0.2879
 1619TIP3    H226493   6.402   5.273   7.147  0.1797 -0.9200  0.4074
 1620TIP3   OH226494   4.312   6.403   7.590 -0.4949  0.3740  1.0745
 1620TIP3    H126495   4.347   6.325   7.633 -2.0664 -0.8552  0.2090
 1620TIP3    H226496   4.383   6.433   7.535  0.4204  0.0544  2.0391
 1621TIP3   OH226497   3.728   6.723   0.983  1.1625  0.1275  0.2440
 1621TIP3    H126498   3.748   6.749   0.893  1.9715 -0.3866  0.2596
 1621TIP3    H226499   3.633   6.732   0.990  0.7616 -1.9571 -1.3784
 1622TIP3   OH226500   5.346   0.069   0.389  0.3908  0.0756  0.2040
 1622TIP3    H126501   5.395   0.035   0.464  0.3030 -0.8328 -0.1378
 1622TIP3    H226502   5.255   0.071   0.418  0.6605  2.4796  1.1021
 1623TIP3   OH226503   2.579   6.384   6.763 -0.6898 -0.3909 -0.4289
 1623TIP3    H126504   2.491   6.387   6.800  0.1634 -1.9518  1.9491
 1623TIP3    H226505   2.590   6.294   6.734  0.4998 -0.5126  0.3519
 1624TIP3   OH226506   0.457   0.015   7.330 -0.8139 -0.5665  0.6080
 1624TIP3    H126507   0.469   0.108   7.312 -0.1404 -0.3336  2.1498
 1624TIP3    H226508   0.437  -0.023   7.245  2.1043  0.4577 -0.6590
 1625TIP3   OH226509   4.457   1.614   0.611  0.0563  0.5055  0.1421
 1625TIP3    H126510   4.399   1.604   0.687 -0.0526  0.9376  0.1175
 1625TIP3    H226511   4.399   1.640   0.539 -0.0878 -1.4482 -0.5004
 1626TIP3   OH226512   0.097   2.615   2.269 -0.5731 -0.1553 -0.3168
 1626TIP3    H126513   0.058   2.682   2.326  2.1824  0.9965  0.4013
 1626TIP3    H226514   0.167   2.577   2.322  2.9317  1.8035 -3.1216
 1627TIP3   OH226515   2.615   0.376   0.263  0.2467  0.2845  0.0983
 1627TIP3    H126516   2.640   0.286   0.242  0.4111 -0.2096  2.1941
 1627TIP3    H226517   2.677   0.402   0.332 -1.0427  1.2935  0.9177
 1628TIP3   OH226518   4.700   4.035   8.081  0.1333 -0.5353  0.5054
 1628TIP3    H126519   4.692   4.015   8.174 -1.6473  1.0863  0.7610
 1628TIP3    H226520   4.645   3.970   8.037 -0.0835 -0.4835  0.7010
 1629TIP3   OH226521   6.174   2.854   0.353  0.4343 -0.8244 -0.4381
 1629TIP3    H126522   6.245   2.810   0.307  0.9435 -0.5086  0.0348
 1629TIP3    H226523   6.125   2.900   0.284  0.8515 -0.8148 -0.7330
 1630TIP3   OH226524   0.582   6.506   7.658  0.2946  0.3576 -0.2765
 1630TIP3    H126525   0.619   6.431   7.705  0.4758  0.2900 -0.5207
 1630TIP3    H226526   0.516   6.542   7.717  2.1695  1.7500  1.1105
 1631TIP3   OH226527   0.364   7.103   6.255 -0.4357 -0.4955  0.6042
 1631TIP3    H126528   0.303   7.149   6.197  1.7106  0.7449 -0.7893
 1631TIP3    H226529   0.424   7.058   6.196  1.4166  0.2623  1.8337
 1632TIP3   OH226530   0.839   0.160   2.296  0.5997  0.0505 -0.0570
 1632TIP3    H126531   0.785   0.239   2.300  0.1851 -0.0581 -2.0797
 1632TIP3    H226532   0.775   0.089   2.290  0.9712 -0.2943  0.0653
 1633TIP3   OH226533   7.001   3.780   6.690 -0.0187 -0.0072  0.3847
 1633TIP3    H126534   6.936   3.837   6.730  0.3864  0.0625  0.9701
 1633TIP3    H226535   6.959   3.694   6.686 -0.1908  0.0657  0.6415
 1634TIP3   OH226536   3.488   2.896   7.010  0.4230 -0.3822  0.3504
 1634TIP3    H126537   3.583   2.886   7.021  0.4346 -1.7156 -0.7265
 1634TIP3    H226538   3.451   2.815   7.046 -0.2422 -0.2680 -0.0670
 1635TIP3   OH226539   1.340   0.306   0.594 -0.4828  0.1974  0.3770
 1635TIP3    H126540   1.300   0.392   0.605 -1.3012 -0.2533  1.0416
 1635TIP3    H226541   1.266   0.245   0.589  0.0534 -0.3549 -1.2971
 1636TIP3   OH226542   3.002   6.253   0.256  0.1003 -0.2224 -0.0348
 1636TIP3    H126543   3.026   6.162   0.273  1.7227  0.3456  0.8582
 1636TIP3    H226544   3.057   6.280   0.182  2.5038  1.1081  2.0746
 1637TIP3   OH226545   5.306   4.454   0.831  0.0116  0.2367 -0.2695
 1637TIP3    H126546   5.386   4.425   0.875 -1.9909 -1.7746  2.4100
 1637TIP3    H226547   5.298   4.397   0.755  1.1393  0.5945 -0.6926
 1638TIP3   OH226548   5.612   3.381   0.784 -0.1316 -0.0675  0.2819
 1638TIP3    H126549   5.576   3.295   0.760 -0.3508  0.1378 -0.1488
 1638TIP3    H226550   5.563   3.443   0.730  1.8805  0.1121 -1.4695
 1639TIP3   OH226551   2.654   4.678   5.968 -0.1220 -0.3117 -0.0242
 1639TIP3    H126552   2.672   4.771   5.957  0.5699 -0.4325  0.0765
 1639TIP3    H226553   2.704   4.635   5.899  1.4637 -0.7886  1.3580
 1640TIP3   OH226554   4.640   0.630   0.591 -0.5325 -0.1994  0.3144
 1640TIP3    H126555   4.639   0.634   0.686  0.2377  1.3238  0.2804
 1640TIP3    H226556   4.730   0.653   0.566 -0.2839 -2.0749 -0.7483
 1641TIP3   OH226557   3.511   6.647   5.910 -0.1422 -0.1234 -0.1200
 1641TIP3    H126558   3.477   6.569   5.953 -1.0673  0.0064 -0.6001
 1641TIP3    H226559   3.435   6.687   5.868  0.5334  0.3751 -0.9008
 1642TIP3   OH226560   5.120   0.786   8.062 -0.1929 -0.0092  0.2069
 1642TIP3    H126561   5.133   0.705   8.112  0.6711 -1.1178 -1.6754
 1642TIP3    H226562   5.186   0.846   8.096  1.0142 -1.0626 -0.2048
 1643TIP3   OH226563   4.065   4.671   7.735  0.2624 -0.3482 -0.0046
 1643TIP3    H126564   4.146   4.705   7.696  0.9930 -0.6953  1.1597
 1643TIP3    H226565   4.017   4.749   7.762  0.6306 -0.1602  0.1182
 1644TIP3   OH226566   0.385   5.048   8.089 -0.4105  0.1602  0.2760
 1644TIP3    H126567   0.412   5.137   8.064  1.6562 -0.5370 -0.2202
 1644TIP3    H226568   0.340   5.015   8.012 -1.6096  0.9145  0.6313
 1645TIP3   OH226569   4.933   4.422   6.945  0.2457  0.1497 -0.1207
 1645TIP3    H126570   4.877   4.378   6.880  0.5532 -0.3643 -0.0498
 1645TIP3    H226571   4.963   4.351   7.002  1.5040  0.3057 -0.5550
 1646TIP3   OH226572   2.234   1.463   7.253 -0.3517  0.3344  0.1999
 1646TIP3    H126573   2.219   1.421   7.338 -2.9385  1.4404  0.3847
 1646TIP3    H226574   2.150   1.458   7.208  0.6884  0.6859 -1.9104
 1647TIP3   OH226575   7.050   0.723   0.248 -0.3293 -0.6529 -0.5112
 1647TIP3    H126576   7.048   0.730   0.152  0.6405 -0.3557 -0.5195
 1647TIP3    H226577   7.139   0.748   0.272 -1.2069  1.6487  0.6584
 1648TIP3   OH226578   1.587   3.126   0.418  0.2755  0.0209 -0.6491
 1648TIP3    H126579   1.564   3.085   0.334  1.9880  0.3588 -1.3418
 1648TIP3    H226580   1.633   3.206   0.393 -1.4260  1.4670  0.6727
 1649TIP3   OH226581   2.028   5.123   0.836  0.1707  0.5720  0.1350
 1649TIP3    H126582   2.029   5.034   0.801 -2.2183  0.2931  0.6125
 1649TIP3    H226583   2.006   5.178   0.761  0.1169  0.5887  0.1635
 1650TIP3   OH226584   4.271   5.427   6.531 -0.4100 -0.0849 -0.5549
 1650TIP3    H126585   4.263   5.476   6.612 -4.2014  0.2878 -0.9750
 1650TIP3    H226586   4.318   5.485   6.471 -0.6533  1.0625  0.3551
 1651TIP3   OH226587   4.671   3.704   0.339  0.2407 -0.0816 -0.3981
 1651TIP3    H126588   4.692   3.696   0.246  1.2538  1.9031 -0.3901
 1651TIP3    H226589   4.754   3.727   0.381 -0.3778 -0.0486  0.8690
 1652TIP3   OH226590   1.747   1.767   1.429 -0.1508  0.2135 -0.3484
 1652TIP3    H126591   1.767   1.833   1.495 -1.5281 -0.4571  0.7855
 1652TIP3    H226592   1.772   1.684   1.470  0.2940 -0.1024 -1.2274
 1653TIP3   OH226593   2.891   1.255   7.193 -0.3664  0.2545  0.0251
 1653TIP3    H126594   2.946   1.326   7.162  0.9212  1.7106  4.8246
 1653TIP3    H226595   2.806   1.295   7.208 -0.0119  0.5183  1.4691
 1654TIP3   OH226596   6.846   2.951   1.596  0.2825  0.6486 -0.1471
 1654TIP3    H126597   6.912   3.020   1.597 -0.8125  1.7244  1.4492
 1654TIP3    H226598   6.877   2.889   1.530  3.2257  0.7657  1.0121
 1655TIP3   OH226599   0.165   4.495   0.426  0.4987  0.7913  0.1739
 1655TIP3    H126600   0.237   4.456   0.376  0.0429  2.0832 -1.5790
 1655TIP3    H226601   0.148   4.433   0.497  0.7696 -1.4605 -1.6348
 1656TIP3   OH226602   0.929   6.330   8.133 -0.3164  0.5761  0.1249
 1656TIP3    H126603   1.012   6.367   8.106  0.2652 -0.2886  0.6647
 1656TIP3    H226604   0.939   6.314   8.227 -0.7987 -0.2438  0.0509
 1657TIP3   OH226605   1.505   2.942   2.039 -0.0490 -0.7649  0.1029
 1657TIP3    H126606   1.583   2.927   1.984  0.2018 -1.3771  0.6214
 1657TIP3    H226607   1.448   2.868   2.021 -0.3288 -0.5396  0.0538
 1658TIP3   OH226608   6.898   1.014   0.364 -0.1565 -0.6730 -0.6427
 1658TIP3    H126609   6.870   0.922   0.362 -0.2415 -0.7062 -4.2174
 1658TIP3    H226610   6.960   1.022   0.292  0.6757  1.8801  0.2467
 1659TIP3   OH226611   6.849   0.612   6.821 -0.1903  0.0859  0.0377
 1659TIP3    H126612   6.886   0.692   6.784  2.5150 -0.7531  0.6850
 1659TIP3    H226613   6.898   0.541   6.778 -2.7315 -1.3285 -0.7765
 1660TIP3   OH226614   5.530   5.402   2.104  0.4305  0.7663 -0.0413
 1660TIP3    H126615   5.471   5.329   2.085  1.3396 -0.2483  0.8391
 1660TIP3    H226616   5.486   5.479   2.068 -0.7661 -0.1459 -0.6159
 1661TIP3   OH226617   4.816   6.549   7.056 -0.1065 -0.1833  0.1262
 1661TIP3    H126618   4.826   6.533   7.150  0.6655 -0.2857  0.0370
 1661TIP3    H226619   4.885   6.496   7.015 -0.6062 -0.3517 -0.5180
 1662TIP3   OH226620   0.744   1.630   7.384 -0.1844  0.0096 -0.2388
 1662TIP3    H126621   0.742   1.590   7.297 -1.1983  0.4916 -0.4528
 1662TIP3    H226622   0.653   1.655   7.401 -0.1293 -0.7056  1.2650
 1663TIP3   OH226623   1.224   5.574   6.407 -0.2241 -0.0989  0.2135
 1663TIP3    H126624   1.167   5.516   6.358 -1.0799 -0.8831  2.0540
 1663TIP3    H226625   1.215   5.659   6.365 -0.8564 -0.7558 -1.0037
 1664TIP3   OH226626   4.410   3.171   0.091  0.4524  0.5654 -0.0587
 1664TIP3    H126627   4.391   3.100   0.029  0.8049  0.0350  0.4340
 1664TIP3    H226628   4.364   3.247   0.055 -1.1724 -0.2643  0.2040
 1665TIP3   OH226629   6.786   5.368   6.658 -0.1323 -0.5498  0.1462
 1665TIP3    H126630   6.740   5.414   6.729 -2.4204 -0.2664 -1.3973
 1665TIP3    H226631   6.810   5.283   6.696  0.0202  0.1399  1.6670
 1666TIP3   OH226632   1.028   6.717   5.811  0.4373 -0.0409  0.4216
 1666TIP3    H126633   0.971   6.794   5.810  0.0146 -0.3429  1.1456
 1666TIP3    H226634   1.112   6.750   5.779  0.4739  0.8984  1.4293
 1667TIP3   OH226635   4.489   5.026   5.853  0.9602  0.6070  0.3606
 1667TIP3    H126636   4.412   5.072   5.819  1.4511 -1.2421 -3.8596
 1667TIP3    H226637   4.465   4.934   5.850  3.2377 -0.0096 -0.9781
 1668TIP3   OH226638   5.424   2.104   6.274  0.0201  0.4280 -0.3946
 1668TIP3    H126639   5.344   2.147   6.302  0.3248  0.6844  0.0763
 1668TIP3    H226640   5.414   2.096   6.179 -0.2996  0.9946 -0.4127
 1669TIP3   OH226641   4.023   6.401   1.143 -0.2423  0.3172  0.6204
 1669TIP3    H126642   3.993   6.311   1.134 -0.3275  0.4638 -0.7159
 1669TIP3    H226643   4.071   6.402   1.226  2.0714 -1.6290 -0.5754
 1670TIP3   OH226644   4.988   6.522   1.070  0.4873  0.4505  0.8030
 1670TIP3    H126645   5.008   6.607   1.033 -0.2565 -0.0615 -0.8580
 1670TIP3    H226646   5.063   6.467   1.046 -0.6934 -0.2980 -1.4846
 1671TIP3   OH226647   3.949   5.648   0.374  0.0542  0.0703 -0.3654
 1671TIP3    H126648   4.039   5.676   0.356 -0.2867  2.9775  1.7239
 1671TIP3    H226649   3.936   5.666   0.468 -2.1932 -1.9040 -0.1889
 1672TIP3   OH226650   6.803   2.922   7.673 -0.5450  0.1357 -0.3163
 1672TIP3    H126651   6.718   2.953   7.639 -0.9431 -2.0027 -1.4467
 1672TIP3    H226652   6.794   2.827   7.676  0.9066 -0.0000  2.1875
 1673TIP3   OH226653   4.445   6.909   0.775 -0.1424 -0.1687 -0.1285
 1673TIP3    H126654   4.439   6.854   0.853  2.4638 -0.0322  0.2380
 1673TIP3    H226655   4.440   6.847   0.702 -0.7651 -0.4798  0.1670
 1674TIP3   OH226656   6.049   1.015   8.058 -0.8688 -0.9046 -0.0970
 1674TIP3    H126657   6.001   1.098   8.065 -0.2800 -0.2425 -2.9011
 1674TIP3    H226658   6.011   0.960   8.127 -2.5037  1.0784  0.7010
 1675TIP3   OH226659   5.839   2.686   0.819 -0.0573  0.5607  0.1898
 1675TIP3    H126660   5.776   2.634   0.869 -0.7002 -0.8144 -1.9454
 1675TIP3    H226661   5.869   2.753   0.881 -0.7400 -1.0780  2.4277
 1676TIP3   OH226662   2.382   2.757   1.310 -0.5872 -0.1217  0.0608
 1676TIP3    H126663   2.372   2.801   1.394 -1.6512 -3.0743  1.6592
 1676TIP3    H226664   2.474   2.730   1.308 -0.5009  0.1621  0.1808
 1677TIP3   OH226665   5.611   3.267   7.516  0.0774  0.7092  0.1873
 1677TIP3    H126666   5.650   3.305   7.595 -0.3146  2.1030 -0.2566
 1677TIP3    H226667   5.576   3.183   7.544  1.4308  0.4179  1.0984
 1678TIP3   OH226668   4.035   1.253   7.132 -0.1783 -0.4359 -0.6050
 1678TIP3    H126669   4.059   1.271   7.223 -0.8146  1.1337 -0.7119
 1678TIP3    H226670   4.031   1.339   7.091  2.2733 -1.2029 -2.7296
 1679TIP3   OH226671   0.073   3.140   1.195  0.1154  0.1952  0.3635
 1679TIP3    H126672   0.161   3.126   1.159 -0.3103 -2.4751  0.1529
 1679TIP3    H226673   0.087   3.150   1.289  0.6441 -0.6158  0.3815
 1680TIP3   OH226674   5.626   3.793   6.491  0.2508  0.0287  0.0495
 1680TIP3    H126675   5.712   3.819   6.522  0.1032 -0.8376  1.2807
 1680TIP3    H226676   5.643   3.741   6.413  0.8779 -0.3846  0.4516
 1681TIP3   OH226677   2.020   2.810   1.246  0.3402 -0.1408 -0.4057
 1681TIP3    H126678   1.996   2.718   1.251  1.3335 -0.3459  0.9235
 1681TIP3    H226679   2.079   2.816   1.171  0.3610 -0.5945 -0.4265
 1682TIP3   OH226680   0.646   1.927   7.637  0.1338  0.2417 -0.3600
 1682TIP3    H126681   0.700   1.881   7.701  0.5717  0.3369 -0.6576
 1682TIP3    H226682   0.676   1.895   7.552 -0.0082  0.5855 -0.5447
 1683TIP3   OH226683   0.732   2.701   0.616  0.3762  0.1857  0.2347
 1683TIP3    H126684   0.690   2.778   0.652 -1.6454 -0.2742 -0.9778
 1683TIP3    H226685   0.702   2.628   0.671 -1.6078 -0.3215 -1.3718
 1684TIP3   OH226686   6.984   2.358   6.446  0.3541  0.3452  0.0288
 1684TIP3    H126687   6.925   2.419   6.401  1.7265  2.0149  0.3783
 1684TIP3    H226688   7.054   2.343   6.383 -1.1932 -3.1175 -1.1400
 1685TIP3   OH226689   2.223   1.893   7.666  0.2655  0.3125 -0.1286
 1685TIP3    H126690   2.258   1.804   7.667  0.4156  0.3706 -0.2250
 1685TIP3    H226691   2.128   1.882   7.657  0.2819  0.1612 -0.1017
 1686TIP3   OH226692   3.264   6.618   0.262 -0.4707 -0.3794  0.2030
 1686TIP3    H126693   3.211   6.588   0.337 -0.8227  0.5650  0.3395
 1686TIP3    H226694   3.284   6.709   0.282 -0.5498 -0.1226 -0.8516
 1687TIP3   OH226695   4.558   3.474   0.807  0.1858  0.4415 -0.0842
 1687TIP3    H126696   4.509   3.521   0.875 -0.6167 -2.2417  1.3668
 1687TIP3    H226697   4.642   3.454   0.847 -0.1781 -0.8958  0.0675
 1688TIP3   OH226698   5.922   7.125   0.965 -0.1285  0.0273  0.3600
 1688TIP3    H126699   5.849   7.089   0.914  1.2063  0.6804 -2.2154
 1688TIP3    H226700   5.999   7.080   0.931  0.7591 -0.5505  2.9252
 1689TIP3   OH226701   5.339   2.597   5.601  0.3909 -0.6758 -0.1261
 1689TIP3    H126702   5.407   2.618   5.665  0.6355  0.9710 -0.8634
 1689TIP3    H226703   5.375   2.626   5.517 -0.6445 -1.1134 -0.7423
 1690TIP3   OH226704   6.564   4.177   0.305  0.1848 -0.0623  0.2505
 1690TIP3    H126705   6.560   4.107   0.370 -0.9444 -1.1303 -0.8973
 1690TIP3    H226706   6.596   4.133   0.226  1.3336  1.1572  0.0010
 1691TIP3   OH226707   3.450   0.998   1.532  0.6330 -0.3187  0.4117
 1691TIP3    H126708   3.433   1.049   1.453  2.6061  0.8229  0.6737
 1691TIP3    H226709   3.508   0.928   1.504  0.7938 -0.3133  0.7275
 1692TIP3   OH226710   0.779   4.648   0.177  0.1400 -0.4573  0.4728
 1692TIP3    H126711   0.686   4.654   0.198  0.0631  3.4556 -0.3698
 1692TIP3    H226712   0.820   4.719   0.226  2.2373 -0.3705 -1.2386
 1693TIP3   OH226713   4.621   5.037   0.714  0.4805 -0.1588  0.4021
 1693TIP3    H126714   4.530   5.029   0.685  0.5290  1.8686 -0.5295
 1693TIP3    H226715   4.667   4.968   0.667 -0.2138  0.2666 -0.9754
 1694TIP3   OH226716   0.221   4.862   7.364 -0.3951  0.2729  0.7955
 1694TIP3    H126717   0.292   4.837   7.304 -1.9495 -0.5601 -0.7818
 1694TIP3    H226718   0.153   4.899   7.308 -0.7004  2.3762  2.4307
 1695TIP3   OH226719   4.720   3.744   6.322 -0.2960  0.2220  0.9989
 1695TIP3    H126720   4.669   3.675   6.364  0.2804 -0.0870  1.2043
 1695TIP3    H226721   4.808   3.706   6.313 -0.6323 -0.1479 -1.4576
 1696TIP3   OH226722   0.801   1.325   2.349  0.2664 -0.0254 -0.6509
 1696TIP3    H126723   0.748   1.372   2.414 -2.0311  0.5789 -2.8220
 1696TIP3    H226724   0.788   1.233   2.369  1.5925  0.1181  1.1815
 1697TIP3   OH226725   5.064   2.993   8.025  0.5824  0.1044 -0.1804
 1697TIP3    H126726   5.156   2.975   8.044  0.5781 -0.1903 -0.4416
 1697TIP3    H226727   5.018   2.966   8.104  0.5651 -1.1311 -0.5982
 1698TIP3   OH226728   1.441   1.440   2.242  0.5448 -0.6683 -0.2988
 1698TIP3    H126729   1.350   1.413   2.253  0.3335  0.4832  1.0360
 1698TIP3    H226730   1.481   1.369   2.191 -0.9567 -1.4474 -0.4517
 1699TIP3   OH226731   2.318   2.061   6.507 -0.6177 -0.2680  0.0945
 1699TIP3    H126732   2.359   2.147   6.508 -1.3196  0.1078  2.2677
 1699TIP3    H226733   2.225   2.078   6.493 -0.9529 -0.5148  1.7920
 1700TIP3   OH226734   5.884   1.785   2.098  0.7889  0.0744  0.0541
 1700TIP3    H126735   5.942   1.804   2.171 -0.8451 -0.5373  1.5839
 1700TIP3    H226736   5.857   1.694   2.111  0.3027  0.0168 -1.1901
 1701TIP3   OH226737   5.271   5.271   7.003 -0.0901 -0.4985  0.6756
 1701TIP3    H126738   5.349   5.226   6.972  0.2065 -0.5418  1.4649
 1701TIP3    H226739   5.199   5.213   6.979  0.0764 -0.2743 -0.4031
 1702TIP3   OH226740   7.023   4.945   7.632  0.0831  0.5243  0.4536
 1702TIP3    H126741   6.979   4.898   7.561 -0.5035  0.7213  0.6753
 1702TIP3    H226742   7.116   4.938   7.612 -0.1028  1.4897 -0.9144
 1703TIP3   OH226743   6.108   6.357   6.761  0.0724 -0.6730  0.3400
 1703TIP3    H126744   6.073   6.344   6.673 -1.8808 -0.8912  1.0997
 1703TIP3    H226745   6.160   6.437   6.755 -2.2766  0.8933 -0.4412
 1704TIP3   OH226746   0.803   1.817   1.245  0.1383  0.2485 -0.7200
 1704TIP3    H126747   0.806   1.773   1.330  0.9238  0.7138 -0.5008
 1704TIP3    H226748   0.755   1.898   1.261  2.5032  1.6188 -0.0874
 1705TIP3   OH226749   1.501   6.394   1.854  0.5304 -0.3233  0.0225
 1705TIP3    H126750   1.587   6.418   1.887  0.6419 -0.2971 -0.2817
 1705TIP3    H226751   1.495   6.300   1.870 -0.4534  0.0777  2.4605
 1706TIP3   OH226752   1.239   5.874   0.943  0.0723 -0.4442 -0.7134
 1706TIP3    H126753   1.314   5.890   0.999  0.0508 -0.4219 -0.6908
 1706TIP3    H226754   1.248   5.782   0.916  0.6855 -0.1411 -1.5804
 1707TIP3   OH226755   2.465   3.907   6.460 -0.3620  0.0619  0.0739
 1707TIP3    H126756   2.409   3.836   6.428  1.7580 -1.2724 -0.8703
 1707TIP3    H226757   2.487   3.882   6.549  0.9602 -0.9150 -0.4890
 1708TIP3   OH226758   4.751   5.636   7.051  0.0399 -0.0491 -0.6565
 1708TIP3    H126759   4.817   5.606   6.987  0.9158  0.9499 -0.2530
 1708TIP3    H226760   4.802   5.654   7.130 -0.5499  1.6804 -0.6300
 1709TIP3   OH226761   3.529   0.380   2.036  0.0527 -0.1789 -0.0238
 1709TIP3    H126762   3.579   0.299   2.042  1.0507  0.4625  0.6120
 1709TIP3    H226763   3.568   0.427   1.962 -0.1061 -0.0102 -0.0003
 1710TIP3   OH226764   2.498   3.709   1.633 -0.3981  0.4721 -0.3016
 1710TIP3    H126765   2.534   3.790   1.670  1.6874  0.3338 -1.8340
 1710TIP3    H226766   2.573   3.650   1.627 -0.8062  0.1347 -3.6666
 1711TIP3   OH226767   0.399   6.377   6.396  0.1845  0.5464  0.4123
 1711TIP3    H126768   0.417   6.336   6.481  0.1068  1.7818  1.0353
 1711TIP3    H226769   0.339   6.316   6.353  1.6822 -1.0406  0.4465
 1712TIP3   OH226770   7.094   1.284   6.352  0.2094  0.1440  0.3258
 1712TIP3    H126771   7.132   1.248   6.432 -3.7969 -1.7117  1.6864
 1712TIP3    H226772   7.036   1.354   6.383 -0.2893  0.3955 -1.1119
 1713TIP3   OH226773   3.758   6.934   8.090 -0.2376  0.2841  0.3743
 1713TIP3    H126774   3.708   6.874   8.145  0.8707 -0.6791  0.3750
 1713TIP3    H226775   3.805   6.877   8.029 -0.5488  1.2657 -0.8170
 1714TIP3   OH226776   6.856   1.328   6.960 -0.0842 -0.2608  0.2315
 1714TIP3    H126777   6.932   1.325   7.018 -0.3372 -0.8077  0.5496
 1714TIP3    H226778   6.885   1.284   6.880  0.2047  0.3193  0.0146
 1715TIP3   OH226779   2.144   2.390   7.943 -0.0124 -0.1792 -0.5453
 1715TIP3    H126780   2.162   2.378   7.850  0.7405  0.0719 -0.4434
 1715TIP3    H226781   2.130   2.484   7.953  0.7733 -0.0768 -0.2790
 1716TIP3   OH226782   0.192   4.913   1.336  0.4521 -0.4669  1.0967
 1716TIP3    H126783   0.185   5.006   1.358  1.1703 -0.2491  0.4437
 1716TIP3    H226784   0.286   4.897   1.332  0.3302 -1.0911  0.6695
 1717TIP3   OH226785   3.885   0.746   0.790 -0.2627 -0.0781  0.4402
 1717TIP3    H126786   3.962   0.690   0.779  2.1005  2.6650  1.6232
 1717TIP3    H226787   3.884   0.801   0.711  0.3000  1.3114  1.3778
 1718TIP3   OH226788   0.983   0.883   7.098 -0.5872 -0.3293 -0.2987
 1718TIP3    H126789   0.898   0.898   7.140 -0.1488  0.9515  0.1692
 1718TIP3    H226790   1.043   0.865   7.170 -0.2511 -0.2261 -0.5484
 1719TIP3   OH226791   7.034   1.604   7.561  0.2470  0.1368 -0.3820
 1719TIP3    H126792   7.104   1.662   7.592  0.1198  0.4239 -0.6275
 1719TIP3    H226793   7.033   1.531   7.623  0.9540 -0.0095 -0.5326
 1720TIP3   OH226794   5.520   0.602   6.509  0.0797 -0.3566 -0.0484
 1720TIP3    H126795   5.609   0.576   6.488  0.2515  1.1549 -1.4098
 1720TIP3    H226796   5.474   0.520   6.525  2.0214 -1.1196  2.2088
 1721TIP3   OH226797   0.136   1.371   1.626  0.6440 -0.1597 -1.0788
 1721TIP3    H126798   0.167   1.281   1.636  1.2362  0.2236  1.2059
 1721TIP3    H226799   0.041   1.364   1.615  0.5387 -1.0437  0.2240
 1722TIP3   OH226800   0.898   4.163   0.183  0.8760 -0.4637 -0.5808
 1722TIP3    H126801   0.898   4.089   0.123  0.2963 -1.5033  0.6455
 1722TIP3    H226802   0.806   4.172   0.210  0.6707  1.5874 -1.7058
 1723TIP3   OH226803   6.750   5.546   6.133 -0.0126 -0.4253  0.8437
 1723TIP3    H126804   6.671   5.595   6.110  0.1131 -1.1451 -1.3474
 1723TIP3    H226805   6.719   5.475   6.188 -0.7964 -0.2753  0.6102
 1724TIP3   OH226806   1.623   3.328   7.195  0.0542 -0.1018 -0.2260
 1724TIP3    H126807   1.635   3.234   7.209  4.4624  0.2502 -0.1739
 1724TIP3    H226808   1.653   3.342   7.105 -0.8321  1.2850 -0.3315
 1725TIP3   OH226809   2.063   3.773   0.808 -0.1594 -0.3493 -0.5540
 1725TIP3    H126810   1.994   3.776   0.740 -1.4036 -0.7875  0.6434
 1725TIP3    H226811   2.018   3.800   0.888  1.2974  0.1927  0.1088
 1726TIP3   OH226812   5.451   4.561   5.834  0.2955 -0.7410  0.2885
 1726TIP3    H126813   5.511   4.602   5.773  2.2473  0.4103  2.7920
 1726TIP3    H226814   5.503   4.492   5.876 -1.1145 -1.7937  0.3951
 1727TIP3   OH226815   4.417   4.008   8.006 -0.6041 -0.0399  0.2360
 1727TIP3    H126816   4.437   4.081   7.947  0.2423 -1.4005 -1.2746
 1727TIP3    H226817   4.343   3.964   7.965  0.4188 -1.3962 -0.2443
 1728TIP3   OH226818   4.785   4.892   7.872  0.1339 -0.0192 -0.3185
 1728TIP3    H126819   4.768   4.836   7.796  0.8465 -0.5645 -0.0897
 1728TIP3    H226820   4.703   4.940   7.886 -0.2109 -0.3901 -1.0339
 1729TIP3   OH226821   2.304   2.274   7.263 -0.1663  0.4842  0.1441
 1729TIP3    H126822   2.345   2.193   7.295  1.1205  1.2784  0.5394
 1729TIP3    H226823   2.339   2.343   7.320  0.7448  1.6819 -1.7817
 1730TIP3   OH226824   5.473   3.143   7.738  0.2427 -0.0743  0.3519
 1730TIP3    H126825   5.398   3.089   7.712  1.3675 -1.2766 -0.5638
 1730TIP3    H226826   5.518   3.090   7.804  0.4123  0.5397  0.7346
 1731TIP3   OH226827   0.586   0.762   1.319 -0.7869 -0.0280 -0.0792
 1731TIP3    H126828   0.537   0.817   1.380 -2.1883  1.1137 -2.0868
 1731TIP3    H226829   0.618   0.824   1.252 -0.8873 -1.4086 -1.4567
 1732TIP3   OH226830   0.312   6.473   0.777 -0.0018  0.1023 -0.0164
 1732TIP3    H126831   0.302   6.527   0.699  0.5550  2.1876  1.2815
 1732TIP3    H226832   0.319   6.536   0.849  1.9633 -1.6577  1.4492
 1733TIP3   OH226833   4.993   1.087   6.272 -0.3543 -0.6300  0.1749
 1733TIP3    H126834   5.001   1.126   6.185  0.5970 -1.9407 -0.3664
 1733TIP3    H226835   4.899   1.073   6.283 -0.5912  0.5944 -0.1449
 1734TIP3   OH226836   1.934   1.221   8.009  0.5183  0.3233  0.0645
 1734TIP3    H126837   1.990   1.223   8.087 -0.3240  0.7890  0.6751
 1734TIP3    H226838   1.919   1.314   7.989  0.2610  0.2040 -0.3012
 1735TIP3   OH226839   1.069   0.518   0.061 -0.2956  0.1268  0.2355
 1735TIP3    H126840   0.995   0.462   0.085 -0.3987  0.2021  0.0910
 1735TIP3    H226841   1.029   0.603   0.042 -0.3027 -0.1400 -0.9845
 1736TIP3   OH226842   3.306   2.011   1.032 -0.2666 -0.3436 -0.8381
 1736TIP3    H126843   3.396   1.980   1.033 -0.8195 -2.0033  0.0696
 1736TIP3    H226844   3.286   2.031   1.123 -1.1468 -1.0071 -0.8717
 1737TIP3   OH226845   4.970   3.791   0.620  0.0601  0.2614 -0.5032
 1737TIP3    H126846   5.013   3.875   0.633  0.3880 -0.0290  0.4383
 1737TIP3    H226847   4.959   3.783   0.526 -1.2920  2.0072 -0.5419
 1738TIP3   OH226848   4.667   6.851   7.772  0.1172 -0.0399  0.4523
 1738TIP3    H126849   4.643   6.873   7.862  1.0024 -0.0969  0.7072
 1738TIP3    H226850   4.752   6.892   7.758 -0.6024  1.1064 -0.8193
 1739TIP3   OH226851   4.532   3.630   1.067  0.2016  0.2312  0.7473
 1739TIP3    H126852   4.511   3.720   1.044 -0.5127 -0.1886 -0.3163
 1739TIP3    H226853   4.458   3.601   1.121 -0.1988 -0.1022  0.0347
 1740TIP3   OH226854   6.945   2.207   1.042  0.5343 -0.0259 -0.0591
 1740TIP3    H126855   7.000   2.133   1.016 -0.1134 -0.8090  0.7796
 1740TIP3    H226856   6.914   2.185   1.129  2.1161  2.2226  1.1971
 1741TIP3   OH226857   6.343   0.592   1.207 -0.1024  0.7962  0.0829
 1741TIP3    H126858   6.432   0.628   1.198 -0.8389  2.7994  0.3728
 1741TIP3    H226859   6.287   0.653   1.159 -1.6577  1.0646  2.1284
 1742TIP3   OH226860   3.927   5.303   7.307  0.0574  0.4277 -0.2740
 1742TIP3    H126861   3.861   5.310   7.237  0.0628  2.3446 -0.1451
 1742TIP3    H226862   3.899   5.367   7.372  1.8777  1.0603 -0.0677
 1743TIP3   OH226863   3.171   7.029   7.905  0.0793 -0.0376 -0.6773
 1743TIP3    H126864   3.124   7.110   7.920 -0.5185 -0.1280 -1.9436
 1743TIP3    H226865   3.120   6.962   7.950  1.1636  0.3965  1.3190
 1744TIP3   OH226866   3.750   0.497   6.256  0.2824 -0.3267 -0.1789
 1744TIP3    H126867   3.729   0.519   6.347 -0.3827  2.0684 -0.8360
 1744TIP3    H226868   3.839   0.460   6.259  0.5624  0.4236  1.3543
 1745TIP3   OH226869   0.540   1.786   7.984 -0.4834  0.4096 -0.1066
 1745TIP3    H126870   0.541   1.880   7.969  0.5503  0.3049 -0.7722
 1745TIP3    H226871   0.538   1.776   8.079  0.5372  1.1033 -0.0031
 1746TIP3   OH226872   4.125   0.250   6.618 -0.2704 -0.4980  0.1017
 1746TIP3    H126873   4.122   0.196   6.539 -3.2319  0.6513 -0.7097
 1746TIP3    H226874   4.040   0.236   6.660  0.8478 -0.2792  2.5595
 1747TIP3   OH226875   1.060   5.770   6.707 -0.1252 -0.0941 -0.0429
 1747TIP3    H126876   1.123   5.702   6.686  0.2588  0.3116 -0.2192
 1747TIP3    H226877   1.012   5.785   6.625 -0.7043 -0.6591  0.1860
 1748TIP3   OH226878   5.004   1.833   1.583  0.2027 -0.4227 -0.0785
 1748TIP3    H126879   4.950   1.853   1.660  0.4910  0.9559 -0.2037
 1748TIP3    H226880   5.081   1.790   1.618  0.2847  0.1074  0.4046
 1749TIP3   OH226881   3.830   5.739   0.860 -0.2200 -0.2140 -0.5420
 1749TIP3    H126882   3.872   5.740   0.946  1.7571  0.8349 -1.4498
 1749TIP3    H226883   3.758   5.801   0.868  0.9926  1.1930 -0.0796
 1750TIP3   OH226884   1.528   3.709   1.348  0.0070 -0.6385  0.2380
 1750TIP3    H126885   1.576   3.685   1.427 -1.5570  2.1703  2.2022
 1750TIP3    H226886   1.545   3.803   1.337 -1.9742 -0.3843 -1.1880
 1751TIP3   OH226887   0.046   5.992   0.792 -0.5548 -0.6451  0.3889
 1751TIP3    H126888   0.103   5.915   0.793  0.5304  0.1099 -0.6827
 1751TIP3    H226889   0.102   6.063   0.824 -0.8367  0.1339 -0.7901
 1752TIP3   OH226890   4.349   1.654   6.837 -0.1691  0.1860  0.5962
 1752TIP3    H126891   4.375   1.638   6.927 -0.8145  0.6671  0.8682
 1752TIP3    H226892   4.409   1.723   6.807  0.7401 -0.7022  0.3119
 1753TIP3   OH226893   1.958   4.659   0.770  0.0893  0.3540 -0.7219
 1753TIP3    H126894   2.026   4.717   0.735 -0.0105  0.7427 -0.2851
 1753TIP3    H226895   1.966   4.667   0.865 -0.0388 -0.2228 -0.6577
 1754TIP3   OH226896   6.104   1.440   0.874  0.2260 -0.3168 -0.4202
 1754TIP3    H126897   6.056   1.521   0.890  1.6180  0.5453 -0.4477
 1754TIP3    H226898   6.114   1.400   0.961 -1.4416 -1.0620 -0.5432
 1755TIP3   OH226899   3.098   4.722   7.247  0.4382 -0.1718  0.5162
 1755TIP3    H126900   3.015   4.678   7.230  2.2488 -2.7845 -2.6474
 1755TIP3    H226901   3.151   4.657   7.292  1.4472  0.7262  0.6698
 1756TIP3   OH226902   0.001   2.540   0.783  0.5347 -0.1829  0.7736
 1756TIP3    H126903  -0.036   2.525   0.696  1.0813 -2.8003  0.8998
 1756TIP3    H226904  -0.074   2.565   0.838 -0.0028  0.3533 -0.1822
 1757TIP3   OH226905   5.727   6.906   8.014  0.2982  0.0443 -0.2498
 1757TIP3    H126906   5.691   6.860   8.089  0.1640  0.5652  0.0120
 1757TIP3    H226907   5.728   6.841   7.944  1.6474 -0.8129  0.5355
 1758TIP3   OH226908   1.732   2.918   1.878 -0.0325 -0.7473  0.0240
 1758TIP3    H126909   1.824   2.937   1.859 -0.6594  1.6083 -1.0241
 1758TIP3    H226910   1.693   2.900   1.792 -1.2964  2.2461 -0.1417
 1759TIP3   OH226911   4.629   0.433   8.078 -0.4127  0.7815  0.0585
 1759TIP3    H126912   4.542   0.453   8.112 -1.2423 -1.4559 -0.5508
 1759TIP3    H226913   4.614   0.377   8.002  1.5265 -1.5630  1.2350
 1760TIP3   OH226914   4.412   0.036   0.920 -0.0565 -0.3153 -0.6854
 1760TIP3    H126915   4.438  -0.041   0.871  1.2418  0.9784 -2.1341
 1760TIP3    H226916   4.351   0.082   0.863  0.5973  0.6510 -0.6175
 1761TIP3   OH226917   3.447   6.369   8.061  0.5546 -0.0322 -0.8179
 1761TIP3    H126918   3.430   6.375   8.155 -0.3928  1.6514 -1.0619
 1761TIP3    H226919   3.365   6.397   8.020  1.0198 -0.5324 -2.1574
 1762TIP3   OH226920   3.894   1.705   5.967  0.1780 -0.6378 -0.1220
 1762TIP3    H126921   3.959   1.686   6.036  0.2127  1.3752  0.4861
 1762TIP3    H226922   3.929   1.783   5.923 -1.8485  0.5915  0.3130
 1763TIP3   OH226923   1.534   4.584   7.463 -0.2703  0.5291  0.3435
 1763TIP3    H126924   1.480   4.510   7.432  0.8495 -0.1842  0.0499
 1763TIP3    H226925   1.475   4.633   7.521 -0.7986 -1.0595  1.2086
 1764TIP3   OH226926   3.960   2.816   0.096  0.0381 -0.0679  0.4519
 1764TIP3    H126927   3.990   2.755   0.163  0.8135 -0.8998 -0.6165
 1764TIP3    H226928   3.915   2.761   0.032 -3.0629  1.0182  1.5249
 1765TIP3   OH226929   2.972   4.924   6.782 -0.1556 -0.8360 -0.2633
 1765TIP3    H126930   3.002   4.925   6.691  1.0156 -0.5904  0.1049
 1765TIP3    H226931   3.048   4.893   6.832 -1.0198 -1.6882  0.5638
 1766TIP3   OH226932   2.393   4.689   8.120  0.2194 -0.5655 -0.2301
 1766TIP3    H126933   2.316   4.698   8.175  0.2509  0.1061 -0.2825
 1766TIP3    H226934   2.455   4.754   8.154  1.1884 -1.8288  0.5067
 1767TIP3   OH226935   5.885   0.715   7.411 -0.5117 -0.2672 -0.1543
 1767TIP3    H126936   5.941   0.640   7.391 -0.2087 -0.7915  2.2497
 1767TIP3    H226937   5.946   0.789   7.415 -0.6291 -0.0896 -1.3735
 1768TIP3   OH226938   5.502   0.669   7.742 -0.5520 -0.3191  0.7485
 1768TIP3    H126939   5.581   0.707   7.705  1.3760 -3.2471  1.4549
 1768TIP3    H226940   5.496   0.706   7.830  0.6606 -0.7838  1.0465
 1769TIP3   OH226941   4.894   0.706   0.906  0.3890  0.0306 -0.0483
 1769TIP3    H126942   4.804   0.732   0.885  0.3875 -0.2858 -0.4337
 1769TIP3    H226943   4.948   0.768   0.859  0.4308 -1.7833 -2.6329
 1770TIP3   OH226944   5.921   6.256   6.269  0.7253 -0.3966  0.7967
 1770TIP3    H126945   5.850   6.288   6.215 -1.0907 -0.9785  2.7143
 1770TIP3    H226946   5.987   6.326   6.267 -0.0410  0.3180 -0.6988
 1771TIP3   OH226947   1.883   0.928   6.228  0.2965  0.2480 -0.4099
 1771TIP3    H126948   1.868   0.990   6.300 -0.5989 -0.2435 -0.1658
 1771TIP3    H226949   1.887   0.842   6.271 -1.7841 -0.2287 -1.0913
 1772TIP3   OH226950   1.370   0.154   8.121  0.4596 -0.2047 -0.2895
 1772TIP3    H126951   1.318   0.089   8.168  0.0464  0.5479  0.3316
 1772TIP3    H226952   1.353   0.236   8.168  1.2850  0.2726 -0.8041
 1773TIP3   OH226953   2.476   5.520   7.733 -0.1640 -0.3397  0.4176
 1773TIP3    H126954   2.505   5.594   7.786 -0.7679 -0.3838  0.8209
 1773TIP3    H226955   2.444   5.456   7.797 -1.8232  0.0045 -0.0338
 1774TIP3   OH226956   5.375   1.959   1.080  0.0746  0.0433  0.2010
 1774TIP3    H126957   5.344   1.902   1.009 -2.7100 -1.6315  2.5676
 1774TIP3    H226958   5.454   1.915   1.112  0.7363  0.2292 -1.1002
 1775TIP3   OH226959   3.064   0.457   0.793  0.3492 -0.0442 -0.3042
 1775TIP3    H126960   3.143   0.500   0.760 -0.2448  0.6236 -0.9034
 1775TIP3    H226961   3.039   0.508   0.870  0.1497  0.1484 -0.4922
 1776TIP3   OH226962   1.787   5.724   7.264  0.3224 -0.5351  0.0508
 1776TIP3    H126963   1.860   5.678   7.221  0.0976 -2.5961  1.7307
 1776TIP3    H226964   1.818   5.739   7.353 -0.0401  1.7414 -0.1578
 1777TIP3   OH226965   6.186   1.080   0.854  0.0295  0.4193 -0.0606
 1777TIP3    H126966   6.209   1.018   0.924 -0.7501  0.2812  0.0782
 1777TIP3    H226967   6.236   1.159   0.875 -1.4197  0.9541  1.5891
 1778TIP3   OH226968   5.055   3.385   8.034  0.1505 -0.5730 -0.4522
 1778TIP3    H126969   5.103   3.324   7.978 -0.6660 -1.3800 -0.3005
 1778TIP3    H226970   5.120   3.414   8.098  1.0083  0.0956 -1.5727
 1779TIP3   OH226971   3.714   5.112   7.173 -0.1525 -0.6190 -0.1306
 1779TIP3    H126972   3.662   5.185   7.141 -0.1015 -0.7331 -0.4795
 1779TIP3    H226973   3.690   5.103   7.265  0.4164  0.3347  0.1287
 1780TIP3   OH226974   1.536   2.932   6.645  0.1728  0.1640  0.2190
 1780TIP3    H126975   1.450   2.940   6.687  0.1430  0.1954  0.1533
 1780TIP3    H226976   1.599   2.954   6.714  0.3020 -2.7473  1.1239
 1781TIP3   OH226977   4.850   4.647   7.755  0.3230  0.1550  0.3917
 1781TIP3    H126978   4.929   4.648   7.700  1.2897  1.8721  1.6980
 1781TIP3    H226979   4.856   4.565   7.804 -0.1687 -1.0406 -1.4272
 1782TIP3   OH226980   0.714   6.507   1.290 -0.1848 -1.0049 -0.4236
 1782TIP3    H126981   0.697   6.581   1.232  0.6895 -0.6870 -0.2886
 1782TIP3    H226982   0.727   6.433   1.231  0.3719 -0.7499 -0.6258
 1783TIP3   OH226983   0.621   5.405   0.879  0.0113 -0.0668  0.3787
 1783TIP3    H126984   0.645   5.496   0.898 -0.7527  0.3645 -0.5809
 1783TIP3    H226985   0.606   5.365   0.964  1.0018  0.5171  0.8444
 1784TIP3   OH226986   3.965   5.791   1.094 -0.2441 -0.0420  0.0430
 1784TIP3    H126987   4.059   5.795   1.077 -0.3050  0.3340 -0.2345
 1784TIP3    H226988   3.947   5.869   1.146 -0.1616 -0.8906  1.3782
 1785TIP3   OH226989   2.965   0.687   0.964 -0.7223  0.7020  0.1192
 1785TIP3    H126990   2.880   0.732   0.966 -0.5292  1.0780 -0.0542
 1785TIP3    H226991   2.990   0.680   1.056 -1.2288  0.0395  0.2106
 1786TIP3   OH226992   6.768   1.232   1.656 -0.0159 -0.0543  0.5485
 1786TIP3    H126993   6.757   1.188   1.572 -0.2142  0.9166  0.0565
 1786TIP3    H226994   6.757   1.162   1.721  0.8933 -0.9575 -0.2404
 1787TIP3   OH226995   0.007   1.086   8.051  0.6468 -0.0381  0.5084
 1787TIP3    H126996  -0.033   1.103   7.966 -1.2165  0.3975  1.4273
 1787TIP3    H226997   0.101   1.095   8.035  0.3324  0.2107 -1.4565
 1788TIP3   OH226998   5.964   5.871   0.652  0.0150  0.0336  0.2534
 1788TIP3    H126999   6.032   5.934   0.632 -0.8102  1.1489  0.8724
 1788TIP3    H227000   5.885   5.905   0.610 -0.6160 -0.1724  1.2222
 1789TIP3   OH227001   4.191   5.583   0.675  0.4071 -0.0821 -0.6572
 1789TIP3    H127002   4.214   5.492   0.656 -0.5397 -0.1255 -1.7141
 1789TIP3    H227003   4.235   5.602   0.757  0.9735 -1.3639 -0.6379
 1790TIP3   OH227004   6.986   1.653   8.127  0.4776  0.7808 -0.2126
 1790TIP3    H127005   7.019   1.623   8.042  1.7523 -0.4853  0.6652
 1790TIP3    H227006   6.899   1.686   8.109  0.4362 -0.1279 -1.9069
 1791TIP3   OH227007   5.708   5.956   0.534  0.2329  0.3766 -0.5714
 1791TIP3    H127008   5.630   5.975   0.586  0.0604 -0.9153 -0.3209
 1791TIP3    H227009   5.750   6.041   0.522  0.1850  0.7465  1.5072
 1792TIP3   OH227010   1.229   6.651   1.672 -0.2812 -0.2480 -0.6003
 1792TIP3    H127011   1.293   6.677   1.607 -0.2023  1.9050  0.2845
 1792TIP3    H227012   1.154   6.621   1.620 -0.1589  1.2467 -1.7150
 1793TIP3   OH227013   0.991   6.025   6.568  0.4226 -0.0768  0.2708
 1793TIP3    H127014   1.009   5.964   6.496 -0.0808  2.0593 -1.7680
 1793TIP3    H227015   0.910   6.069   6.543  0.6421  1.2731  1.7767
 1794TIP3   OH227016   2.886   0.822   6.341  0.3279 -0.3274 -0.4886
 1794TIP3    H127017   2.978   0.807   6.364 -0.0189 -1.7297  0.0726
 1794TIP3    H227018   2.881   0.916   6.325  1.4747  0.1118  1.3433
 1795TIP3   OH227019   5.644   1.065   6.156  0.4984 -0.0056  0.1046
 1795TIP3    H127020   5.573   1.001   6.157 -1.1072  1.6818  0.1807
 1795TIP3    H227021   5.723   1.014   6.175 -0.3634 -2.2882 -1.9402
 1796TIP3   OH227022   6.208   3.439   1.732 -0.3106  0.1693 -0.3730
 1796TIP3    H127023   6.237   3.432   1.642 -1.7218  0.6484 -0.8871
 1796TIP3    H227024   6.150   3.364   1.744 -0.4028  0.3036  0.0306
 1797TIP3   OH227025   5.504   1.116   0.747  0.1622 -1.2074  0.6981
 1797TIP3    H127026   5.526   1.054   0.817 -3.6906 -2.3230  1.1804
 1797TIP3    H227027   5.483   1.197   0.793  3.3464  0.0169  0.2114
 1798TIP3   OH227028   3.728   2.734   6.836 -0.2702  0.4208 -0.3233
 1798TIP3    H127029   3.679   2.666   6.790 -0.0016 -1.2167  1.6672
 1798TIP3    H227030   3.786   2.686   6.895  0.7563  2.3822  0.3631
 1799TIP3   OH227031   6.443   2.590   0.581 -0.4109  0.2934 -0.1205
 1799TIP3    H127032   6.382   2.664   0.585 -0.3469  0.3558 -0.2925
 1799TIP3    H227033   6.412   2.537   0.508  0.3210  0.8408 -0.8513
 1800TIP3   OH227034   3.450   2.629   0.482  0.0978 -0.5883  0.3912
 1800TIP3    H127035   3.527   2.628   0.425  0.1092 -0.9339  0.4136
 1800TIP3    H227036   3.418   2.719   0.477 -1.0022 -1.0108 -1.6411
 1801TIP3   OH227037   4.405   0.157   1.165  0.5613  0.0288 -0.0039
 1801TIP3    H127038   4.397   0.086   1.228 -1.5352  2.9495  3.4372
 1801TIP3    H227039   4.404   0.114   1.080 -0.2535 -4.0201  1.8229
 1802TIP3   OH227040   4.636   6.814   0.490 -0.3179  0.0871  0.1985
 1802TIP3    H127041   4.644   6.855   0.576 -0.3654  1.7953 -0.5664
 1802TIP3    H227042   4.619   6.722   0.508 -1.8576  0.6834  2.0186
 1803TIP3   OH227043   1.945   6.744   1.372  0.4603  0.1796  0.1594
 1803TIP3    H127044   1.982   6.661   1.401 -0.3052 -0.8735 -1.6455
 1803TIP3    H227045   1.852   6.724   1.359  0.3965  1.1086 -0.9473
 1804TIP3   OH227046   0.778   2.554   5.925  0.1651 -0.1430  0.5655
 1804TIP3    H127047   0.797   2.630   5.979  1.5738 -1.0072  1.3478
 1804TIP3    H227048   0.854   2.547   5.867 -1.0903  0.4835 -1.2499
 1805TIP3   OH227049   0.047   2.927   7.101  0.2687  0.4460 -0.1126
 1805TIP3    H127050   0.005   2.856   7.054  1.6454 -0.1159 -0.5639
 1805TIP3    H227051  -0.016   2.954   7.168 -0.4818 -0.8387 -0.2848
 1806TIP3   OH227052   0.142   3.094   0.844 -0.0882 -0.5169  0.2439
 1806TIP3    H127053   0.052   3.066   0.859 -0.2328  0.1595  0.6737
 1806TIP3    H227054   0.141   3.188   0.863  0.4506 -0.2689 -0.8613
 1807TIP3   OH227055   6.974   0.585   7.667  0.1688  0.6353  0.4604
 1807TIP3    H127056   7.069   0.578   7.659  0.1523  1.8162 -1.3469
 1807TIP3    H227057   6.942   0.496   7.651  0.9601  0.1390  1.4943
 1808TIP3   OH227058   4.189   1.249   6.246  0.6943  0.5398 -0.0261
 1808TIP3    H127059   4.260   1.301   6.284  0.2616  1.0978  0.0407
 1808TIP3    H227060   4.229   1.166   6.224  1.6816  1.3037 -1.1960
 1809TIP3   OH227061   4.106   5.372   7.090  0.4120  0.5336 -0.0830
 1809TIP3    H127062   4.200   5.364   7.104  0.5693 -0.1163 -1.3444
 1809TIP3    H227063   4.067   5.350   7.175  1.3609 -0.2832  0.1569
 1810TIP3   OH227064   2.245   4.065   1.239 -0.0220 -0.5356 -0.0876
 1810TIP3    H127065   2.238   3.983   1.287  2.0127 -0.1687  0.9263
 1810TIP3    H227066   2.313   4.049   1.173  0.0611  0.2027 -0.1901
 1811TIP3   OH227067   0.259   1.436   6.364  0.1719 -0.9180  0.0930
 1811TIP3    H127068   0.217   1.363   6.410 -1.4513 -0.3868 -0.4776
 1811TIP3    H227069   0.264   1.407   6.273 -1.6676  0.1113 -0.3948
 1812TIP3   OH227070   3.577   5.632   6.930  0.0540 -0.0556 -0.4464
 1812TIP3    H127071   3.570   5.564   6.863  1.7656 -0.4369 -0.2621
 1812TIP3    H227072   3.631   5.700   6.890 -1.0343  0.9091 -0.3596
 1813TIP3   OH227073   2.733   1.471   6.910 -0.4269 -0.8656 -0.6794
 1813TIP3    H127074   2.798   1.428   6.966 -1.4695 -1.3251  0.2462
 1813TIP3    H227075   2.654   1.417   6.921 -1.7303  1.1312  0.3574
 1814TIP3   OH227076   5.051   2.902   6.581  0.2947 -0.2301  0.2381
 1814TIP3    H127077   4.984   2.857   6.530  0.0210 -0.9823  1.2181
 1814TIP3    H227078   5.004   2.972   6.626  0.5703  0.5494 -0.6712
 1815TIP3   OH227079   0.777   4.538   7.886  0.6504 -1.0662  0.8377
 1815TIP3    H127080   0.718   4.609   7.912 -0.0706 -1.2313 -0.2873
 1815TIP3    H227081   0.783   4.482   7.964  1.2985  0.2385  1.7763
 1816TIP3   OH227082   5.045   0.051   1.025 -0.4595 -0.3884  0.2226
 1816TIP3    H127083   5.010   0.110   0.957 -2.3906 -2.1348 -0.4008
 1816TIP3    H227084   5.140   0.062   1.019 -0.6553  0.9066 -1.4902
 1817TIP3   OH227085   0.025   3.035   0.035  0.3628  0.3569 -0.0208
 1817TIP3    H127086   0.057   3.037   0.125  3.5898 -0.4073 -1.0245
 1817TIP3    H227087  -0.030   2.957   0.031 -0.1444  0.5999  1.3161
 1818TIP3   OH227088   4.135   4.242   2.151  0.7334 -0.2873 -0.5939
 1818TIP3    H127089   4.160   4.328   2.115 -0.5713  0.0342 -0.8010
 1818TIP3    H227090   4.089   4.199   2.079 -1.2180  0.0382  0.3879
 1819TIP3   OH227091   4.262   0.435   5.907 -0.4576  0.1217 -0.2887
 1819TIP3    H127092   4.303   0.388   5.835 -1.6611  0.5826 -1.3166
 1819TIP3    H227093   4.312   0.410   5.985  1.7540  0.6603 -1.4569
 1820TIP3   OH227094   1.576   6.997   7.995  0.2231 -0.1444  0.1531
 1820TIP3    H127095   1.654   7.052   8.009 -0.0793  0.0435  1.1626
 1820TIP3    H227096   1.509   7.058   7.963  0.7747 -0.4925 -1.8648
 1821TIP3   OH227097   5.783   0.299   1.472  0.0683  0.2531 -0.1391
 1821TIP3    H127098   5.701   0.269   1.511  0.7585 -0.0928  1.1019
 1821TIP3    H227099   5.772   0.284   1.378 -1.3747  0.4633 -0.0172
 1822TIP3   OH227100   0.266   3.667   7.236  0.0440 -0.5285 -0.6187
 1822TIP3    H127101   0.210   3.661   7.159 -1.6089  0.7044  0.4345
 1822TIP3    H227102   0.353   3.641   7.205 -0.7473 -0.8212 -2.6898
 1823TIP3   OH227103   5.881   0.450   0.378  0.2972 -0.5404  0.4719
 1823TIP3    H127104   5.840   0.400   0.449  0.0746  0.0051  0.7351
 1823TIP3    H227105   5.855   0.541   0.395  1.3088 -0.2289  0.4333
 1824TIP3   OH227106   1.471   4.361   0.846  0.4091  0.9552  0.1411
 1824TIP3    H127107   1.479   4.391   0.936 -0.8515 -2.1912  1.4769
 1824TIP3    H227108   1.378   4.372   0.825  0.6265  1.3408 -0.6510
 1825TIP3   OH227109   3.032   0.688   7.339  0.0469 -0.0837 -0.5266
 1825TIP3    H127110   3.103   0.751   7.352  0.4218 -0.7129  0.5617
 1825TIP3    H227111   2.976   0.699   7.415 -0.3224 -0.4909 -0.7365
 1826TIP3   OH227112   3.684   6.748   0.131 -0.4295 -0.1019  0.2069
 1826TIP3    H127113   3.727   6.669   0.098  0.1804  0.2154  0.2172
 1826TIP3    H227114   3.628   6.717   0.202  0.2911 -0.4509  0.6364
 1827TIP3   OH227115   6.705   0.113   0.249 -0.4483  0.6280 -0.0876
 1827TIP3    H127116   6.707   0.058   0.327 -0.2466 -0.1840 -0.6576
 1827TIP3    H227117   6.734   0.056   0.178 -1.2437  1.1644 -0.8710
 1828TIP3   OH227118   4.939   4.574   8.027  0.8353 -0.4076 -0.7039
 1828TIP3    H127119   4.990   4.589   8.107 -0.6309  0.7281  0.0821
 1828TIP3    H227120   4.950   4.655   7.977  1.2511 -0.8725 -1.3661
 1829TIP3   OH227121   6.527   3.786   6.260 -0.3211 -0.6945  0.3420
 1829TIP3    H127122   6.525   3.703   6.213 -0.8428  0.2292 -1.3563
 1829TIP3    H227123   6.502   3.851   6.195 -2.4593  0.5304  2.2247
 1830TIP3   OH227124   0.001   4.090   5.744  0.3584  0.1839  0.0889
 1830TIP3    H127125  -0.068   4.095   5.678  0.1125  2.0153  0.4459
 1830TIP3    H227126   0.013   4.180   5.773  0.7681 -0.5132  2.2483
 1831TIP3   OH227127   0.126   0.521   7.395  0.7445  0.4530 -0.2992
 1831TIP3    H127128   0.039   0.559   7.409  0.9109  0.3511  1.2957
 1831TIP3    H227129   0.176   0.592   7.354  0.4817  1.2989  0.7659
 1832TIP3   OH227130   6.967   0.229   1.488  0.7675 -0.1696 -0.0546
 1832TIP3    H127131   7.009   0.299   1.437 -0.8262  1.3073  0.5587
 1832TIP3    H227132   6.916   0.180   1.424  0.7490  0.1255 -0.2693
 1833TIP3   OH227133   5.866   0.735   1.360 -0.3314 -0.2304  0.0493
 1833TIP3    H127134   5.950   0.781   1.361 -0.3304 -0.2443  1.4620
 1833TIP3    H227135   5.868   0.679   1.437 -1.5320 -0.4278 -0.0495
 1834TIP3   OH227136   3.412   5.118   6.787 -0.2285  0.6748 -0.1514
 1834TIP3    H127137   3.471   5.109   6.861 -0.9148 -0.2262  0.3099
 1834TIP3    H227138   3.468   5.111   6.710  0.3630  0.6366  0.2805
 1835TIP3   OH227139   4.606   5.459   6.773 -0.2804 -0.4843  0.7153
 1835TIP3    H127140   4.696   5.492   6.769 -0.8827  1.2143  0.0798
 1835TIP3    H227141   4.553   5.533   6.743 -1.6912 -2.3271 -1.6403
 1836TIP3   OH227142   6.473   6.540   8.005 -0.0871  0.1119 -0.2024
 1836TIP3    H127143   6.560   6.531   8.042 -0.0456 -2.0153 -0.7268
 1836TIP3    H227144   6.413   6.517   8.077 -0.1460 -0.3229 -0.3906
 1837TIP3   OH227145   0.291   4.262   6.438 -0.1110  0.7399  0.3322
 1837TIP3    H127146   0.203   4.250   6.402  0.3834  2.2835 -1.5232
 1837TIP3    H227147   0.288   4.216   6.522 -1.5630 -2.4806 -1.2684
 1838TIP3   OH227148   5.594   2.626   6.316  0.1349  0.5357 -0.5544
 1838TIP3    H127149   5.674   2.660   6.275  0.9424 -1.6948 -0.9459
 1838TIP3    H227150   5.537   2.603   6.242  0.6690 -1.3517 -0.4249
 1839TIP3   OH227151   2.649   6.343   7.280 -0.4672  0.3018 -0.1103
 1839TIP3    H127152   2.704   6.403   7.229 -1.1991  1.2883  0.2259
 1839TIP3    H227153   2.560   6.374   7.266 -0.7865 -0.1790  0.7691
 1840TIP3   OH227154   2.961   2.457   0.720 -0.0338 -0.4700  0.3075
 1840TIP3    H127155   3.038   2.422   0.766 -1.7019 -0.2568  3.5476
 1840TIP3    H227156   2.910   2.380   0.695  0.0604 -0.5440  0.3448
 1841TIP3   OH227157   5.782   5.546   6.504 -0.0114 -0.0534 -0.3428
 1841TIP3    H127158   5.755   5.566   6.414 -1.6813  0.0916  0.1543
 1841TIP3    H227159   5.724   5.600   6.559 -0.6068 -1.8358  0.8779
 1842TIP3   OH227160   5.146   7.077   0.663 -0.1487 -0.2228  0.4005
 1842TIP3    H127161   5.127   7.148   0.724  1.5422 -0.7379  1.6095
 1842TIP3    H227162   5.062   7.035   0.648 -1.0098  1.3809  0.4599
 1843TIP3   OH227163   1.095   1.735   7.108  0.2472 -0.7983  0.5900
 1843TIP3    H127164   1.080   1.651   7.065  0.3657 -1.4479  1.7802
 1843TIP3    H227165   1.030   1.794   7.069  0.1640 -1.4340 -0.2563
 1844TIP3   OH227166   6.951   2.033   1.830  0.2468  0.1910  0.4647
 1844TIP3    H127167   7.040   1.999   1.819  0.4463  0.6169  0.7172
 1844TIP3    H227168   6.915   2.034   1.741 -0.0163 -1.3189  0.5265
 1845TIP3   OH227169   0.212   6.560   5.798  0.0322  0.2018 -0.0814
 1845TIP3    H127170   0.128   6.606   5.792 -1.4415 -2.2040  0.9629
 1845TIP3    H227171   0.209   6.495   5.728  0.3118 -0.9405  0.9351
 1846TIP3   OH227172   0.099   2.278   0.857  0.4876 -0.2672  0.4215
 1846TIP3    H127173   0.039   2.351   0.873  1.8357  0.8934  0.3789
 1846TIP3    H227174   0.158   2.279   0.932  0.3976 -1.4838  0.5311
 1847TIP3   OH227175   1.249   6.653   7.000  0.0746  0.2682 -0.3465
 1847TIP3    H127176   1.171   6.676   7.052 -0.3114 -1.6938  0.0288
 1847TIP3    H227177   1.223   6.671   6.910 -0.4199  0.6969 -0.1244
 1848TIP3   OH227178   1.808   0.898   7.576  0.1439 -0.6992  0.3363
 1848TIP3    H127179   1.755   0.978   7.578  0.8187 -0.2630  1.2334
 1848TIP3    H227180   1.805   0.865   7.665 -1.1639 -2.4026 -0.2841
 1849TIP3   OH227181   1.695   3.281   1.718 -0.6292 -0.6893 -0.7693
 1849TIP3    H127182   1.724   3.259   1.629  0.0413 -0.3969 -0.6298
 1849TIP3    H227183   1.602   3.256   1.720 -0.9722  0.3678 -1.9284
 1850TIP3   OH227184   2.868   1.077   1.363 -0.3784 -0.4137 -0.5630
 1850TIP3    H127185   2.831   1.082   1.274 -0.8132 -1.8253 -0.4867
 1850TIP3    H227186   2.849   0.988   1.391  1.0760 -0.4485  0.3855
 1851TIP3   OH227187   1.816   5.220   5.597 -0.0559  0.5473 -0.3830
 1851TIP3    H127188   1.824   5.286   5.528 -1.6393 -0.2150 -1.3510
 1851TIP3    H227189   1.722   5.210   5.609  0.1897 -0.2596  1.0125
 1852TIP3   OH227190   1.224   2.411   2.005  0.0527  0.2417 -0.5403
 1852TIP3    H127191   1.267   2.361   1.935 -0.0752 -0.0607 -0.4043
 1852TIP3    H227192   1.141   2.366   2.019  1.1415 -1.2954  1.5816
 1853TIP3   OH227193   3.128   4.176   6.544 -0.5985  0.2046  0.1182
 1853TIP3    H127194   3.200   4.229   6.575 -1.3948 -0.0966  2.7451
 1853TIP3    H227195   3.114   4.204   6.453  1.9644  1.1181 -0.0593
 1854TIP3   OH227196   2.968   3.604   6.238 -0.3326 -0.2104  0.3799
 1854TIP3    H127197   3.050   3.561   6.215  0.0015  0.4087  0.3822
 1854TIP3    H227198   2.983   3.697   6.218 -0.8815 -0.0273  0.7810
 1855TIP3   OH227199   1.933   1.603   1.213 -0.1940 -0.1854 -0.3617
 1855TIP3    H127200   1.920   1.584   1.120 -0.3445 -1.9545 -0.0121
 1855TIP3    H227201   1.848   1.589   1.253 -0.4638  1.8575 -0.1038
 1856TIP3   OH227202   2.076   6.000   6.946  0.0947 -0.2630 -0.0258
 1856TIP3    H127203   2.118   5.932   6.999  0.8124 -0.9989 -1.4848
 1856TIP3    H227204   1.982   5.984   6.957  0.0599  1.3432  3.2006
 1857TIP3   OH227205   2.567   3.083   1.919 -0.1685  0.5231  0.3767
 1857TIP3    H127206   2.629   3.010   1.923 -1.0828 -0.2064  1.5697
 1857TIP3    H227207   2.600   3.146   1.983 -0.2386  0.4653  0.4704
 1858TIP3   OH227208   6.267   2.795   7.862  0.1809  0.1274 -0.0590
 1858TIP3    H127209   6.337   2.761   7.807 -0.7726 -1.7185 -0.2041
 1858TIP3    H227210   6.250   2.883   7.827 -0.0605 -0.7934 -2.4437
 1859TIP3   OH227211   0.354   4.653   0.698  0.5639 -0.4145  0.0669
 1859TIP3    H127212   0.408   4.688   0.628  1.5996  2.9221  2.2399
 1859TIP3    H227213   0.409   4.588   0.741  0.2392 -1.8458 -1.5758
 1860TIP3   OH227214   0.049   3.464   1.414  0.3630  0.0937 -0.1446
 1860TIP3    H127215   0.016   3.374   1.424 -1.3834  0.7117 -0.0797
 1860TIP3    H227216   0.090   3.484   1.498 -0.5893 -0.1260  0.3866
 1861TIP3   OH227217   5.334   2.234   1.127  0.6607 -0.1638 -0.3182
 1861TIP3    H127218   5.302   2.273   1.208 -1.5014 -1.2902 -0.5617
 1861TIP3    H227219   5.325   2.139   1.140 -0.8141 -0.3511 -2.2543
 1862TIP3   OH227220   3.417   6.971   7.604  0.1887  0.4062 -0.0656
 1862TIP3    H127221   3.388   6.959   7.514  0.4313  0.7296 -0.1889
 1862TIP3    H227222   3.511   6.952   7.602  0.3113  0.9884 -0.0003
 1863TIP3   OH227223   2.785   1.895   7.368 -0.4353 -0.1916  0.5014
 1863TIP3    H127224   2.704   1.943   7.349 -1.4012 -2.2301 -0.9204
 1863TIP3    H227225   2.854   1.951   7.333 -1.6520 -0.5106 -2.7550
 1864TIP3   OH227226   2.348   3.698   0.500 -0.8291  0.0222 -0.2211
 1864TIP3    H127227   2.394   3.626   0.543  1.9222  1.7649 -0.0563
 1864TIP3    H227228   2.285   3.728   0.565  0.7334  0.2635  1.2515
 1865TIP3   OH227229   4.125   4.017   6.326 -0.3120  0.1243 -0.1592
 1865TIP3    H127230   4.208   4.048   6.362 -0.3939  0.1358  0.0191
 1865TIP3    H227231   4.138   4.019   6.231 -0.5059  1.2368 -0.1699
 1866TIP3   OH227232   6.684   0.174   7.069 -0.0492  0.0341  0.3553
 1866TIP3    H127233   6.728   0.118   7.133 -1.2412 -0.1313  1.0704
 1866TIP3    H227234   6.725   0.260   7.080  0.1823 -0.1450  0.9259
 1867TIP3   OH227235   1.998   3.384   7.172 -0.1202 -0.3806  0.3596
 1867TIP3    H127236   2.052   3.462   7.159 -0.1105 -0.3317  0.7090
 1867TIP3    H227237   1.966   3.390   7.261  1.1199 -1.5311  0.9340
 1868TIP3   OH227238   0.776   4.862   7.777 -0.6656  0.3742  0.2852
 1868TIP3    H127239   0.858   4.886   7.819  0.3036 -0.7557 -0.8704
 1868TIP3    H227240   0.715   4.847   7.850  0.0241  1.5657  1.1418
 1869TIP3   OH227241   4.465   2.995   1.815  0.2860  0.4060  0.4806
 1869TIP3    H127242   4.440   3.063   1.752  2.2004  1.1075  0.3932
 1869TIP3    H227243   4.408   3.010   1.890 -2.0107 -0.4043 -1.0011
 1870TIP3   OH227244   2.249   1.712   0.842  0.0440 -0.4082  0.2938
 1870TIP3    H127245   2.280   1.781   0.901  0.8794 -0.2991 -0.2528
 1870TIP3    H227246   2.205   1.758   0.771  2.1362 -0.2805 -0.9911
 1871TIP3   OH227247   2.348   2.381   6.464  0.1373 -0.1297  0.1486
 1871TIP3    H127248   2.256   2.395   6.441  0.0114 -0.3646  0.4984
 1871TIP3    H227249   2.371   2.457   6.517  0.0261 -0.2716  0.4006
 1872TIP3   OH227250   1.969   6.490   2.430  0.3403 -0.4747 -0.3195
 1872TIP3    H127251   2.007   6.578   2.436 -0.3367 -0.2676  1.1726
 1872TIP3    H227252   2.045   6.432   2.427  0.7967  0.0682  0.3161
 1873TIP3   OH227253   1.740   5.006   6.767 -0.3471  0.1421 -0.6005
 1873TIP3    H127254   1.683   5.081   6.749 -0.1589  1.1028  2.2818
 1873TIP3    H227255   1.827   5.044   6.779 -0.1235 -0.6060  0.2713
 1874TIP3   OH227256   6.514   3.078   7.684  0.1042  0.2182  0.0157
 1874TIP3    H127257   6.485   3.009   7.744 -0.2446  0.3069 -0.0460
 1874TIP3    H227258   6.435   3.102   7.635  0.1266  0.9278  0.3088
 1875TIP3   OH227259   3.476   0.730   1.758 -0.3739  0.0982  0.1637
 1875TIP3    H127260   3.550   0.738   1.698 -0.2915  1.1159  0.3843
 1875TIP3    H227261   3.487   0.644   1.799 -0.4567 -0.6317 -1.2935
 1876TIP3   OH227262   5.315   4.677   1.231 -0.2366 -0.2802 -0.6297
 1876TIP3    H127263   5.403   4.683   1.267 -0.5544  1.0345 -0.0259
 1876TIP3    H227264   5.306   4.753   1.173 -1.0281 -0.3038 -0.5580
 1877TIP3   OH227265   1.236   6.231   6.527  0.1150 -0.0472 -0.9132
 1877TIP3    H127266   1.248   6.308   6.582  0.7971  0.6705 -2.0247
 1877TIP3    H227267   1.161   6.253   6.472  0.4968 -0.0278 -1.4398
 1878TIP3   OH227268   0.902   5.047   0.440  0.2865  0.6951  0.3480
 1878TIP3    H127269   0.974   5.110   0.446  1.2961 -0.5413  2.6571
 1878TIP3    H227270   0.864   5.044   0.528 -2.0284  0.6093 -0.5848
 1879TIP3   OH227271   3.101   0.485   5.918  0.3590  0.0082 -0.4177
 1879TIP3    H127272   3.042   0.528   5.981  0.6292  2.2035 -1.5603
 1879TIP3    H227273   3.117   0.552   5.851  3.3849 -0.8275 -0.6687
 1880TIP3   OH227274   5.346   1.655   7.226  0.1210  0.1707  0.1535
 1880TIP3    H127275   5.339   1.578   7.170  1.4179 -1.1320  1.6971
 1880TIP3    H227276   5.259   1.663   7.266 -0.0249 -0.4836 -0.0207
 1881TIP3   OH227277   1.719   6.466   6.964 -0.1555 -0.6888 -0.0147
 1881TIP3    H127278   1.724   6.415   7.045  0.1895 -2.3427 -1.0316
 1881TIP3    H227279   1.802   6.450   6.920  0.1312  1.1089 -0.1982
 1882TIP3   OH227280   5.017   2.850   7.359  0.0978  0.6766  0.0205
 1882TIP3    H127281   5.008   2.766   7.313 -1.9069  1.5518 -1.2765
 1882TIP3    H227282   5.038   2.825   7.449 -2.2684 -1.3325  0.1232
 1883TIP3   OH227283   5.566   0.104   6.918  0.1789  0.6879  0.0495
 1883TIP3    H127284   5.589   0.089   6.827  1.5886 -0.0405  0.4980
 1883TIP3    H227285   5.545   0.018   6.952 -1.2598  1.0738  0.1988
 1884TIP3   OH227286   6.742   5.910   1.111 -0.3465  0.0305  0.5457
 1884TIP3    H127287   6.810   5.909   1.044 -1.1778 -1.1854 -0.3227
 1884TIP3    H227288   6.775   5.852   1.179  0.7046  1.6221  1.4473
 1885TIP3   OH227289   5.040   1.862   6.883  0.1673  0.1141 -0.6927
 1885TIP3    H127290   4.963   1.916   6.895  0.5412  0.3585  0.8147
 1885TIP3    H227291   5.111   1.924   6.863  0.6845  0.2738  1.4582
 1886TIP3   OH227292   6.689   6.955   7.174 -0.6274  0.6748  0.0294
 1886TIP3    H127293   6.709   6.861   7.176  1.1759  0.9094 -2.4822
 1886TIP3    H227294   6.597   6.959   7.149 -0.9555 -0.4110  0.9785
 1887TIP3   OH227295   2.068   0.410   0.191  0.9869  0.1363  0.5099
 1887TIP3    H127296   2.088   0.320   0.166 -0.7457 -0.5351  1.3981
 1887TIP3    H227297   2.100   0.418   0.280 -1.3245 -0.5450  1.4712
 1888TIP3   OH227298   1.141   4.980   7.096 -0.1198 -0.2151 -0.0320
 1888TIP3    H127299   1.222   4.939   7.126  0.3856 -0.5382 -1.7050
 1888TIP3    H227300   1.168   5.066   7.064 -0.8246  0.5852  1.4580
 1889TIP3   OH227301   4.962   2.422   7.460  0.3791 -0.1498 -0.6852
 1889TIP3    H127302   5.042   2.396   7.504 -0.0404 -1.2269 -0.5473
 1889TIP3    H227303   4.899   2.437   7.531  0.0182 -0.8285 -0.8517
 1890TIP3   OH227304   0.689   6.438   8.039 -0.2217 -0.1883 -0.0617
 1890TIP3    H127305   0.760   6.396   8.089 -0.9054 -0.2785  0.8573
 1890TIP3    H227306   0.610   6.420   8.090 -0.8215  0.4648 -0.7403
 1891TIP3   OH227307   0.042   0.100   0.982 -0.2137 -0.4869  0.1357
 1891TIP3    H127308  -0.040   0.125   0.939 -0.7366  0.1412  1.4333
 1891TIP3    H227309   0.052   0.164   1.052  1.6430 -0.2760 -0.2699
 1892TIP3   OH227310   0.039   3.739   6.065 -0.2313  0.3428  0.9586
 1892TIP3    H127311  -0.012   3.803   6.015 -1.0582 -1.2069 -0.2990
 1892TIP3    H227312   0.123   3.734   6.019  0.5280  1.7635  2.1124
 1893TIP3   OH227313   3.990   2.619   1.988  0.2198 -0.1142 -0.1493
 1893TIP3    H127314   3.998   2.579   1.902  2.1624  0.1722 -0.1496
 1893TIP3    H227315   4.010   2.548   2.049  1.0573  0.1952 -0.0476
 1894TIP3   OH227316   2.469   1.299   1.954  0.5531  0.4521 -0.2839
 1894TIP3    H127317   2.399   1.336   2.009 -0.3056 -0.9679 -0.3748
 1894TIP3    H227318   2.549   1.342   1.985  0.1707 -0.4665  2.3064
 1895TIP3   OH227319   0.036   1.687   1.587 -0.2043  0.1960  0.3098
 1895TIP3    H127320   0.013   1.688   1.495  1.2119  0.2905 -0.0660
 1895TIP3    H227321   0.083   1.605   1.600  1.4137  1.0832  0.4292
 1896TIP3   OH227322   2.667   6.952   1.253 -0.4851 -0.3880  0.4725
 1896TIP3    H127323   2.663   6.873   1.308  0.1839 -0.5331  0.3270
 1896TIP3    H227324   2.640   7.023   1.311  0.6222 -0.4803  1.1311
 1897TIP3   OH227325   6.789   0.425   7.011  0.1990  0.8637 -0.1770
 1897TIP3    H127326   6.804   0.506   6.962  0.3367  0.0815 -1.4761
 1897TIP3    H227327   6.873   0.380   7.010 -0.1989  0.1019 -0.6233
 1898TIP3   OH227328   2.113   5.806   0.857  0.0493 -0.1028  0.2325
 1898TIP3    H127329   2.056   5.732   0.839  1.3403 -0.9010 -0.7673
 1898TIP3    H227330   2.077   5.846   0.936 -1.2984 -1.1422  0.1735
 1899TIP3   OH227331   5.869   6.789   0.322 -0.4075  0.4678  0.1183
 1899TIP3    H127332   5.802   6.838   0.370 -1.1479  0.3248 -0.7350
 1899TIP3    H227333   5.894   6.847   0.250  2.2671  1.5968  1.8096
 1900TIP3   OH227334   1.402   4.947   7.772 -0.2577 -0.3580  0.1279
 1900TIP3    H127335   1.497   4.948   7.783 -0.4422  1.4070  2.2320
 1900TIP3    H227336   1.373   4.869   7.819  0.1002 -0.6382 -0.1102
 1901TIP3   OH227337   4.206   5.264   6.831 -0.1327  0.8574  0.2797
 1901TIP3    H127338   4.286   5.211   6.839  0.9445  2.2538 -0.6728
 1901TIP3    H227339   4.208   5.322   6.907  1.0101  2.4171 -0.8630
 1902TIP3   OH227340   1.646   2.355   0.741  0.1757 -0.1549 -0.2984
 1902TIP3    H127341   1.666   2.382   0.651  0.0343 -0.2451 -0.3569
 1902TIP3    H227342   1.553   2.336   0.740  0.2756 -0.6549 -0.2614
 1903TIP3   OH227343   4.174   1.310   8.096  0.4021  0.9043  0.1370
 1903TIP3    H127344   4.126   1.363   8.032 -0.1245  1.5716  1.0619
 1903TIP3    H227345   4.124   1.228   8.100 -0.5962  1.5313  0.9721
 1904TIP3   OH227346   1.780   5.132   7.377 -0.5369  0.4121 -1.0437
 1904TIP3    H127347   1.709   5.168   7.324  0.1381  0.5311 -1.8720
 1904TIP3    H227348   1.754   5.151   7.467 -1.9199 -0.2082 -1.2806
 1905TIP3   OH227349   5.058   3.848   7.702  0.1031 -0.0475  0.4725
 1905TIP3    H127350   5.090   3.885   7.784  0.6312  0.9795 -0.1831
 1905TIP3    H227351   5.137   3.826   7.653 -0.2065 -1.1889  0.4573
 1906TIP3   OH227352   3.335   1.856   0.013 -0.2048  0.0992 -0.2916
 1906TIP3    H127353   3.345   1.775  -0.036 -0.3585  0.9519 -1.7922
 1906TIP3    H227354   3.263   1.839   0.074 -0.7426 -0.6478 -1.1214
 1907TIP3   OH227355   3.790   3.944   6.228  0.1761 -0.1483 -0.2541
 1907TIP3    H127356   3.700   3.969   6.247  0.3859 -0.8048  1.9501
 1907TIP3    H227357   3.842   3.987   6.296  1.2547 -1.5287 -0.1415
 1908TIP3   OH227358   0.145   2.011   1.547 -0.0194  0.0629 -0.0545
 1908TIP3    H127359   0.105   2.040   1.629  1.0494 -0.3216  0.6182
 1908TIP3    H227360   0.233   2.048   1.548  0.1197 -0.2167 -0.8755
 1909TIP3   OH227361   2.471   6.942   7.527  0.0247  0.3425 -0.0870
 1909TIP3    H127362   2.462   6.958   7.621 -1.1845 -2.3431  0.3591
 1909TIP3    H227363   2.558   6.904   7.518  1.2911  3.1165 -0.5632
 1910TIP3   OH227364   4.015   6.196   7.697  0.5482  0.2343 -0.3345
 1910TIP3    H127365   4.070   6.265   7.658 -0.7325  0.7868 -1.2283
 1910TIP3    H227366   3.951   6.175   7.629 -1.2525  0.6462  1.1412
 1911TIP3   OH227367   1.604   2.043   6.615 -0.5127  0.2073  0.0007
 1911TIP3    H127368   1.567   2.046   6.527 -0.3750  1.2853 -0.0364
 1911TIP3    H227369   1.696   2.020   6.602 -0.6112 -0.1240 -0.1008
 1912TIP3   OH227370   5.979   4.062   0.608 -0.5030 -0.2275 -0.1403
 1912TIP3    H127371   5.901   4.035   0.560 -0.5872  1.2628 -0.8768
 1912TIP3    H227372   6.034   3.984   0.610 -2.6568 -1.8225  1.8086
 1913TIP3   OH227373   4.464   1.266   6.774 -0.4325 -0.1401 -0.1336
 1913TIP3    H127374   4.455   1.315   6.692  1.4263  4.3246  1.9813
 1913TIP3    H227375   4.387   1.289   6.825 -0.1489 -0.4553  0.4516
 1914TIP3   OH227376   5.160   4.948   6.040 -0.0810  0.1134  0.5319
 1914TIP3    H127377   5.209   4.924   5.961 -0.4694 -0.0874  0.3474
 1914TIP3    H227378   5.159   4.868   6.092 -0.9519 -0.1394  0.1424
 1915TIP3   OH227379   4.425   2.592   6.930  0.1271 -0.7532 -0.2984
 1915TIP3    H127380   4.489   2.641   6.981 -1.2324  2.1368 -1.1533
 1915TIP3    H227381   4.432   2.628   6.842 -2.7171 -0.1177 -0.3836
 1916TIP3   OH227382   4.354   5.330   7.195  0.8906  0.0091 -0.5149
 1916TIP3    H127383   4.344   5.261   7.260  0.4459  0.9697  0.4710
 1916TIP3    H227384   4.447   5.353   7.198  0.7935  0.3371  0.0961
 1917TIP3   OH227385   5.741   2.041   1.558  0.1811 -0.3509 -0.5390
 1917TIP3    H127386   5.760   2.122   1.605 -0.9967 -1.2195  1.5801
 1917TIP3    H227387   5.713   2.069   1.471  0.8522  1.4263 -0.2288
 1918TIP3   OH227388   3.672   3.120   6.553 -0.2464  0.0173 -0.6376
 1918TIP3    H127389   3.699   3.029   6.562  1.9536  0.8035  2.1688
 1918TIP3    H227390   3.589   3.125   6.600 -0.3179 -0.5198 -0.7044
 1919TIP3   OH227391   0.660   3.678   0.935 -0.1041 -0.0331  0.3874
 1919TIP3    H127392   0.602   3.627   0.880  0.9376 -1.5566  0.6310
 1919TIP3    H227393   0.699   3.614   0.995 -0.2467  1.3654  2.0488
 1920TIP3   OH227394   6.535   5.632   0.945  0.2533  0.3044  0.5447
 1920TIP3    H127395   6.607   5.637   0.881 -0.7214  0.4771 -0.5759
 1920TIP3    H227396   6.509   5.540   0.945 -1.4203  0.7053 -1.2843
 1921TIP3   OH227397   5.359   5.248   8.134  0.4771 -0.0329 -0.4456
 1921TIP3    H127398   5.286   5.253   8.072  0.0374 -1.0961 -0.0454
 1921TIP3    H227399   5.317   5.230   8.218  0.8189  3.9252  0.7400
 1922TIP3   OH227400   4.308   5.510   1.267  0.3112 -0.0961 -0.6151
 1922TIP3    H127401   4.365   5.569   1.217  0.9911 -0.6023 -0.4539
 1922TIP3    H227402   4.227   5.506   1.216  0.7037  0.0233 -1.2635
 1923TIP3   OH227403   6.637   3.455   2.341  0.3243 -0.3689 -0.0891
 1923TIP3    H127404   6.642   3.363   2.313  2.8850  0.1971 -1.8692
 1923TIP3    H227405   6.716   3.468   2.393 -0.1833  0.7655  0.4176
 1924TIP3   OH227406   3.066   6.976   5.835 -0.1074 -0.1687  0.5665
 1924TIP3    H127407   3.093   6.938   5.919 -0.2828 -1.3677  0.0979
 1924TIP3    H227408   3.004   6.913   5.799  0.2006  0.1722 -0.6092
 1925TIP3   OH227409   6.996   2.665   1.746  0.3711  0.2542 -0.2499
 1925TIP3    H127410   7.073   2.629   1.790  0.9152  1.1265 -0.4650
 1925TIP3    H227411   7.025   2.750   1.714 -1.5018  1.9209  2.1440
 1926TIP3   OH227412   7.073   1.530   7.901 -0.5004 -0.3131  0.0087
 1926TIP3    H127413   7.162   1.533   7.936  0.0036  1.3213 -1.3000
 1926TIP3    H227414   7.077   1.463   7.833 -0.6471 -1.1682  0.8104
 1927TIP3   OH227415   1.824   4.717   0.407  0.0678  0.3999  0.1364
 1927TIP3    H127416   1.824   4.689   0.316  1.0788 -0.5032  0.4025
 1927TIP3    H227417   1.883   4.792   0.409  0.0826  0.3901  0.0683
 1928TIP3   OH227418   7.028   7.068   7.909 -0.8869  0.0463 -0.3249
 1928TIP3    H127419   6.940   7.106   7.920 -1.4677 -0.8582 -1.5482
 1928TIP3    H227420   7.073   7.128   7.850  0.3332  1.9759  2.3599
 1929TIP3   OH227421   6.229   2.302   2.264  0.2388  0.2873 -0.5685
 1929TIP3    H127422   6.258   2.231   2.207 -0.6527  0.3968 -1.1645
 1929TIP3    H227423   6.307   2.325   2.315  0.9852  0.0265 -1.5707
 1930TIP3   OH227424   4.846   2.939   1.976 -0.7825 -0.5015 -0.2623
 1930TIP3    H127425   4.894   2.932   2.058 -3.9009 -0.4366  1.7594
 1930TIP3    H227426   4.860   2.855   1.933  0.7385 -0.6290  0.4146
 1931TIP3   OH227427   0.211   4.542   6.429  0.2891  0.4522 -0.2961
 1931TIP3    H127428   0.293   4.565   6.387  0.2714  1.5801  0.2567
 1931TIP3    H227429   0.217   4.447   6.444  2.2042  0.7644  1.2435
 1932TIP3   OH227430   5.822   6.430   0.878 -0.4445  0.3189 -0.0875
 1932TIP3    H127431   5.786   6.502   0.827 -0.1261  0.0234 -0.7513
 1932TIP3    H227432   5.809   6.455   0.969 -1.2468  0.7507 -0.3121
 1933TIP3   OH227433   6.815   3.137   5.720 -0.0619 -0.0330  0.1370
 1933TIP3    H127434   6.880   3.199   5.685  0.7347 -0.7587  0.3021
 1933TIP3    H227435   6.754   3.192   5.769  0.7330  0.6080  0.4250
 1934TIP3   OH227436   1.606   3.983   5.867  0.1347  0.0527  0.0742
 1934TIP3    H127437   1.701   3.987   5.876  0.3911 -1.8372 -1.1883
 1934TIP3    H227438   1.573   3.979   5.957  1.3115 -0.3590  0.4981
 1935TIP3   OH227439   2.752   5.452   1.599  0.2713 -0.0492  0.3659
 1935TIP3    H127440   2.808   5.453   1.677  1.2538  0.2069 -0.3245
 1935TIP3    H227441   2.706   5.369   1.604  0.5124 -0.1463  1.0998
 1936TIP3   OH227442   0.451   7.114   0.498  0.1586 -0.4047 -0.1742
 1936TIP3    H127443   0.374   7.161   0.466 -0.1867 -0.8937 -0.0636
 1936TIP3    H227444   0.416   7.050   0.560  0.7010 -0.2938  0.2558
 1937TIP3   OH227445   6.789   1.786   6.376 -0.2442  0.1477 -0.6661
 1937TIP3    H127446   6.807   1.715   6.314  0.1009 -0.5899  0.2576
 1937TIP3    H227447   6.694   1.794   6.375 -0.4786 -1.6959  0.6477
 1938TIP3   OH227448   4.621   0.713   0.059  0.0363 -0.9402  0.1072
 1938TIP3    H127449   4.649   0.624   0.038 -0.1700 -1.2302  1.0040
 1938TIP3    H227450   4.695   0.768   0.034  0.9082 -1.5569  1.2109
 1939TIP3   OH227451   1.602   6.251   1.099 -0.1612 -0.3897 -0.2455
 1939TIP3    H127452   1.671   6.236   1.164  0.0640 -1.6374 -0.7326
 1939TIP3    H227453   1.649   6.275   1.019 -0.2236 -1.6801 -0.7003
 1940TIP3   OH227454   3.615   2.858   0.280 -0.5841 -0.1982 -0.1361
 1940TIP3    H127455   3.562   2.832   0.205 -0.6601 -0.7555  0.1072
 1940TIP3    H227456   3.677   2.786   0.292  0.7686  0.7846 -0.9070
 1941TIP3   OH227457   6.174   5.309   6.809 -0.5337 -0.1529 -0.1363
 1941TIP3    H127458   6.080   5.315   6.791 -0.7653 -2.4120  0.0631
 1941TIP3    H227459   6.200   5.225   6.773  0.7102 -1.0795  2.6937
 1942TIP3   OH227460   4.220   6.080   6.242  0.0921  0.0334  0.7375
 1942TIP3    H127461   4.141   6.095   6.189  0.3203  0.9412  0.6362
 1942TIP3    H227462   4.188   6.070   6.331 -0.0207  2.9962  1.1527
 1943TIP3   OH227463   6.398   2.793   7.114 -0.1841  0.4323 -0.1013
 1943TIP3    H127464   6.465   2.735   7.150  0.3481  1.9625  1.4962
 1943TIP3    H227465   6.323   2.735   7.098  0.4597 -0.7811  1.0317
 1944TIP3   OH227466   1.887   4.317   0.218 -0.0341  0.0079 -0.2056
 1944TIP3    H127467   1.795   4.326   0.193 -0.0164  0.4011 -0.1344
 1944TIP3    H227468   1.927   4.267   0.147 -0.1932  0.2823 -0.4883
 1945TIP3   OH227469   3.148   5.181   6.700 -0.7363 -0.2037 -0.5508
 1945TIP3    H127470   3.105   5.182   6.786  0.6322 -0.5332  0.1789
 1945TIP3    H227471   3.242   5.176   6.721 -0.4404 -3.5697 -2.0385
 1946TIP3   OH227472   4.734   0.304   0.228 -0.0168  0.4272 -1.2597
 1946TIP3    H127473   4.760   0.374   0.169 -0.4417  0.4248 -1.4553
 1946TIP3    H227474   4.718   0.348   0.312  0.5200  0.4398 -1.1616
 1947TIP3   OH227475   3.253   4.776   7.753 -0.6935  0.3203 -0.5007
 1947TIP3    H127476   3.330   4.833   7.745  0.0104 -0.6215 -0.7336
 1947TIP3    H227477   3.229   4.780   7.845  1.2188 -1.3173  0.1417
 1948TIP3   OH227478   5.130   2.762   1.692 -0.0148 -0.2181  0.3538
 1948TIP3    H127479   5.194   2.783   1.760  1.7923  0.1542 -1.3637
 1948TIP3    H227480   5.119   2.667   1.697  0.6059 -0.2751  0.7320
 1949TIP3   OH227481   5.936   6.273   5.954  0.1567  0.0709  0.1188
 1949TIP3    H127482   5.887   6.307   6.029 -1.8864  0.2018 -1.1843
 1949TIP3    H227483   5.927   6.178   5.960  1.6347 -0.0494  1.0316
 1950TIP3   OH227484   1.892   5.347   7.700 -0.1419 -0.2412  0.8591
 1950TIP3    H127485   1.811   5.302   7.673 -0.3020  0.7565 -0.4399
 1950TIP3    H227486   1.863   5.411   7.765 -0.3953  0.0261  0.4902
 1951TIP3   OH227487   4.445   5.017   7.361 -0.4148  0.1291  0.3958
 1951TIP3    H127488   4.461   4.937   7.410 -0.8090 -1.7089 -2.2618
 1951TIP3    H227489   4.476   5.087   7.419  2.0906 -2.0600  1.9612
 1952TIP3   OH227490   3.845   2.874   7.306 -0.5288 -0.4518  0.5586
 1952TIP3    H127491   3.884   2.920   7.380 -0.4755  2.3333 -1.0554
 1952TIP3    H227492   3.753   2.901   7.307 -0.1769  1.0204 -1.2654
 1953TIP3   OH227493   4.747   6.000   1.952 -0.5203 -0.2041  0.0347
 1953TIP3    H127494   4.683   6.059   1.991 -1.0006 -1.3208  0.9992
 1953TIP3    H227495   4.831   6.043   1.966 -0.6456 -0.6170  2.5319
 1954TIP3   OH227496   3.114   6.408   1.142  0.3761  0.5053 -0.5193
 1954TIP3    H127497   3.147   6.318   1.138 -1.0565 -0.0365 -0.5257
 1954TIP3    H227498   3.192   6.460   1.162  1.1849 -0.7601 -0.2118
 1955TIP3   OH227499   1.048   6.678   0.461 -0.5691  0.1472  0.2283
 1955TIP3    H127500   1.114   6.641   0.519 -0.9166 -1.5831 -0.4155
 1955TIP3    H227501   1.083   6.763   0.435  0.9949 -0.3646  0.5673
 1956TIP3   OH227502   5.734   1.418   1.674  0.1044 -0.4098 -1.5015
 1956TIP3    H127503   5.648   1.400   1.635 -0.0850 -0.9149 -0.8810
 1956TIP3    H227504   5.725   1.389   1.765  0.0927  1.9902 -0.6682
 1957TIP3   OH227505   0.712   1.139   0.099  0.2235  0.2055 -0.0100
 1957TIP3    H127506   0.679   1.079   0.167 -0.1942  0.1594 -0.2483
 1957TIP3    H227507   0.739   1.081   0.027  0.6647  0.2548  0.1134
 1958TIP3   OH227508   2.976   4.135   6.765  0.6276 -0.0230  0.8552
 1958TIP3    H127509   3.059   4.138   6.812  1.2009 -0.8978 -0.0523
 1958TIP3    H227510   2.998   4.165   6.676  0.4176 -2.0424  0.0567
 1959TIP3   OH227511   6.056   0.390   1.723  0.1004  0.2475  0.1506
 1959TIP3    H127512   6.122   0.378   1.791  0.9697 -2.1648 -1.0132
 1959TIP3    H227513   5.973   0.386   1.771  0.7060  0.8323  1.3115
 1960TIP3   OH227514   2.430   6.460   0.614 -0.0284  0.7127 -0.3063
 1960TIP3    H127515   2.457   6.463   0.706  0.1165  1.9422 -0.3744
 1960TIP3    H227516   2.455   6.546   0.579  4.6740 -1.2961 -2.8399
 1961TIP3   OH227517   3.914   3.235   0.780 -0.6865  0.1591  0.1266
 1961TIP3    H127518   3.819   3.220   0.778 -0.4642 -1.4377  0.6849
 1961TIP3    H227519   3.930   3.269   0.868 -0.9138  1.9844 -0.4827
 1962TIP3   OH227520   2.070   5.161   6.361 -0.3849  0.0961  0.4002
 1962TIP3    H127521   2.099   5.213   6.286 -1.3306 -0.3080 -0.2583
 1962TIP3    H227522   1.987   5.122   6.333  0.4081 -1.9707  0.7610
 1963TIP3   OH227523   1.754   3.088   6.869 -0.4384  0.0030  0.1116
 1963TIP3    H127524   1.708   3.053   6.945 -2.1747  0.1893 -0.7966
 1963TIP3    H227525   1.823   3.143   6.906 -1.1126 -0.0664  1.5510
 1964TIP3   OH227526   1.673   3.377   0.160  0.6430  0.6816  0.6764
 1964TIP3    H127527   1.696   3.468   0.179 -2.3827  1.6878  0.1283
 1964TIP3    H227528   1.610   3.383   0.088  1.7173 -2.0354 -0.6319
 1965TIP3   OH227529   2.554   4.389   0.437  0.2704  0.4206 -0.5552
 1965TIP3    H127530   2.549   4.458   0.371  0.7073  2.1360  1.1464
 1965TIP3    H227531   2.605   4.319   0.394 -0.6054  0.9091 -2.4762
 1966TIP3   OH227532   1.526   5.455   0.425  0.0790  0.2335  0.3623
 1966TIP3    H127533   1.474   5.474   0.503  1.6417  1.8796  1.0892
 1966TIP3    H227534   1.583   5.531   0.415  1.3319 -0.8312 -1.2335
 1967TIP3   OH227535   1.682   3.439   7.831 -0.3834 -0.2338  0.1677
 1967TIP3    H127536   1.753   3.484   7.786 -0.1610  0.1050  0.8464
 1967TIP3    H227537   1.725   3.366   7.876 -0.0633  1.2548  2.4260
 1968TIP3   OH227538   3.608   7.054   1.502 -0.3075 -0.1119 -0.4522
 1968TIP3    H127539   3.665   7.125   1.532 -0.4793  0.1518 -0.7500
 1968TIP3    H227540   3.571   7.017   1.583  1.0867 -0.9742 -0.1673
 1969TIP3   OH227541   0.665   6.879   1.311 -0.0823  0.4065 -0.0170
 1969TIP3    H127542   0.598   6.839   1.367  1.2035  0.4504  1.6279
 1969TIP3    H227543   0.671   6.970   1.342 -1.5940  1.4093 -2.4151
 1970TIP3   OH227544   1.839   6.897   6.940  0.4474  0.5625  0.4343
 1970TIP3    H127545   1.808   6.857   7.021  2.3057  0.4491  1.1448
 1970TIP3    H227546   1.769   6.882   6.877 -0.4680 -0.5402  1.6631
 1971TIP3   OH227547   3.239   0.310   0.303 -0.8865  0.1895  0.1773
 1971TIP3    H127548   3.219   0.403   0.311 -0.3881  0.4026 -0.8084
 1971TIP3    H227549   3.215   0.272   0.387  1.2518  1.6385  1.5129
 1972TIP3   OH227550   5.185   6.945   0.358  0.5710 -0.8301  0.6372
 1972TIP3    H127551   5.146   6.999   0.289  0.5871 -1.8317 -0.1824
 1972TIP3    H227552   5.278   6.967   0.356  0.3260  0.4331  1.5583
 1973TIP3   OH227553   2.537   3.282   7.234  0.2102  0.5183 -0.3217
 1973TIP3    H127554   2.443   3.291   7.221  0.3614  2.6686 -0.2186
 1973TIP3    H227555   2.555   3.190   7.213 -1.6574  0.4497 -1.9636
 1974TIP3   OH227556   3.376   3.107   8.119 -0.0573  0.3562 -0.2422
 1974TIP3    H127557   3.302   3.075   8.171  1.3613 -0.6742  1.2580
 1974TIP3    H227558   3.405   3.186   8.165 -0.0297  0.5687 -0.6272
 1975TIP3   OH227559   1.038   5.924   7.726  0.1053 -0.8869 -0.4250
 1975TIP3    H127560   1.068   6.003   7.772 -3.1067  0.6189 -0.5881
 1975TIP3    H227561   0.997   5.871   7.794 -1.5090 -0.3338 -0.9216
 1976TIP3   OH227562   3.042   6.574   1.355 -0.2704  0.6084  1.0639
 1976TIP3    H127563   3.018   6.517   1.282 -0.9448 -0.0587  1.7873
 1976TIP3    H227564   3.112   6.629   1.321 -1.3943  1.1411 -0.4575
 1977TIP3   OH227565   2.072   6.983   7.136 -0.3243 -0.7602 -0.3486
 1977TIP3    H127566   2.038   6.911   7.189 -0.7104 -0.4936 -0.2233
 1977TIP3    H227567   2.126   7.034   7.196 -1.5404  0.0849  0.0608
 1978TIP3   OH227568   0.708   3.811   6.767 -0.0703 -0.3490  0.4071
 1978TIP3    H127569   0.639   3.774   6.712  0.0699 -1.6660  1.0589
 1978TIP3    H227570   0.789   3.777   6.728  0.2758  1.4989 -0.5892
 1979TIP3   OH227571   5.375   2.446   7.118  0.5457 -0.2648 -0.3352
 1979TIP3    H127572   5.423   2.475   7.041 -3.8154 -1.6208 -3.9642
 1979TIP3    H227573   5.340   2.527   7.157  2.5609  0.4013  0.2292
 1980TIP3   OH227574   2.985   4.265   0.454  0.9490  0.0743  0.0410
 1980TIP3    H127575   2.944   4.265   0.540  0.5134  1.7108 -0.1268
 1980TIP3    H227576   3.019   4.354   0.443  1.2285 -0.1725 -1.3634
 1981TIP3   OH227577   5.072   0.006   7.516 -0.0594  0.4262  0.6031
 1981TIP3    H127578   5.165   0.024   7.531  0.1609  0.2272 -0.4828
 1981TIP3    H227579   5.039   0.084   7.472  0.1297 -0.3921 -1.0608
 1982TIP3   OH227580   0.663   1.405   6.321 -0.2977  0.1664  0.5992
 1982TIP3    H127581   0.749   1.379   6.288 -0.0217 -0.1721  1.5693
 1982TIP3    H227582   0.650   1.493   6.285  0.6319  0.3880  0.7751
 1983TIP3   OH227583   7.121   4.677   1.535  0.2494 -0.4015 -0.1970
 1983TIP3    H127584   7.026   4.678   1.535  0.2150 -1.8051 -0.2589
 1983TIP3    H227585   7.145   4.687   1.443  0.1949  0.7859 -0.0935
 1984TIP3   OH227586   3.930   6.096   0.992  0.3978 -0.1370 -0.6067
 1984TIP3    H127587   3.937   6.156   0.917 -1.2828  0.4742 -0.3069
 1984TIP3    H227588   3.837   6.076   0.998  0.6731 -1.1346  0.5969
 1985TIP3   OH227589   5.726   0.718   0.942 -0.4595 -0.1306 -0.5704
 1985TIP3    H127590   5.708   0.639   0.892 -0.0311 -0.3877 -0.3227
 1985TIP3    H227591   5.789   0.691   1.009  1.6418  0.8988 -1.9842
 1986TIP3   OH227592   3.993   6.944   7.317 -0.3334  0.4747 -0.7859
 1986TIP3    H127593   3.898   6.948   7.316 -0.3512  0.2518 -0.3717
 1986TIP3    H227594   4.019   7.025   7.361 -0.3203  0.6554 -1.1229
 1987TIP3   OH227595   6.863   4.425   7.884 -0.1669  0.7090  0.3655
 1987TIP3    H127596   6.875   4.508   7.929  0.3997  0.8975 -0.1271
 1987TIP3    H227597   6.819   4.447   7.803  0.6320  0.6238 -0.0980
 1988TIP3   OH227598   4.471   6.105   6.091 -0.9203  0.4042  0.6701
 1988TIP3    H127599   4.412   6.106   6.016 -0.0488 -0.3457 -0.0474
 1988TIP3    H227600   4.413   6.104   6.167 -1.8695 -1.2225 -0.0315
 1989TIP3   OH227601   2.331   2.298   0.308  0.5951  0.7790 -0.0536
 1989TIP3    H127602   2.395   2.367   0.294 -0.1461  0.9780 -3.0641
 1989TIP3    H227603   2.266   2.310   0.239 -1.7751 -0.5072  1.7781
 1990TIP3   OH227604   6.295   6.636   6.450  0.0579 -0.0432  0.1762
 1990TIP3    H127605   6.274   6.564   6.390  0.5896  0.2932 -0.4191
 1990TIP3    H227606   6.282   6.598   6.538  0.5890 -0.9494 -0.1204
 1991TIP3   OH227607   5.029   4.656   7.209  0.3364 -0.6724  0.3178
 1991TIP3    H127608   4.936   4.660   7.189  0.2148 -1.3212  0.7420
 1991TIP3    H227609   5.070   4.627   7.127 -0.0528 -2.3107  0.6801
 1992TIP3   OH227610   5.522   6.093   7.755 -0.0591  0.2170 -0.6531
 1992TIP3    H127611   5.495   6.066   7.668 -0.6016 -0.3937 -0.3041
 1992TIP3    H227612   5.441   6.109   7.803  0.2158  0.0101 -0.0997
 1993TIP3   OH227613   2.281   2.514   7.117 -0.6553 -0.7218  0.5651
 1993TIP3    H127614   2.195   2.553   7.135 -0.1830  0.4658  0.2977
 1993TIP3    H227615   2.285   2.438   7.176 -2.2795 -1.3812 -0.1068
 1994TIP3   OH227616   3.066   1.745   7.972  0.7444  0.7484 -0.2536
 1994TIP3    H127617   3.023   1.754   8.057  1.3923 -0.5675  0.2543
 1994TIP3    H227618   3.144   1.692   7.991 -0.0086 -1.0790 -1.9407
 1995TIP3   OH227619   5.368   6.043   1.328 -0.3360  0.2211 -0.3939
 1995TIP3    H127620   5.382   6.031   1.422  2.0693 -0.2672 -0.7507
 1995TIP3    H227621   5.440   6.099   1.300 -1.7804  1.5027 -1.7718
 1996TIP3   OH227622   5.213   5.080   6.647  0.1665  0.0722 -0.1208
 1996TIP3    H127623   5.289   5.130   6.615 -0.3618 -0.2645 -2.0670
 1996TIP3    H227624   5.150   5.146   6.675 -0.0779  0.5179 -1.6144
 1997TIP3   OH227625   4.603   6.213   7.321  0.4420 -0.3639  0.2056
 1997TIP3    H127626   4.656   6.166   7.385  1.2796  0.9132  0.4845
 1997TIP3    H227627   4.592   6.300   7.358  0.1297  0.1068 -0.9481
 1998TIP3   OH227628   6.109   0.127   1.454  0.0990 -0.4703  0.3967
 1998TIP3    H127629   6.051   0.081   1.394 -0.8089  0.0150  0.8641
 1998TIP3    H227630   6.197   0.104   1.426 -0.2592  0.5794 -1.7987
 1999TIP3   OH227631   4.329   0.891   7.633 -0.2038  0.6076  0.0465
 1999TIP3    H127632   4.329   0.801   7.666 -0.4433  0.6158  0.0683
 1999TIP3    H227633   4.237   0.917   7.634 -0.0462  1.1713  0.9026
 2000TIP3   OH227634   6.166   4.534   0.264  0.2848  0.0509  0.3057
 2000TIP3    H127635   6.084   4.505   0.304  0.1818  0.3886  0.3455
 2000TIP3    H227636   6.142   4.612   0.214  0.2918 -0.7273 -0.9409
 2001TIP3   OH227637   6.498   0.734   1.864 -0.0154  0.4904 -0.5467
 2001TIP3    H127638   6.528   0.786   1.789  0.7349  0.3798 -0.3281
 2001TIP3    H227639   6.406   0.758   1.874  0.4402  2.1640 -0.1447
 2002TIP3   OH227640   5.434   6.721   7.716  0.6623  0.5115 -0.3603
 2002TIP3    H127641   5.409   6.791   7.777  1.3407 -1.2147  2.0674
 2002TIP3    H227642   5.521   6.747   7.685  0.6532  1.0413  0.0249
 2003TIP3   OH227643   2.521   4.088   6.741 -0.3996  0.6248  0.5709
 2003TIP3    H127644   2.599   4.132   6.775  0.6508 -1.0332  0.3874
 2003TIP3    H227645   2.496   4.026   6.810 -0.7208  0.1736  0.0588
 2004TIP3   OH227646   1.494   5.883   2.218  0.3661  0.1623 -0.2203
 2004TIP3    H127647   1.556   5.895   2.146 -3.2330 -1.8265 -4.1088
 2004TIP3    H227648   1.429   5.952   2.206 -0.2501 -0.1383  1.2100
 2005TIP3   OH227649   3.704   4.544   2.464  0.5682  0.0918 -0.1541
 2005TIP3    H127650   3.757   4.619   2.490 -1.2875  1.1882  0.6505
 2005TIP3    H227651   3.638   4.581   2.404  1.2786 -1.4115 -1.9660
 2006TIP3   OH227652   3.728   0.980   0.338  0.5076 -0.4282 -0.2904
 2006TIP3    H127653   3.714   0.923   0.413  0.0813 -1.8142 -1.3787
 2006TIP3    H227654   3.731   1.068   0.375  0.3484 -1.0731  1.3428
 2007TIP3   OH227655   0.477   3.364   0.538  0.3228 -0.0772  0.1001
 2007TIP3    H127656   0.471   3.380   0.444 -1.2416 -1.6826 -0.1265
 2007TIP3    H227657   0.388   3.338   0.563  0.6124  0.7371  2.1132
 2008TIP3   OH227658   1.332   1.383   7.383 -0.0245  0.2663 -0.2834
 2008TIP3    H127659   1.378   1.449   7.330  0.2497 -1.4249 -2.3050
 2008TIP3    H227660   1.385   1.374   7.462  1.1255  0.9521 -0.9459
 2009TIP3   OH227661   4.085   3.794   7.017 -0.1521  0.2148 -0.2530
 2009TIP3    H127662   4.048   3.851   7.084 -0.4104  1.4799 -1.4593
 2009TIP3    H227663   4.066   3.837   6.934  1.9374 -0.2754 -1.0522
 2010TIP3   OH227664   4.909   3.008   6.324  0.3493 -0.0639  0.5754
 2010TIP3    H127665   4.923   3.084   6.381  1.7171 -0.8771  1.3904
 2010TIP3    H227666   4.987   3.006   6.269  0.4055 -0.9726  0.6794
 2011TIP3   OH227667   4.700   6.862   6.437 -0.7652  0.3316  0.5666
 2011TIP3    H127668   4.637   6.930   6.461 -0.3782  0.5644  0.9404
 2011TIP3    H227669   4.778   6.910   6.408 -0.2760  0.0595  1.3990
 2012TIP3   OH227670   6.019   2.233   0.209  0.2084  0.6197 -0.3170
 2012TIP3    H127671   6.045   2.293   0.139  1.3362  0.7026  0.1521
 2012TIP3    H227672   6.050   2.276   0.289 -0.6739  0.3140  0.1969
 2013TIP3   OH227673   4.502   4.692   7.061 -0.1373 -0.7499 -0.1150
 2013TIP3    H127674   4.550   4.671   7.141 -1.6343  2.9477  2.0348
 2013TIP3    H227675   4.526   4.783   7.043  0.4192 -1.5557 -4.2202
 2014TIP3   OH227676   4.822   1.788   0.009 -0.0666  0.6084  0.0636
 2014TIP3    H127677   4.917   1.789   0.019 -0.0425  2.6482 -0.0355
 2014TIP3    H227678   4.790   1.847   0.078 -1.4269 -1.3713  1.2443
 2015TIP3   OH227679   0.364   1.837   7.707 -0.0312  0.0828 -0.4571
 2015TIP3    H127680   0.457   1.834   7.686  0.2588 -0.5899  0.7896
 2015TIP3    H227681   0.352   1.920   7.753  0.5382 -0.9547  1.7062
 2016TIP3   OH227682   4.831   6.536   6.418 -0.0228 -0.4356  0.6674
 2016TIP3    H127683   4.756   6.581   6.455 -1.2015  0.3467 -2.3693
 2016TIP3    H227684   4.894   6.605   6.400  0.6724 -0.8464  1.4356
 2017TIP3   OH227685   2.621   1.700   7.566  0.2119 -0.5813  0.2788
 2017TIP3    H127686   2.655   1.747   7.643 -0.7010  1.1833 -0.3466
 2017TIP3    H227687   2.584   1.620   7.602 -0.6271  0.4198  1.7732
 2018TIP3   OH227688   5.220   5.645   0.599  0.2027  0.3940  0.5805
 2018TIP3    H127689   5.204   5.564   0.647  0.6717  0.2119  0.4318
 2018TIP3    H227690   5.315   5.656   0.601  0.1232  1.0730  0.8179
 2019TIP3   OH227691   6.221   3.429   7.424 -0.4830  0.1190  0.1511
 2019TIP3    H127692   6.283   3.416   7.352 -1.5916  1.3665 -1.0936
 2019TIP3    H227693   6.221   3.524   7.438  0.6688 -0.1939  2.7210
 2020TIP3   OH227694   5.557   4.362   7.489  0.2364 -0.2267  0.0044
 2020TIP3    H127695   5.545   4.325   7.577  1.1894 -2.7187 -0.8333
 2020TIP3    H227696   5.646   4.396   7.490  0.2097 -0.1557  0.0164
 2021TIP3   OH227697   4.345   0.777   0.026  0.8193  0.8250 -0.0995
 2021TIP3    H127698   4.428   0.733   0.007  0.2620 -0.3420  0.0322
 2021TIP3    H227699   4.298   0.715   0.082 -0.4534  1.1144 -0.8052
 2022TIP3   OH227700   6.257   4.857   7.736  0.4664 -0.2453  0.0138
 2022TIP3    H127701   6.180   4.896   7.776 -1.2102 -1.1587 -2.1063
 2022TIP3    H227702   6.324   4.925   7.739 -0.8294  1.0274  0.7302
 2023TIP3   OH227703   2.958   6.925   6.840 -0.1652  0.1316 -0.4818
 2023TIP3    H127704   2.899   6.904   6.768 -0.8136 -1.1447  0.3722
 2023TIP3    H227705   2.937   6.860   6.907 -0.2527  1.8644  1.2487
 2024TIP3   OH227706   2.590   7.013   5.700 -0.4870 -0.0560 -0.7368
 2024TIP3    H127707   2.498   7.024   5.676 -0.4384 -2.5462 -2.3787
 2024TIP3    H227708   2.589   6.946   5.768 -0.0229  2.0073  1.4518
 2025TIP3   OH227709   4.605   3.465   6.826 -0.3180  0.2693  0.3847
 2025TIP3    H127710   4.545   3.455   6.899  0.4912 -0.6280  0.9513
 2025TIP3    H227711   4.681   3.412   6.849 -0.3630 -0.7013 -1.4609
 2026TIP3   OH227712   1.794   7.004   6.561  0.3447  0.1423  0.3804
 2026TIP3    H127713   1.885   7.003   6.591 -0.1948  0.1221  2.1245
 2026TIP3    H227714   1.795   7.060   6.483  2.4035 -2.5448 -1.7427
 2027TIP3   OH227715   4.144   5.115   1.378 -0.5212  0.5054 -0.2495
 2027TIP3    H127716   4.193   5.082   1.303 -0.0946 -0.2765  0.3598
 2027TIP3    H227717   4.053   5.115   1.349 -0.8021 -2.8446  0.2183
 2028TIP3   OH227718   3.930   6.732   6.617 -0.4136  0.2375 -0.3060
 2028TIP3    H127719   3.843   6.737   6.656 -0.4453 -0.5762 -0.2596
 2028TIP3    H227720   3.990   6.726   6.692 -0.1045  2.8265 -0.2246
 2029TIP3   OH227721   2.757   3.109   7.986 -0.3255 -0.5879  0.4614
 2029TIP3    H127722   2.825   3.048   7.957 -1.5771 -0.7328 -2.5883
 2029TIP3    H227723   2.804   3.175   8.037  2.5146  0.1422 -2.6779
 2030TIP3   OH227724   0.418   3.355   1.240  0.5920 -0.1682  0.4602
 2030TIP3    H127725   0.342   3.411   1.223  0.9060 -0.0075 -0.4705
 2030TIP3    H227726   0.431   3.362   1.334  0.3221  0.9432  0.4350
 2031TIP3   OH227727   1.317   5.220   1.579 -0.8104 -0.3132  0.8715
 2031TIP3    H127728   1.388   5.159   1.559  0.5885  0.5141  2.9635
 2031TIP3    H227729   1.343   5.302   1.538 -1.1571 -0.3204  0.6346
 2032TIP3   OH227730   6.880   0.071   1.942  0.4310  0.0498  0.5815
 2032TIP3    H127731   6.875   0.072   2.038  2.5652 -1.7935  0.8136
 2032TIP3    H227732   6.974   0.076   1.924  0.0367  0.9112 -1.4739
 2033TIP3   OH227733   6.193   3.430   6.603  0.0128  0.5153 -0.4752
 2033TIP3    H127734   6.234   3.499   6.551  1.4352  0.2090  0.1913
 2033TIP3    H227735   6.100   3.435   6.580 -0.0855  3.1877  0.1255
 2034TIP3   OH227736   1.612   5.543   0.851  0.0495  0.7098 -0.3671
 2034TIP3    H127737   1.563   5.479   0.903  1.2597 -0.1177 -0.2152
 2034TIP3    H227738   1.601   5.626   0.898 -0.6066  0.3940  0.0480
 2035TIP3   OH227739   2.307   2.717   6.780  0.3676  0.5983 -0.0276
 2035TIP3    H127740   2.213   2.730   6.790 -0.4129 -0.6395 -4.0598
 2035TIP3    H227741   2.326   2.639   6.831 -1.2209 -0.1666 -0.5265
 2036TIP3   OH227742   2.441   6.862   1.078  0.0014 -0.3245 -0.5791
 2036TIP3    H127743   2.474   6.774   1.097 -0.4138 -0.8811 -2.3116
 2036TIP3    H227744   2.401   6.891   1.161  1.8841 -0.9324  0.5982
 2037TIP3   OH227745   0.006   6.396   1.682  0.2332  0.4107 -0.1055
 2037TIP3    H127746   0.052   6.411   1.599  0.3679 -1.0771 -0.3299
 2037TIP3    H227747   0.048   6.457   1.743  0.3887  1.2650 -1.0285
 2038TIP3   OH227748   3.926   5.913   7.321  0.3151  0.5775 -0.3809
 2038TIP3    H127749   3.831   5.900   7.331  0.5732 -0.7452  0.7766
 2038TIP3    H227750   3.960   5.825   7.305  1.3182  1.0908 -1.1262
 2039TIP3   OH227751   1.634   5.661   1.936  0.1815 -0.2523 -0.5426
 2039TIP3    H127752   1.590   5.746   1.940  2.5837  1.0585  0.9480
 2039TIP3    H227753   1.593   5.609   2.005  0.6838  0.8315  0.6257
 2040TIP3   OH227754   3.102   4.986   6.530 -0.2009 -0.1892 -1.0734
 2040TIP3    H127755   3.196   4.974   6.516  0.0270  0.4519 -0.2179
 2040TIP3    H227756   3.096   5.066   6.583 -1.1893 -0.5587 -0.6030
 2041TIP3   OH227757   5.856   2.846   1.801 -0.6025  0.2746 -0.3546
 2041TIP3    H127758   5.818   2.934   1.789  0.2461  0.6042 -0.6502
 2041TIP3    H227759   5.923   2.858   1.868  0.6014  0.1810 -1.5073
 2042TIP3   OH227760   1.955   6.592   0.605 -0.1087 -0.1195  0.5560
 2042TIP3    H127761   1.974   6.569   0.514 -1.5866  1.5831 -0.2538
 2042TIP3    H227762   1.896   6.524   0.636  0.0781 -0.4895  0.1056
 2043TIP3   OH227763   2.133   3.198   7.387 -0.3815  0.0900 -0.3578
 2043TIP3    H127764   2.074   3.177   7.459 -0.3220  1.6098  0.1729
 2043TIP3    H227765   2.213   3.229   7.429 -0.1315  0.4347 -1.0593
 2044TIP3   OH227766   1.973   4.230   1.358  0.0659 -0.5101 -0.1433
 2044TIP3    H127767   1.920   4.151   1.370  0.3729 -0.6055  0.6646
 2044TIP3    H227768   1.923   4.298   1.402  1.0937 -0.8118  1.5921
 2045TIP3   OH227769   1.942   5.766   6.473  0.1386 -0.6670 -0.4281
 2045TIP3    H127770   1.988   5.839   6.514  0.0480  0.8142 -2.7674
 2045TIP3    H227771   1.852   5.796   6.466 -0.2806 -1.7515  0.1488
 2046TIP3   OH227772   2.789   2.745   6.641 -0.3504  0.0530  0.1035
 2046TIP3    H127773   2.748   2.663   6.614  0.3249 -0.6083  1.0536
 2046TIP3    H227774   2.795   2.796   6.560 -2.3923 -0.0877 -0.2019
 2047TIP3   OH227775   5.852   6.698   6.323 -0.1854 -0.3179 -0.1067
 2047TIP3    H127776   5.807   6.718   6.405 -1.6657  0.8656 -1.1389
 2047TIP3    H227777   5.794   6.635   6.279 -0.1903  0.2191 -0.8881
 2048TIP3   OH227778   3.634   2.322   1.280  0.9347  0.4075  0.0760
 2048TIP3    H127779   3.725   2.303   1.255 -0.0142 -2.4157 -1.7642
 2048TIP3    H227780   3.603   2.240   1.319 -0.7263  1.4766  1.1128
 2049TIP3   OH227781   2.726   3.088   0.235 -0.2172 -0.4382  0.5093
 2049TIP3    H127782   2.765   3.030   0.170  2.6082  1.0379  0.7097
 2049TIP3    H227783   2.736   3.041   0.318  1.5415  0.0164  0.5957
 2050TIP3   OH227784   4.608   0.664   0.867 -0.6992 -0.2298  0.3571
 2050TIP3    H127785   4.618   0.569   0.876  1.2504 -0.1504 -0.4722
 2050TIP3    H227786   4.538   0.687   0.929 -1.1590 -2.1742  0.6272
 2051TIP3   OH227787   6.037   3.027   7.000 -0.2541 -0.3627  0.0416
 2051TIP3    H127788   6.018   3.038   7.093  0.4545  4.2454 -0.1213
 2051TIP3    H227789   6.122   2.984   6.998  0.9547  1.7414  1.7257
 2052TIP3   OH227790   4.446   4.884   0.589  0.0195 -0.1224 -0.4606
 2052TIP3    H127791   4.483   4.888   0.500 -1.4357 -0.3088 -1.1063
 2052TIP3    H227792   4.399   4.801   0.591 -0.3214  0.0845  0.3388
 2053TIP3   OH227793   5.276   0.431   7.682  0.3198 -0.2038  0.5578
 2053TIP3    H127794   5.301   0.493   7.750 -1.2646 -0.6762  1.6210
 2053TIP3    H227795   5.270   0.484   7.602  2.7961  0.2527  0.5882
 2054TIP3   OH227796   5.582   3.875   6.762  0.0809  0.0762 -0.0325
 2054TIP3    H127797   5.639   3.951   6.750  2.8505 -1.7428  0.9038
 2054TIP3    H227798   5.576   3.835   6.676  1.8372 -0.7677  0.2121
 2055TIP3   OH227799   3.178   5.464   7.838 -0.1766 -0.1867  0.4471
 2055TIP3    H127800   3.153   5.447   7.929 -1.3616 -1.0745 -0.0158
 2055TIP3    H227801   3.146   5.552   7.820 -0.6048 -0.2921  0.6751
 2056TIP3   OH227802   5.652   0.649   7.247 -0.7575 -0.2740  0.0367
 2056TIP3    H127803   5.584   0.583   7.234  0.6482 -1.7627 -0.0972
 2056TIP3    H227804   5.710   0.612   7.314 -0.4996  1.3162  0.7579
 2057TIP3   OH227805   1.617   2.750   7.828  0.4347 -0.2148  0.3047
 2057TIP3    H127806   1.552   2.810   7.791 -0.2826 -0.5906  0.9218
 2057TIP3    H227807   1.602   2.667   7.783  1.8203  0.1945 -0.9743
 2058TIP3   OH227808   1.663   2.658   5.582 -0.2958  0.4388 -0.3067
 2058TIP3    H127809   1.577   2.636   5.618  0.0155 -0.3786 -0.0512
 2058TIP3    H227810   1.724   2.600   5.627  0.5666  1.8395  0.4314
 2059TIP3   OH227811   5.786   4.522   0.012 -0.3635 -0.1201  0.1995
 2059TIP3    H127812   5.819   4.612   0.006 -1.5788  0.2796 -0.8441
 2059TIP3    H227813   5.743   4.507  -0.071 -0.6560 -1.4971  0.5797
 2060TIP3   OH227814   1.755   1.077   6.980 -0.2021 -0.5492  0.0390
 2060TIP3    H127815   1.698   1.085   7.056  1.2335 -0.2228  1.1335
 2060TIP3    H227816   1.827   1.138   6.997  0.6620 -1.1924 -1.1014
 2061TIP3   OH227817   4.835   5.073   6.426  0.0827  0.2182 -0.0501
 2061TIP3    H127818   4.879   5.018   6.491 -1.5350 -0.4958  0.5034
 2061TIP3    H227819   4.873   5.047   6.342 -2.0160 -3.3127 -0.0729
 2062TIP3   OH227820   3.446   4.569   7.729  0.3098  0.9194  0.0858
 2062TIP3    H127821   3.421   4.491   7.680 -1.8862  1.3929  0.3393
 2062TIP3    H227822   3.374   4.631   7.714  0.3752  1.6833  2.5480
 2063TIP3   OH227823   2.165   6.241   7.111  0.0249  0.4637  0.5582
 2063TIP3    H127824   2.117   6.323   7.106  0.6791  0.8286 -0.0061
 2063TIP3    H227825   2.116   6.181   7.054  0.8250  1.1583 -0.9290
 2064TIP3   OH227826   2.426   0.103   1.165  0.1397  0.3135 -0.0330
 2064TIP3    H127827   2.351   0.095   1.106 -0.7990  1.7084  0.8815
 2064TIP3    H227828   2.501   0.115   1.108 -0.7071  1.3901 -0.9757
 2065TIP3   OH227829   6.690   0.598   7.487 -0.0292  0.8176 -0.1228
 2065TIP3    H127830   6.773   0.555   7.508  0.6354  1.4103 -1.4610
 2065TIP3    H227831   6.699   0.628   7.397 -1.2060  2.0588  0.1235
 2066TIP3   OH227832   4.382   4.696   7.893 -0.7285 -0.6918  0.1718
 2066TIP3    H127833   4.366   4.672   7.984 -2.3293 -1.1248 -0.1885
 2066TIP3    H227834   4.335   4.778   7.880 -0.6796 -0.7334 -0.3087
 2067TIP3   OH227835   4.983   1.668   0.687 -0.2291  0.0459 -0.2024
 2067TIP3    H127836   4.889   1.686   0.675 -0.1862  0.8545  0.5646
 2067TIP3    H227837   4.985   1.578   0.722 -0.5299 -1.0490 -2.7915
 2068TIP3   OH227838   6.082   0.370   8.104  0.3403  0.1286  0.4781
 2068TIP3    H127839   6.113   0.326   8.025  1.4764  0.1743  0.8766
 2068TIP3    H227840   6.125   0.323   8.176  2.2056  2.2716  0.8894
 2069TIP3   OH227841   6.852   5.647   1.323  0.0601 -0.4656  0.5859
 2069TIP3    H127842   6.889   5.636   1.235 -0.6776  0.3707  0.1494
 2069TIP3    H227843   6.766   5.606   1.318 -0.4510  0.5773  0.5652
 2070TIP3   OH227844   0.846   6.998   6.433 -0.1224  0.0034  0.0156
 2070TIP3    H127845   0.932   6.957   6.427 -0.3292 -0.4041 -0.2430
 2070TIP3    H227846   0.811   6.993   6.344  0.4859  2.2019 -0.4139
 2071TIP3   OH227847   6.944   3.574   0.585  0.6567  0.9383  0.2263
 2071TIP3    H127848   6.867   3.563   0.640  0.4988 -0.1463 -0.1707
 2071TIP3    H227849   6.945   3.495   0.529  2.6501  0.3671  0.9697
 2072TIP3   OH227850   5.471   3.489   7.462  0.1749  0.1832  0.8431
 2072TIP3    H127851   5.450   3.461   7.373  0.8915 -0.4761  0.8775
 2072TIP3    H227852   5.530   3.422   7.496 -1.8567 -0.8286  2.6291
 2073TIP3   OH227853   5.532   3.813   1.833  0.0906  0.1662  0.0053
 2073TIP3    H127854   5.534   3.720   1.809 -1.5391 -0.4921  2.0787
 2073TIP3    H227855   5.440   3.837   1.829  0.5615  1.9740 -1.2378
 2074TIP3   OH227856   6.334   4.590   0.018 -0.1021 -0.4082  0.1118
 2074TIP3    H127857   6.398   4.648  -0.024 -0.8415 -1.0395 -1.9616
 2074TIP3    H227858   6.381   4.555   0.094  1.3718  0.5572 -0.2990
 2075TIP3   OH227859   6.695   1.783   0.961 -0.6924 -0.7740 -0.1721
 2075TIP3    H127860   6.673   1.784   0.868 -0.4968  2.5688 -0.2953
 2075TIP3    H227861   6.763   1.716   0.969 -0.9582 -1.3817 -2.3354
 2076TIP3   OH227862   1.981   6.831   7.371  0.0363  0.6562  0.4645
 2076TIP3    H127863   1.893   6.856   7.398  0.0253  0.5130  0.5666
 2076TIP3    H227864   2.031   6.828   7.452 -0.1460 -0.3591  0.5573
 2077TIP3   OH227865   7.079   6.602   7.376  0.0216  0.8300 -0.2359
 2077TIP3    H127866   7.062   6.524   7.428  0.9872  1.2761  0.7804
 2077TIP3    H227867   7.159   6.582   7.327 -0.8783  0.4095 -1.6045
 2078TIP3   OH227868   2.634   2.568   7.575  0.1775  0.5307 -0.7459
 2078TIP3    H127869   2.717   2.526   7.550 -0.4759 -0.5082 -1.2518
 2078TIP3    H227870   2.660   2.650   7.615  1.4769  0.0612 -0.5765
 2079TIP3   OH227871   5.976   6.809   6.786 -0.9632 -0.0674 -0.3880
 2079TIP3    H127872   5.949   6.729   6.831 -0.6828  0.2055  0.2803
 2079TIP3    H227873   5.960   6.791   6.693 -2.2825 -0.3578 -0.1289
 2080TIP3   OH227874   5.792   4.436   6.729  0.0159  0.3099 -0.2804
 2080TIP3    H127875   5.730   4.393   6.670 -2.0045  1.7291  0.6911
 2080TIP3    H227876   5.754   4.522   6.746  0.7191  0.1486  2.7116
 2081TIP3   OH227877   2.745   1.603   0.450 -0.5783  0.2213 -0.3190
 2081TIP3    H127878   2.823   1.657   0.458 -1.3975  1.6719 -1.4931
 2081TIP3    H227879   2.775   1.513   0.464  1.0238  0.8601  0.5935
 2082TIP3   OH227880   5.175   3.965   0.825  0.4875 -0.5271  0.8453
 2082TIP3    H127881   5.084   3.995   0.831  0.0874 -1.9079  2.5622
 2082TIP3    H227882   5.170   3.870   0.841  2.0488 -0.9631 -0.9402
 2083TIP3   OH227883   4.990   3.330   2.142  0.4265  0.5586  0.2542
 2083TIP3    H127884   4.991   3.425   2.139 -0.2636  0.5442 -0.7936
 2083TIP3    H227885   4.897   3.307   2.149  0.6508 -0.0229  1.8411
 2084TIP3   OH227886   3.218   2.562   0.319  0.5509 -0.2866  0.8052
 2084TIP3    H127887   3.286   2.580   0.383  0.2612  2.0753  0.5463
 2084TIP3    H227888   3.177   2.647   0.303 -0.8842 -1.2114 -0.8248
 2085TIP3   OH227889   6.649   4.659   1.313 -0.2677 -0.0014 -0.1192
 2085TIP3    H127890   6.569   4.711   1.326 -0.3255 -0.4602  1.5058
 2085TIP3    H227891   6.617   4.569   1.309  0.3508 -0.6203  4.2024
 2086TIP3   OH227892   2.871   1.140   0.939 -0.1873  0.1121 -0.1052
 2086TIP3    H127893   2.892   1.071   0.876  1.0595 -0.8474  1.2742
 2086TIP3    H227894   2.934   1.210   0.921  0.8357 -0.5744  0.6502
 2087TIP3   OH227895   3.817   2.041   6.803 -0.0771 -0.3331  0.5484
 2087TIP3    H127896   3.755   2.074   6.738  0.2479  0.6182  0.7173
 2087TIP3    H227897   3.889   2.104   6.803  0.2798 -0.7284  1.2913
 2088TIP3   OH227898   3.349   0.635   7.317  0.0175 -0.7873 -0.1620
 2088TIP3    H127899   3.438   0.669   7.315 -0.6715  1.3119  1.4049
 2088TIP3    H227900   3.302   0.686   7.251 -0.0161 -2.0547 -1.1626
 2089TIP3   OH227901   6.342   6.838   7.739  0.5925 -0.5210  0.1651
 2089TIP3    H127902   6.327   6.930   7.714 -0.5725 -0.3322  1.4237
 2089TIP3    H227903   6.433   6.837   7.770  2.0280 -0.7060 -3.5130
 2090TIP3   OH227904   1.533   2.023   7.000  0.4841  0.3800  0.2516
 2090TIP3    H127905   1.584   1.945   7.021  2.0693  1.0307 -1.0427
 2090TIP3    H227906   1.569   2.092   7.056  0.9699  0.8190 -0.5870
 2091TIP3   OH227907   3.513   1.346   7.454  0.0284  0.0411 -0.3787
 2091TIP3    H127908   3.588   1.332   7.396  0.8650 -0.7028  0.8428
 2091TIP3    H227909   3.537   1.301   7.535 -1.6547 -0.0227  0.1081
 2092TIP3   OH227910   6.877   2.568   6.286  0.3213  0.5334 -0.5119
 2092TIP3    H127911   6.929   2.569   6.206 -0.0778  2.0950 -0.7725
 2092TIP3    H227912   6.786   2.573   6.256  0.0814 -0.4544  0.0010
 2093TIP3   OH227913   1.809   6.249   1.280 -0.1603 -0.0825 -0.6854
 2093TIP3    H127914   1.791   6.203   1.362 -1.6060  1.9322  0.2012
 2093TIP3    H227915   1.903   6.267   1.283  0.2481 -2.0313 -0.6146
 2094TIP3   OH227916   3.699   4.706   7.832 -0.2564  0.3905  0.8529
 2094TIP3    H127917   3.779   4.660   7.859  0.4387  1.7981  1.2688
 2094TIP3    H227918   3.645   4.638   7.793  1.7557 -0.3482 -0.8351
 2095TIP3   OH227919   2.691   6.539   0.063 -0.4160 -0.0234 -0.0504
 2095TIP3    H127920   2.672   6.589   0.143  1.3782  0.5784  0.0596
 2095TIP3    H227921   2.734   6.460   0.094 -0.9277 -0.4338 -0.3695
 2096TIP3   OH227922   5.795   2.072   1.287  0.0435 -0.0752 -0.2179
 2096TIP3    H127923   5.876   2.036   1.322 -0.2867 -1.2707 -0.6561
 2096TIP3    H227924   5.819   2.160   1.257  0.9572 -0.0721  0.4775
 2097TIP3   OH227925   1.634   6.012   5.907  0.4282 -0.5297  0.4064
 2097TIP3    H127926   1.601   5.972   5.827 -1.8374  0.6655  0.6407
 2097TIP3    H227927   1.617   6.106   5.895  0.3095 -0.2915  2.1361
 2098TIP3   OH227928   4.575   4.633   7.714  0.3300 -0.2626  0.6342
 2098TIP3    H127929   4.527   4.659   7.793  0.9085  2.2032  0.2383
 2098TIP3    H227930   4.667   4.645   7.737  0.4791  2.4881 -0.9480
 2099TIP3   OH227931   1.194   3.559   7.217  0.0389 -0.3795 -0.6492
 2099TIP3    H127932   1.258   3.630   7.220  0.2356 -0.5149 -1.4192
 2099TIP3    H227933   1.124   3.587   7.277  1.5492 -0.9865  1.5355
 2100TIP3   OH227934   4.516   5.988   1.211  0.7686 -0.2374  0.3849
 2100TIP3    H127935   4.490   6.076   1.239  1.5785 -0.0134  0.4670
 2100TIP3    H227936   4.532   5.997   1.117  1.1415 -0.2235  0.4486
 2101TIP3   OH227937   6.850   0.864   1.672 -0.1373 -0.2302 -0.3291
 2101TIP3    H127938   6.915   0.925   1.707 -0.1072  0.6755 -1.8613
 2101TIP3    H227939   6.881   0.778   1.700  1.3272  0.2369 -0.4164
 2102TIP3   OH227940   1.787   2.867   0.973  0.0215 -0.0503  0.0503
 2102TIP3    H127941   1.764   2.783   1.015 -0.8651  0.7530  1.2426
 2102TIP3    H227942   1.801   2.927   1.046  1.4748  0.6527 -0.7818
 2103TIP3   OH227943   1.070   0.548   6.905 -0.9357 -0.3375 -0.1051
 2103TIP3    H127944   0.999   0.549   6.969 -1.3314 -0.7592 -0.5380
 2103TIP3    H227945   1.123   0.472   6.929 -0.8599 -0.2640 -0.0374
 2104TIP3   OH227946   4.410   1.334   0.675 -0.0279  0.1418  0.3231
 2104TIP3    H127947   4.390   1.403   0.612 -1.9185 -1.3253 -0.8091
 2104TIP3    H227948   4.499   1.306   0.652 -0.3165  0.2826 -1.1038
 2105TIP3   OH227949   1.374   6.133   0.631 -0.3409  0.5933 -0.0640
 2105TIP3    H127950   1.408   6.122   0.542  1.3710  0.3631  0.5773
 2105TIP3    H227951   1.365   6.044   0.665 -1.5895  0.6509 -0.1951
 2106TIP3   OH227952   6.199   2.326   0.544  0.2416  0.2605  0.4658
 2106TIP3    H127953   6.257   2.290   0.610 -0.5074  0.4975  1.2717
 2106TIP3    H227954   6.149   2.394   0.590 -0.4844  0.2422 -0.2624
 2107TIP3   OH227955   1.295   7.015   1.374  0.5559 -0.6216 -0.1872
 2107TIP3    H127956   1.203   7.029   1.354  0.0290 -1.9799  1.0672
 2107TIP3    H227957   1.341   7.083   1.324 -1.2055  0.9730  0.2030
 2108TIP3   OH227958   0.111   6.450   1.418  0.4186  0.8917 -0.0138
 2108TIP3    H127959   0.054   6.414   1.349  1.1255 -1.6368  0.6344
 2108TIP3    H227960   0.175   6.503   1.370  1.4730 -1.5541 -1.4938
 2109TIP3   OH227961   5.624   2.649   6.712  0.1146  0.0207  0.5881
 2109TIP3    H127962   5.609   2.722   6.651 -0.4529 -1.4344 -1.0897
 2109TIP3    H227963   5.712   2.665   6.747  0.7272  0.5922 -1.1139
 2110TIP3   OH227964   0.324   6.142   0.467 -0.1970 -0.4437 -0.6311
 2110TIP3    H127965   0.395   6.126   0.528  1.1879 -2.1997 -2.5541
 2110TIP3    H227966   0.306   6.056   0.428 -0.5355  0.6741 -3.1338
 2111TIP3   OH227967   2.969   2.745   6.321 -0.0467 -0.1733 -0.0552
 2111TIP3    H127968   2.942   2.837   6.332 -0.6026 -0.2081 -1.0644
 2111TIP3    H227969   2.895   2.703   6.278 -0.6021 -1.5868  2.1217
 2112TIP3   OH227970   6.197   3.749   0.997  0.6015  0.3993  0.3226
 2112TIP3    H127971   6.118   3.707   1.031  0.8959 -0.0581  0.4446
 2112TIP3    H227972   6.269   3.707   1.044  1.0250 -0.3418 -0.9405
 2113TIP3   OH227973   2.101   6.809   0.870  0.1079  0.2283  0.1323
 2113TIP3    H127974   2.099   6.737   0.933 -0.9415  2.0306  2.2870
 2113TIP3    H227975   2.175   6.863   0.896  2.1419 -0.9396 -2.6758
 2114TIP3   OH227976   2.476   0.551   1.298  0.2966  1.0766  0.8865
 2114TIP3    H127977   2.508   0.461   1.299  2.3866  1.7598  2.8456
 2114TIP3    H227978   2.394   0.548   1.346  0.0688  0.1548  0.4641
 2115TIP3   OH227979   6.117   4.432   7.518  0.6154  0.4932  0.5233
 2115TIP3    H127980   6.089   4.431   7.610 -0.2741  0.3244  0.2647
 2115TIP3    H227981   6.176   4.357   7.510 -1.9959 -1.6769  0.2017
 2116TIP3   OH227982   1.848   6.367   7.863 -0.6561 -0.5414 -0.0511
 2116TIP3    H127983   1.882   6.456   7.854  1.2710 -0.9931  1.9681
 2116TIP3    H227984   1.753   6.379   7.870 -0.6288  1.1513 -1.6181
 2117TIP3   OH227985   6.140   3.299   7.121  0.4399  0.1724  0.8174
 2117TIP3    H127986   6.175   3.362   7.059  0.1487  1.3531  1.8069
 2117TIP3    H227987   6.056   3.337   7.149  0.1698 -0.7440  1.2879
 2118TIP3   OH227988   5.030   6.784   6.974  0.0783  0.5607  0.1194
 2118TIP3    H127989   5.123   6.776   6.950  0.1344  0.9919  0.1813
 2118TIP3    H227990   4.989   6.707   6.936  0.6285 -0.1430  0.9027
 2119TIP3   OH227991   4.710   0.401   5.670  0.1253  0.6149  0.2274
 2119TIP3    H127992   4.757   0.472   5.712  0.4360  1.4826 -1.4876
 2119TIP3    H227993   4.773   0.329   5.667  0.5474  0.9908  0.0372
 2120TIP3   OH227994   0.502   5.791   7.344 -0.3578 -0.2779  0.8059
 2120TIP3    H127995   0.513   5.717   7.403 -0.8199 -0.5835  0.5084
 2120TIP3    H227996   0.554   5.769   7.267 -2.5477 -1.5146 -0.4041
 2121TIP3   OH227997   1.881   0.498   1.205  0.3213 -0.1777 -0.2429
 2121TIP3    H127998   1.878   0.583   1.162  0.7965 -0.5539 -1.0346
 2121TIP3    H227999   1.911   0.437   1.137 -0.1664 -1.0091  0.2635
 2122TIP3   OH228000   4.247   4.652   7.344  0.7774 -0.0870  0.0835
 2122TIP3    H128001   4.295   4.660   7.427  1.5421  0.8665 -0.4287
 2122TIP3    H228002   4.210   4.740   7.330 -2.1350 -1.0277  1.0241
 2123TIP3   OH228003   4.008   2.652   7.981  0.3443 -0.2133  0.1371
 2123TIP3    H128004   4.079   2.608   8.029  1.3621  0.7194 -0.4840
 2123TIP3    H228005   3.954   2.580   7.948 -0.6198 -0.8999  2.9393
 2124TIP3   OH228006   3.684   3.686   6.665 -0.2567 -0.1762 -0.1514
 2124TIP3    H128007   3.603   3.735   6.653 -1.5028 -1.3802  2.3700
 2124TIP3    H228008   3.658   3.594   6.659  0.2876 -0.6810  3.2051
 2125TIP3   OH228009   4.443   3.762   0.796 -0.1951 -0.0520  0.0325
 2125TIP3    H128010   4.529   3.727   0.774  1.0718  2.0917  1.1871
 2125TIP3    H228011   4.450   3.787   0.888 -1.4101  1.8749 -0.3336
 2126TIP3   OH228012   2.169   6.233   6.797  0.0695 -0.0420 -0.2146
 2126TIP3    H128013   2.232   6.261   6.731  0.7301  0.7236  0.7016
 2126TIP3    H228014   2.218   6.173   6.853 -0.0741  0.3370  0.3359
 2127TIP3   OH228015   6.988   5.106   7.058  0.3475 -0.4814 -0.2972
 2127TIP3    H128016   6.986   5.026   7.006 -0.3439 -0.6725  0.0094
 2127TIP3    H228017   6.900   5.144   7.047  0.6445  0.1992 -0.3846
 2128TIP3   OH228018   2.313   3.126   1.407  0.4524 -0.1685  0.2214
 2128TIP3    H128019   2.331   3.054   1.468  0.7348  0.1408  0.5012
 2128TIP3    H228020   2.396   3.140   1.362 -0.2055 -1.6271 -1.5636
 2129TIP3   OH228021   1.104   7.094   7.651 -0.4304 -0.2390  1.0528
 2129TIP3    H128022   1.023   7.126   7.691 -0.8218  1.6454 -1.0404
 2129TIP3    H228023   1.076   7.054   7.569  0.7147  0.1621  0.4437
 2130TIP3   OH228024   2.640   5.466   0.890  0.0998  0.4085 -0.5693
 2130TIP3    H128025   2.571   5.491   0.829 -0.7411  1.5768  0.8020
 2130TIP3    H228026   2.679   5.549   0.918  1.7480 -0.2053 -0.9469
 2131TIP3   OH228027   3.117   3.958   7.241 -0.6423  0.6590 -0.1658
 2131TIP3    H128028   3.028   3.991   7.245 -1.0281 -0.3582 -0.1120
 2131TIP3    H228029   3.138   3.934   7.332 -0.5996  0.1608 -0.3066
 2132TIP3   OH228030   5.170   3.165   0.932  0.1052 -0.7637 -0.2940
 2132TIP3    H128031   5.089   3.213   0.951  0.6127  1.2995 -2.7032
 2132TIP3    H228032   5.211   3.151   1.017 -2.1602 -0.7104  0.8681
 2133TIP3   OH228033   4.299   4.698   7.604  0.4520 -0.4181 -0.4436
 2133TIP3    H128034   4.360   4.669   7.672  0.0553 -0.8572 -0.2709
 2133TIP3    H228035   4.302   4.794   7.609  1.6052 -0.4071 -0.8677
 2134TIP3   OH228036   3.809   1.426   0.271 -0.2658  0.2406 -0.2759
 2134TIP3    H128037   3.778   1.356   0.328 -0.2846 -1.1644 -1.9522
 2134TIP3    H228038   3.744   1.431   0.201  0.9900  0.2284 -1.4905
 2135TIP3   OH228039   3.338   2.611   6.146  0.2210  0.5277  0.3354
 2135TIP3    H128040   3.421   2.566   6.161  0.7443  1.8588  1.6678
 2135TIP3    H228041   3.288   2.596   6.226 -0.1041  1.2180  0.2697
 2136TIP3   OH228042   1.187   2.289   0.926 -0.0634  0.1650 -0.0972
 2136TIP3    H128043   1.194   2.282   1.021 -1.6192 -3.5335 -0.0988
 2136TIP3    H228044   1.095   2.313   0.910  0.1714  0.7104 -0.6968
 2137TIP3   OH228045   6.857   5.435   0.905  0.0731 -0.0479 -0.2992
 2137TIP3    H128046   6.835   5.373   0.974 -1.4320 -0.5744 -1.1945
 2137TIP3    H228047   6.790   5.421   0.838  0.5769  1.5121 -1.1909
 2138TIP3   OH228048   3.345   6.536   1.175  0.5360  0.3046  0.5031
 2138TIP3    H128049   3.377   6.610   1.125  1.2466  0.3074  0.9517
 2138TIP3    H228050   3.420   6.508   1.228  0.2810 -0.7276  0.3407
 2139TIP3   OH228051   2.903   2.031   6.660  0.6846 -0.1207  0.3322
 2139TIP3    H128052   2.852   2.036   6.579  3.0414 -0.5674 -1.2680
 2139TIP3    H228053   2.895   1.939   6.686  2.0149 -0.6082 -0.8790
 2140TIP3   OH228054   5.870   4.096   6.932 -0.1735 -0.7142  0.1655
 2140TIP3    H128055   5.953   4.058   6.962  0.0696  0.5121  1.1296
 2140TIP3    H228056   5.871   4.185   6.966 -1.6482 -0.4966 -0.2921
 2141TIP3   OH228057   3.663   2.460   6.713  0.1981 -0.4415  0.1618
 2141TIP3    H128058   3.626   2.495   6.632 -0.3408  2.1309  1.3926
 2141TIP3    H228059   3.593   2.408   6.751 -0.7906  1.0612  0.5061
 2142TIP3   OH228060   7.111   3.347   1.003  0.1033  0.5765  0.2927
 2142TIP3    H128061   7.177   3.407   1.038  0.5160  0.3723 -0.1350
 2142TIP3    H228062   7.123   3.266   1.051 -0.2684  0.7403  0.6707
 2143TIP3   OH228063   5.961   5.308   1.968 -0.2447 -0.0402 -0.4617
 2143TIP3    H128064   5.997   5.236   1.915 -0.3485  0.1180 -0.7469
 2143TIP3    H228065   5.986   5.387   1.922  2.5255  0.3157  1.4080
 2144TIP3   OH228066   0.575   5.130   7.470 -0.1695 -0.2866  0.2459
 2144TIP3    H128067   0.608   5.209   7.512 -0.8934 -0.8277  1.9295
 2144TIP3    H228068   0.510   5.096   7.532 -0.2013 -1.9431 -0.6515
 2145TIP3   OH228069   6.083   6.096   7.448 -0.4309 -0.3770 -0.3553
 2145TIP3    H128070   6.063   6.184   7.419  1.7458  1.0538  2.0434
 2145TIP3    H228071   6.006   6.068   7.497 -1.1593  0.1123 -1.1841
 2146TIP3   OH228072   5.172   3.438   6.596 -0.5544  0.3755  0.3352
 2146TIP3    H128073   5.173   3.434   6.692 -0.4305 -2.0236  0.2912
 2146TIP3    H228074   5.258   3.474   6.574 -0.2070  0.0661  1.1220
 2147TIP3   OH228075   2.402   2.281   6.765 -0.4467 -0.6134 -0.3335
 2147TIP3    H128076   2.488   2.306   6.800  0.0316  0.7696 -2.3333
 2147TIP3    H228077   2.344   2.284   6.842  1.0631 -0.4853  0.8566
 2148TIP3   OH228078   7.032   4.217   7.612  0.0946 -0.0725 -0.3131
 2148TIP3    H128079   6.984   4.174   7.683  2.2825 -2.4566 -0.1332
 2148TIP3    H228080   7.080   4.146   7.569  2.3779  1.9454 -1.3094
 2149TIP3   OH228081   1.532   1.307   7.841 -0.2295 -0.1171 -0.1172
 2149TIP3    H128082   1.504   1.329   7.752  1.6418 -0.0736 -0.7360
 2149TIP3    H228083   1.553   1.214   7.837 -2.6137 -0.7655  1.0001
 2150TIP3   OH228084   5.138   1.614   0.443  0.3489 -0.2426 -0.5165
 2150TIP3    H128085   5.061   1.669   0.431 -0.3516 -1.2078 -0.5181
 2150TIP3    H228086   5.124   1.570   0.526  1.3832  0.3138 -0.0216
 2151TIP3   OH228087   6.392   1.713   0.036  0.5239 -0.5988 -0.3697
 2151TIP3    H128088   6.471   1.661   0.048  0.3659 -0.8061 -0.2175
 2151TIP3    H228089   6.344   1.669  -0.034  0.2840 -0.7919 -0.0895
 2152TIP3   OH228090   3.980   2.245   6.779  0.6651 -0.4708 -0.8196
 2152TIP3    H128091   3.955   2.311   6.715  0.1771 -0.7582 -0.9340
 2152TIP3    H228092   4.051   2.285   6.829  0.6675 -0.0309 -1.1694
 2153TIP3   OH228093   6.849   1.568   0.256 -0.0899 -0.0329 -0.2868
 2153TIP3    H128094   6.874   1.485   0.297 -1.6021 -0.5129 -0.2794
 2153TIP3    H228095   6.931   1.617   0.249  0.7517 -1.3377  0.1313
 2154TIP3   OH228096   4.957   6.473   0.637  0.1765  0.5241  0.2018
 2154TIP3    H128097   4.896   6.508   0.572 -0.2749  0.3146  0.5077
 2154TIP3    H228098   5.012   6.549   0.661 -0.3989  0.8841  0.4109
 2155TIP3   OH228099   3.417   7.076   6.819 -0.1412 -0.9383  0.1220
 2155TIP3    H128100   3.328   7.042   6.816 -0.3706 -0.3181 -0.3854
 2155TIP3    H228101   3.437   7.100   6.728 -0.0330  0.3424  0.4627
 2156TIP3   OH228102   3.071   0.038   0.051  0.3149  0.0344 -0.1562
 2156TIP3    H128103   3.159   0.071   0.069 -0.5031  2.0224  0.4813
 2156TIP3    H228104   3.055   0.060  -0.041  0.9645 -1.6132 -0.7060
 2157TIP3   OH228105   3.245   4.856   6.853  0.0468 -0.0357 -0.2919
 2157TIP3    H128106   3.285   4.844   6.939 -0.2304 -0.4183 -0.2121
 2157TIP3    H228107   3.273   4.943   6.825  0.4782 -0.0757  0.0044
 2158TIP3   OH228108   6.345   4.034   1.381  0.0905 -0.2972 -0.4030
 2158TIP3    H128109   6.257   4.071   1.374 -0.3815 -1.5735 -1.6311
 2158TIP3    H228110   6.395   4.077   1.313  1.2115  2.3159  1.8732
 2159TIP3   OH228111   5.055   0.196   0.786 -0.0804 -0.2187 -0.4554
 2159TIP3    H128112   4.990   0.265   0.798  1.1293  0.6343  1.4869
 2159TIP3    H228113   5.139   0.237   0.806  0.8527 -1.8540 -0.7945
 2160TIP3   OH228114   2.259   3.058   6.070 -0.1360 -0.1061 -0.3174
 2160TIP3    H128115   2.337   3.003   6.063 -0.4762 -1.1889  2.7291
 2160TIP3    H228116   2.191   2.998   6.101 -2.1624  0.8712 -2.6541
 2161TIP3   OH228117   3.797   1.348   0.701 -0.0035  0.9629 -0.1834
 2161TIP3    H128118   3.802   1.442   0.717 -2.3409  1.1254 -0.1055
 2161TIP3    H228119   3.732   1.316   0.763  2.1372 -1.1136  1.1693
 2162TIP3   OH228120   1.590   6.318   5.866 -0.4546  0.5303  0.0307
 2162TIP3    H128121   1.678   6.339   5.897 -0.5867  1.3677 -0.1453
 2162TIP3    H228122   1.575   6.378   5.793 -0.1611 -1.3935 -1.6973
 2163TIP3   OH228123   3.181   3.292   0.248 -0.0629 -0.0785 -0.1007
 2163TIP3    H128124   3.201   3.385   0.261 -1.3871  0.1153  0.6487
 2163TIP3    H228125   3.135   3.266   0.328 -0.3121 -1.2098 -0.5996
 2164TIP3   OH228126   0.584   0.467   0.174  0.6785 -0.5211  0.8161
 2164TIP3    H128127   0.538   0.392   0.135  2.7971 -0.8446 -1.2521
 2164TIP3    H228128   0.520   0.538   0.170 -0.1883 -1.3228 -0.5427
 2165TIP3   OH228129   6.496   4.521   0.612 -0.1966  0.1707  0.0438
 2165TIP3    H128130   6.456   4.579   0.547  0.6864  0.0022 -0.6782
 2165TIP3    H228131   6.590   4.532   0.599 -0.0090 -0.8345  0.4203
 2166TIP3   OH228132   4.127   2.884   0.888 -0.0439  0.5918 -0.1467
 2166TIP3    H128133   4.173   2.862   0.969  0.7379 -0.6828 -0.9087
 2166TIP3    H228134   4.078   2.804   0.865  0.6234  0.5420 -1.5017
 2167TIP3   OH228135   6.500   3.476   6.450 -0.0151 -0.0340  0.3215
 2167TIP3    H128136   6.429   3.491   6.387 -0.9840 -0.7774  1.1997
 2167TIP3    H228137   6.526   3.564   6.478  0.9500  0.3591 -1.6243
 2168TIP3   OH228138   4.983   3.814   5.890  0.3468  0.0139  0.3448
 2168TIP3    H128139   4.910   3.790   5.947 -0.3352 -0.1731 -0.5967
 2168TIP3    H228140   4.950   3.889   5.840  0.0294 -1.3361 -1.5604
 2169TIP3   OH228141   4.977   4.381   7.825  0.3384  0.5703 -0.2920
 2169TIP3    H128142   4.975   4.429   7.908  1.3046 -1.5557  1.0434
 2169TIP3    H228143   4.938   4.296   7.845  2.4448 -0.7690 -1.4476
 2170TIP3   OH228144   4.934   6.119   0.174  0.0142  0.8721 -0.2345
 2170TIP3    H128145   4.960   6.195   0.227  1.4192 -1.8653  3.4895
 2170TIP3    H228146   5.011   6.101   0.119  0.0548  1.5615 -0.4082
 2171TIP3   OH228147   1.973   4.428   7.204  0.2362 -0.4782  0.3532
 2171TIP3    H128148   1.896   4.421   7.260  0.3139  1.6487  0.8108
 2171TIP3    H228149   2.033   4.485   7.253  0.7445  0.5856 -1.4249
 2172TIP3   OH228150   3.315   6.244   6.775  0.6915 -0.0049  0.1325
 2172TIP3    H128151   3.396   6.248   6.826  0.1141  1.0562  1.0015
 2172TIP3    H228152   3.344   6.225   6.686  1.7167 -2.1916  0.8439
 2173TIP3   OH228153   1.322   2.464   7.853  0.8124 -0.9630 -0.2016
 2173TIP3    H128154   1.305   2.516   7.775  2.6549 -0.6086 -0.4196
 2173TIP3    H228155   1.282   2.513   7.924  0.9899 -0.1618 -0.6469
 2174TIP3   OH228156   0.088   0.301   0.719  0.3500 -0.4223  0.3705
 2174TIP3    H128157   0.127   0.310   0.806 -1.3232  1.0429  1.0241
 2174TIP3    H228158  -0.003   0.277   0.737  0.4795 -2.1980 -1.0595
 2175TIP3   OH228159   6.569   3.417   1.087 -0.4613 -0.4383  0.0165
 2175TIP3    H128160   6.660   3.412   1.056 -0.7027 -1.7237 -0.5655
 2175TIP3    H228161   6.517   3.429   1.008 -0.8201  0.2176  0.3394
 2176TIP3   OH228162   0.984   7.103   1.295 -0.0052  0.1970 -0.0252
 2176TIP3    H128163   0.955   7.184   1.337  1.0441 -0.5592  2.3539
 2176TIP3    H228164   1.031   7.132   1.217 -0.3256  1.8177  0.3398
 2177TIP3   OH228165   1.239   5.743   0.172 -0.2106 -0.0229 -0.0028
 2177TIP3    H128166   1.218   5.729   0.079 -0.9541  0.4764  0.0836
 2177TIP3    H228167   1.175   5.691   0.219  1.0935 -1.4861  0.2375
 2178TIP3   OH228168   1.103   1.704   7.652  0.8533 -0.1947  0.2483
 2178TIP3    H128169   1.031   1.644   7.670 -2.1114  2.9805  0.0564
 2178TIP3    H228170   1.120   1.694   7.559 -1.1482  0.7112 -0.2597
 2179TIP3   OH228171   5.378   1.115   7.673 -0.3088 -0.8414  0.4465
 2179TIP3    H128172   5.461   1.163   7.671 -1.6831  1.6993 -0.2401
 2179TIP3    H228173   5.360   1.103   7.767 -0.3723  0.9376  0.6985
 2180TIP3   OH228174   4.504   0.375   1.427  0.0175  0.4333  0.4864
 2180TIP3    H128175   4.587   0.351   1.386  0.0941  1.0852  0.2431
 2180TIP3    H228176   4.525   0.451   1.482 -0.4032  0.5685  0.4670
 2181TIP3   OH228177   3.134   6.131   1.470 -0.0812 -0.1674 -0.1176
 2181TIP3    H128178   3.077   6.207   1.467 -0.6630 -0.6014 -0.1303
 2181TIP3    H228179   3.220   6.167   1.492  0.2351  0.8282 -2.6178
 2182TIP3   OH228180   5.677   2.633   1.768 -0.6308 -0.4762  0.1964
 2182TIP3    H128181   5.743   2.696   1.798 -2.1366  2.4749 -2.1772
 2182TIP3    H228182   5.700   2.552   1.813  1.7874  1.5613  3.0814
 2183TIP3   OH228183   5.212   4.332   6.811 -0.4535  0.3489  0.1506
 2183TIP3    H128184   5.279   4.369   6.868 -2.4158  0.2275  2.7178
 2183TIP3    H228185   5.194   4.245   6.847 -1.4079  0.0565 -0.9559
 2184TIP3   OH228186   1.269   5.290   7.299  0.4159 -0.1471  0.2052
 2184TIP3    H128187   1.212   5.254   7.231  1.1207  0.3890 -0.6708
 2184TIP3    H228188   1.354   5.251   7.282  1.7585  3.3357 -2.0226
 2185TIP3   OH228189   2.243   5.206   0.312 -0.4206  0.8850  1.0810
 2185TIP3    H128190   2.184   5.143   0.271  0.7282  1.3977 -1.5908
 2185TIP3    H228191   2.326   5.197   0.263  0.6139  2.5731  2.4028
 2186TIP3   OH228192   4.742   1.372   1.079  0.4158 -0.5825 -0.0513
 2186TIP3    H128193   4.738   1.318   1.158 -0.0013  0.2351  0.5004
 2186TIP3    H228194   4.651   1.380   1.050  0.5746 -0.9498 -0.6750
 2187TIP3   OH228195   1.150   0.864   0.517  0.0181 -0.5807 -0.6461
 2187TIP3    H128196   1.205   0.940   0.499 -1.7479  1.2448  1.2162
 2187TIP3    H228197   1.077   0.872   0.454 -0.5392 -0.3067  0.0261
 2188TIP3   OH228198   5.857   4.895   7.195  0.0704 -0.0900  0.5876
 2188TIP3    H128199   5.838   4.898   7.288 -0.8203 -0.0593  0.4069
 2188TIP3    H228200   5.897   4.980   7.176  1.1752 -0.4633  1.1200
 2189TIP3   OH228201   1.388   3.918   6.482  0.3402 -0.2984 -0.1355
 2189TIP3    H128202   1.312   3.881   6.527  1.8483 -0.6049  2.3137
 2189TIP3    H228203   1.351   3.982   6.421 -1.8542  0.2182  1.6151
 2190TIP3   OH228204   4.727   6.913   1.055 -0.3310  0.4036 -0.3176
 2190TIP3    H128205   4.669   6.895   0.982 -0.2620  1.3176 -0.6176
 2190TIP3    H228206   4.672   6.954   1.121 -0.3856 -0.3892  0.1314
 2191TIP3   OH228207   5.992   6.649   0.927 -0.3847 -0.4551 -0.5329
 2191TIP3    H128208   5.939   6.711   0.878  1.1667  2.2134  0.8837
 2191TIP3    H228209   5.929   6.592   0.971 -2.1150  1.9570  0.3374
 2192TIP3   OH228210   4.941   1.133   0.035 -0.1237 -0.6983 -0.0009
 2192TIP3    H128211   4.893   1.112   0.115 -0.4783 -0.6932 -0.2123
 2192TIP3    H228212   5.017   1.182   0.065 -0.4808 -0.3237  0.2959
 2193TIP3   OH228213   3.935   2.583   7.029  0.3092  1.1261  0.7698
 2193TIP3    H128214   3.966   2.495   7.054 -0.4492  0.6264  0.0127
 2193TIP3    H228215   3.990   2.643   7.079  1.0812  0.2230  1.0369
 2194TIP3   OH228216   3.655   5.287   6.964 -0.0556  0.4962  0.0301
 2194TIP3    H128217   3.701   5.358   7.008  0.6440  0.2757 -0.3343
 2194TIP3    H228218   3.724   5.233   6.926 -0.6151  0.2104 -0.6075
 2195TIP3   OH228219   3.583   6.918   6.457 -0.1004 -0.1119  0.2709
 2195TIP3    H128220   3.585   6.984   6.527  1.0372 -0.1131  0.2601
 2195TIP3    H228221   3.599   6.968   6.377 -2.1720  0.0108 -0.1343
 2196TIP3   OH228222   3.838   5.624   1.715  0.4931  0.1505 -0.0276
 2196TIP3    H128223   3.802   5.554   1.770  0.2269  0.0562 -0.3210
 2196TIP3    H228224   3.931   5.601   1.705  0.8161  0.7705  1.3110
 2197TIP3   OH228225   4.967   4.572   0.820  1.1441  0.2257 -0.0413
 2197TIP3    H128226   5.015   4.547   0.899 -0.5194  1.2799  1.3957
 2197TIP3    H228227   4.933   4.660   0.840  0.7211  0.5454 -1.9594
 2198TIP3   OH228228   0.585   4.565   7.107  0.1572 -0.3963 -0.1658
 2198TIP3    H128229   0.556   4.645   7.151 -2.1457 -0.6204 -1.1472
 2198TIP3    H228230   0.566   4.495   7.169  1.3621 -0.2950  0.3427
 2199TIP3   OH228231   2.739   6.288   0.631 -0.1322  0.1876 -0.0595
 2199TIP3    H128232   2.664   6.345   0.651 -0.3640 -0.4914  1.1304
 2199TIP3    H228233   2.749   6.294   0.536 -2.1228 -0.1969 -0.3363
 2200TIP3   OH228234   6.038   1.916   7.542  0.3304  0.0801 -0.1766
 2200TIP3    H128235   6.108   1.853   7.553  0.4464  0.1603 -0.4467
 2200TIP3    H228236   6.048   1.948   7.452  0.7588  1.0555  0.1947
 2201TIP3   OH228237   3.427   3.249   6.132  0.3927 -0.9390 -0.2019
 2201TIP3    H128238   3.464   3.264   6.219 -0.7800 -0.3301  0.2046
 2201TIP3    H228239   3.417   3.154   6.125 -0.4813 -0.9285  0.7512
 2202TIP3   OH228240   2.369   1.502   1.067 -0.3466  0.6132  0.1501
 2202TIP3    H128241   2.315   1.440   1.115 -2.0872  2.2197  0.4115
 2202TIP3    H228242   2.326   1.510   0.981 -1.0782  2.5137  0.6442
 2203TIP3   OH228243   0.381   6.535   0.531  0.2181 -0.4478  0.0956
 2203TIP3    H128244   0.428   6.593   0.471 -0.4624 -0.4388 -0.4395
 2203TIP3    H228245   0.429   6.452   0.527  0.5858 -0.2368  0.0743
 2204TIP3   OH228246   1.880   5.757   7.508 -0.1980  0.0391 -0.3144
 2204TIP3    H128247   1.838   5.678   7.541  0.1253 -0.2493 -0.5765
 2204TIP3    H228248   1.964   5.760   7.554 -0.2701  0.3041 -0.2029
 2205TIP3   OH228249   4.442   0.089   1.449 -0.1227  0.2543  0.7736
 2205TIP3    H128250   4.493   0.056   1.523  1.4347 -1.1233 -0.8328
 2205TIP3    H228251   4.462   0.183   1.445 -0.5661  0.4435  2.2930
 2206TIP3   OH228252   4.757   1.673   6.391  0.0089 -0.1562  0.3724
 2206TIP3    H128253   4.663   1.653   6.393 -0.0242 -0.0042  0.4272
 2206TIP3    H228254   4.786   1.656   6.481  0.7663 -3.5191 -0.3735
 2207TIP3   OH228255   2.451   4.924   5.859  0.0768  0.6780  0.6207
 2207TIP3    H128256   2.372   4.971   5.887 -0.4447  0.6524 -0.7354
 2207TIP3    H228257   2.516   4.946   5.925 -0.9722  0.9519  1.6124
 2208TIP3   OH228258   2.515   3.318   7.736 -0.3633 -0.7592 -0.2694
 2208TIP3    H128259   2.514   3.410   7.711 -1.6068 -0.5139  0.5751
 2208TIP3    H228260   2.498   3.319   7.831  3.0419 -1.6885  0.5213
 2209TIP3   OH228261   5.099   6.031   6.667  0.1398 -0.3200  0.1028
 2209TIP3    H128262   5.079   6.119   6.698  0.2155 -0.3858  0.3394
 2209TIP3    H228263   5.168   6.044   6.602 -0.5656 -0.1091 -0.6172
 2210TIP3   OH228264   4.698   6.568   1.092 -0.0067 -0.3194  0.6127
 2210TIP3    H128265   4.659   6.529   1.170  1.7736 -0.4593  1.4645
 2210TIP3    H228266   4.792   6.565   1.107  0.3137  1.4355 -0.7026
 2211TIP3   OH228267   2.607   5.702   7.438  0.0326  0.1213 -0.1060
 2211TIP3    H128268   2.610   5.614   7.474 -1.5930  0.0715 -0.0278
 2211TIP3    H228269   2.569   5.692   7.351 -0.0494  0.7248 -0.1464
 2212TIP3   OH228270   2.128   2.532   0.492 -0.2007 -0.5372 -0.4003
 2212TIP3    H128271   2.122   2.569   0.580 -1.1105 -1.4342 -0.0631
 2212TIP3    H228272   2.173   2.448   0.504 -0.4015 -0.7011 -0.7743
 2213TIP3   OH228273   5.246   0.766   1.425 -0.1727  0.1200  0.4397
 2213TIP3    H128274   5.316   0.741   1.484  0.6733 -0.0867 -0.6203
 2213TIP3    H228275   5.278   0.744   1.338 -2.0332 -1.1003 -0.0007
 2214TIP3   OH228276   2.205   4.289   6.742  0.2724 -0.8534  0.0678
 2214TIP3    H128277   2.249   4.373   6.728 -1.4136  0.1682  0.5711
 2214TIP3    H228278   2.114   4.313   6.761 -0.6822 -2.9092 -1.6119
 2215TIP3   OH228279   0.081   3.189   1.480  0.4915  0.0617  0.1113
 2215TIP3    H128280   0.137   3.162   1.552  0.4426  2.7975  1.2938
 2215TIP3    H228281  -0.008   3.178   1.514  0.3778 -0.9504 -0.4735
 2216TIP3   OH228282   4.217   6.068   1.362 -0.6539 -0.0768 -0.2576
 2216TIP3    H128283   4.200   5.992   1.417 -2.4292  0.5792  0.1621
 2216TIP3    H228284   4.137   6.079   1.310  0.1619  0.5934 -1.4289
 2217TIP3   OH228285   4.575   6.030   6.828  1.0283  0.1191 -0.1142
 2217TIP3    H128286   4.583   6.004   6.920  0.9308  0.6678  0.0508
 2217TIP3    H228287   4.624   6.112   6.822 -0.5343  1.0823 -0.1338
 2218TIP3   OH228288   2.488   2.433   7.859 -0.4259  0.4372 -0.0703
 2218TIP3    H128289   2.421   2.371   7.830  0.3974 -0.6107  0.2579
 2218TIP3    H228290   2.551   2.436   7.788  0.0131  0.1957  0.3073
 2219TIP3   OH228291   2.855   0.224   1.359  0.1089 -0.7665  0.3557
 2219TIP3    H128292   2.835   0.182   1.443  0.1300  0.1789  0.8470
 2219TIP3    H228293   2.810   0.309   1.364  0.8060 -0.3552 -0.2486
 2220TIP3   OH228294   6.851   6.890   0.829 -0.9177 -0.0447  0.6606
 2220TIP3    H128295   6.785   6.891   0.898  0.2297 -2.5070  1.9221
 2220TIP3    H228296   6.817   6.829   0.763 -0.4603 -0.3999  0.7453
 2221TIP3   OH228297   6.477   0.491   6.379  0.3597 -0.2254  0.2254
 2221TIP3    H128298   6.556   0.483   6.326  0.2712 -0.0452  0.0641
 2221TIP3    H228299   6.477   0.414   6.435  0.0105 -0.8495 -0.6228
 2222TIP3   OH228300   5.082   3.219   6.481 -0.4189 -0.3031  0.2506
 2222TIP3    H128301   5.113   3.300   6.522 -0.0291  0.6840 -1.8626
 2222TIP3    H228302   5.119   3.149   6.535 -0.1038  0.8970  1.6659
 2223TIP3   OH228303   1.918   3.532   6.409  0.6382  0.3646 -0.2984
 2223TIP3    H128304   1.902   3.488   6.492 -0.8105 -0.1541 -0.8174
 2223TIP3    H228305   1.982   3.600   6.429  0.5541  0.0268  1.1638
 2224TIP3   OH228306   3.851   2.159   7.629  0.0221 -0.4055 -0.4806
 2224TIP3    H128307   3.776   2.213   7.604  0.9675  0.2318 -2.0559
 2224TIP3    H228308   3.923   2.221   7.641  0.3784 -1.0256  0.8082
 2225TIP3   OH228309   3.264   2.486   7.663 -0.2259  0.5748 -0.0361
 2225TIP3    H128310   3.350   2.499   7.703  0.7763 -2.2190 -1.0227
 2225TIP3    H228311   3.280   2.490   7.569 -0.3923 -3.0845 -0.3798
 2226TIP3   OH228312   3.820   3.547   0.668  0.0209  0.2993 -0.0105
 2226TIP3    H128313   3.853   3.458   0.683  0.7175  0.8190  1.7548
 2226TIP3    H228314   3.891   3.591   0.622 -0.0214  0.1610 -0.2107
 2227TIP3   OH228315   2.479   2.697   0.849 -0.4055 -0.3206 -0.3055
 2227TIP3    H128316   2.535   2.653   0.913 -2.7995 -0.9927  1.4860
 2227TIP3    H228317   2.416   2.631   0.822 -0.3659  0.3826 -2.3206
 2228TIP3   OH228318   5.850   6.528   0.520  0.1289  0.1353 -0.4421
 2228TIP3    H128319   5.789   6.597   0.547  0.6726  0.5254 -0.1740
 2228TIP3    H228320   5.850   6.532   0.424 -1.1180 -0.6378 -0.4924
 2229TIP3   OH228321   0.592   5.076   7.773 -0.1281  0.0379  0.0419
 2229TIP3    H128322   0.656   5.144   7.748 -0.5012 -0.1356 -1.4646
 2229TIP3    H228323   0.642   4.995   7.771 -0.4886 -0.1834 -1.7600
 2230TIP3   OH228324   0.057   6.514   0.048 -0.3443 -0.0417 -0.1149
 2230TIP3    H128325   0.026   6.525   0.138 -0.7079  1.2985 -0.3785
 2230TIP3    H228326   0.131   6.455   0.055 -0.4770 -0.0918  1.0491
 2231TIP3   OH228327   3.817   4.340   7.827  0.7626  0.3422  0.0297
 2231TIP3    H128328   3.743   4.298   7.871  0.6029  0.1185 -0.4321
 2231TIP3    H228329   3.891   4.327   7.886  0.9773 -1.6225 -0.5925
 2232TIP3   OH228330   5.289   6.223   1.580  0.6869  0.1916 -0.3636
 2232TIP3    H128331   5.353   6.276   1.533  0.3951  3.0984  2.2301
 2232TIP3    H228332   5.337   6.145   1.607  2.4422  1.1607 -0.5566
 2233TIP3   OH228333   6.275   1.044   6.740  0.2300  0.4725  0.3203
 2233TIP3    H128334   6.287   1.041   6.645  2.2775 -1.0295  0.5321
 2233TIP3    H228335   6.364   1.057   6.774 -0.3944  0.4339  2.0334
 2234TIP3   OH228336   4.379   3.762   7.027 -0.2081 -0.1338  0.3042
 2234TIP3    H128337   4.292   3.783   6.995 -0.9879  0.8768  2.8358
 2234TIP3    H228338   4.417   3.706   6.960 -2.0935  0.8894 -1.7271
 2235TIP3   OH228339   3.157   2.552   7.999 -0.3915  0.1191 -1.3526
 2235TIP3    H128340   3.076   2.569   8.046 -0.3360  1.4746 -1.6991
 2235TIP3    H228341   3.170   2.457   8.006 -1.3780  0.0408 -0.3000
 2236TIP3   OH228342   6.919   2.469   0.949  0.1017  0.6417 -0.0956
 2236TIP3    H128343   6.935   2.386   0.994  2.7889  1.1812  0.1340
 2236TIP3    H228344   6.891   2.529   1.017  2.1641  0.9225  0.5781
 2237TIP3   OH228345   0.126   5.827   6.625 -0.0886  0.2674  0.5815
 2237TIP3    H128346   0.180   5.902   6.647 -1.8217  2.0419 -0.8695
 2237TIP3    H228347   0.053   5.830   6.687 -0.5175  0.2191  0.0916
 2238TIP3   OH228348   2.169   3.095   6.918  0.1518 -0.3248 -0.0658
 2238TIP3    H128349   2.076   3.119   6.915  0.3147  0.2517 -0.5784
 2238TIP3    H228350   2.194   3.084   6.827  0.7131  0.0029  0.0473
 2239TIP3   OH228351   4.048   4.109   0.973 -0.1442 -0.2157 -0.3637
 2239TIP3    H128352   4.056   4.074   0.885  1.2233  1.4785 -0.9729
 2239TIP3    H228353   3.968   4.162   0.971  0.8817  1.4049 -1.2435
 2240TIP3   OH228354   6.233   2.528   0.863  0.0017 -0.4256  0.4197
 2240TIP3    H128355   6.167   2.462   0.843 -1.4627  1.3422 -1.0286
 2240TIP3    H228356   6.315   2.491   0.831 -0.7686 -1.5408 -0.3277
 2241TIP3   OH228357   2.434   6.348   1.185 -0.2876 -0.5540 -0.0876
 2241TIP3    H128358   2.509   6.330   1.129 -0.6262  0.1696 -0.7892
 2241TIP3    H228359   2.363   6.370   1.125 -0.9276 -0.7259  0.5853
 2242TIP3   OH228360   4.375   0.392   6.990  0.0506  0.5709  0.1384
 2242TIP3    H128361   4.314   0.462   6.966  0.2691  0.8802  0.4803
 2242TIP3    H228362   4.398   0.351   6.907  0.5166  1.3938 -0.1444
 2243TIP3   OH228363   1.279   3.369   2.240 -0.9462  0.4002 -0.7592
 2243TIP3    H128364   1.305   3.279   2.220  2.5365  0.4677  2.2872
 2243TIP3    H228365   1.301   3.418   2.161 -1.3368 -1.1696 -1.8841
 2244TIP3   OH228366   4.717   1.342   6.871  0.1075  0.4747  0.0121
 2244TIP3    H128367   4.691   1.394   6.947  0.5443 -2.3236  2.2111
 2244TIP3    H228368   4.635   1.305   6.838 -0.2519  2.6309 -1.7714
 2245TIP3   OH228369   2.421   4.251   0.085 -0.4564 -0.0169 -0.0892
 2245TIP3    H128370   2.475   4.172   0.097  1.9328  1.5128 -0.0422
 2245TIP3    H228371   2.382   4.241  -0.002  2.2224  0.0086 -1.3979
 2246TIP3   OH228372   3.139   1.459   6.822  0.0457  1.3606  0.2432
 2246TIP3    H128373   3.232   1.442   6.807  0.0507  0.1164  1.4611
 2246TIP3    H228374   3.098   1.445   6.737  0.8141  0.5885 -0.0101
 2247TIP3   OH228375   4.564   3.248   0.301  0.4510  0.4865 -0.2747
 2247TIP3    H128376   4.520   3.216   0.223  1.1627  0.7183 -0.7824
 2247TIP3    H228377   4.512   3.323   0.330 -1.1093 -0.9396  0.8021
 2248TIP3   OH228378   5.445   6.238   6.441  0.1640 -0.2226 -0.0105
 2248TIP3    H128379   5.489   6.268   6.362 -1.6339  0.7881 -0.6944
 2248TIP3    H228380   5.479   6.293   6.511 -0.4432  0.9770 -0.6372
 2249TIP3   OH228381   5.690   5.402   0.199 -0.2265  0.2086 -0.8005
 2249TIP3    H128382   5.702   5.307   0.203 -1.5851 -0.0012 -1.2135
 2249TIP3    H228383   5.667   5.419   0.108  0.0078  0.9459 -0.7290
 2250TIP3   OH228384   4.442   3.915   6.381 -0.0384  0.0275  0.5053
 2250TIP3    H128385   4.523   3.907   6.331 -0.0958  0.0393  0.4084
 2250TIP3    H228386   4.387   3.843   6.350  0.8572 -1.5465  2.3727
 2251TIP3   OH228387   4.881   3.928   0.166 -0.7671 -0.4262 -0.9419
 2251TIP3    H128388   4.959   3.960   0.119 -0.0847 -0.8085 -0.1050
 2251TIP3    H228389   4.861   3.844   0.123 -1.6846  0.3881 -2.1832
 2252TIP3   OH228390   5.039   3.537   5.974  0.3360 -0.5413  0.4157
 2252TIP3    H128391   5.008   3.592   5.902 -1.9195 -0.9363  1.0005
 2252TIP3    H228392   5.133   3.530   5.960 -0.0472 -0.8883 -2.6994
 2253TIP3   OH228393   2.529   3.582   7.801  0.2906  0.3841  0.6983
 2253TIP3    H128394   2.587   3.656   7.812  1.9711 -0.6357 -0.8650
 2253TIP3    H228395   2.459   3.614   7.744  0.7969  0.8767  0.3420
 2254TIP3   OH228396   5.626   4.303   6.593 -0.3709  0.2846  0.3262
 2254TIP3    H128397   5.667   4.222   6.622 -1.7471 -0.2673  0.8038
 2254TIP3    H228398   5.534   4.294   6.619 -1.0207  1.0619 -1.5298
 2255TIP3   OH228399   0.239   3.483   1.690  0.1088  0.3211  0.6991
 2255TIP3    H128400   0.331   3.475   1.716  0.1564  1.4350  0.9485
 2255TIP3    H228401   0.194   3.504   1.772 -0.2231  0.6948  0.4212
 2256TIP3   OH228402   4.214   1.072   6.548  0.0447 -0.0311  0.1791
 2256TIP3    H128403   4.303   1.109   6.549  0.0152  0.0660  1.6813
 2256TIP3    H228404   4.228   0.978   6.541  0.1824  0.0901 -1.5616
 2257TIP3   OH228405   4.955   5.235   0.706 -0.0531  0.4021  0.4222
 2257TIP3    H128406   4.901   5.255   0.629 -0.2195  1.7379  0.8577
 2257TIP3    H228407   4.940   5.142   0.722 -0.5976  0.2727 -0.7150
 2258TIP3   OH228408   5.489   5.430   5.710  0.2194 -0.0398 -0.1614
 2258TIP3    H128409   5.543   5.426   5.631 -0.2099 -1.9098 -0.4227
 2258TIP3    H228410   5.402   5.404   5.680 -0.7824  2.4965  0.3304
 2259TIP3   OH228411   2.148   4.293   1.153 -0.5717  0.4138  0.8457
 2259TIP3    H128412   2.146   4.210   1.106  1.1542 -0.1937  1.7813
 2259TIP3    H228413   2.100   4.277   1.234 -2.0079  0.9629  0.1551
 2260TIP3   OH228414   4.873   3.298   7.363  0.2682 -0.1215  0.5398
 2260TIP3    H128415   4.902   3.306   7.454 -0.8361  2.0315  0.7712
 2260TIP3    H228416   4.809   3.227   7.365  0.3264 -0.1651  1.4337
 2261TIP3   OH228417   3.984   1.144   6.394  0.7176 -0.0766 -0.3825
 2261TIP3    H128418   4.053   1.110   6.451  0.3617 -1.6320 -0.8364
 2261TIP3    H228419   4.023   1.221   6.352  0.7509  1.5872  2.4535
 2262TIP3   OH228420   0.660   1.953   1.496  0.5125 -0.0541  0.0926
 2262TIP3    H128421   0.675   1.897   1.572 -1.7156  0.9924  1.4012
 2262TIP3    H228422   0.598   1.904   1.442  2.2705 -0.9025 -1.2623
 2263TIP3   OH228423   1.051   4.761   6.932  0.0766  0.2549  0.0317
 2263TIP3    H128424   1.110   4.795   6.998  0.7693 -0.9663  0.0834
 2263TIP3    H228425   0.989   4.706   6.980  0.3232 -0.2994 -0.2623
 2264TIP3   OH228426   0.974   2.093   6.727  0.0044  0.4125  0.5504
 2264TIP3    H128427   0.995   2.170   6.779  0.6922 -0.3572  1.4393
 2264TIP3    H228428   1.039   2.091   6.658  0.4808  0.1889  1.0024
 2265TIP3   OH228429   3.361   3.056   1.930 -0.2028 -0.6469 -0.2955
 2265TIP3    H128430   3.421   2.986   1.903 -0.6613 -0.4321 -1.9376
 2265TIP3    H228431   3.279   3.011   1.951  0.2725 -0.8603  1.2679
 2266TIP3   OH228432   4.890   6.310   7.546  0.1831 -0.0863 -0.6030
 2266TIP3    H128433   4.910   6.300   7.639 -0.5138  0.8128 -0.3444
 2266TIP3    H228434   4.845   6.228   7.523 -1.1547  0.3603  0.2837
 2267TIP3   OH228435   7.051   1.783   0.241  0.8111 -0.2001 -0.1758
 2267TIP3    H128436   7.040   1.747   0.153 -0.7039 -0.0265 -0.0867
 2267TIP3    H228437   7.140   1.818   0.242  0.0390  2.1193 -2.5219
 2268TIP3   OH228438   2.845   6.528   1.092 -0.6771  0.2537 -0.0394
 2268TIP3    H128439   2.929   6.483   1.081 -0.2943  0.8817  0.2399
 2268TIP3    H228440   2.780   6.458   1.099 -0.0457 -0.2609  0.7918
 2269TIP3   OH228441   0.336   1.926   7.342  0.1562  0.1509  0.1862
 2269TIP3    H128442   0.253   1.954   7.302  0.1356  0.7398  0.6263
 2269TIP3    H228443   0.351   1.838   7.307 -0.8753 -0.1360  0.4305
 2270TIP3   OH228444   3.560   4.949   1.698  0.1706  0.4294  0.6641
 2270TIP3    H128445   3.497   4.985   1.760 -0.6914  0.9899 -0.4909
 2270TIP3    H228446   3.599   4.875   1.744 -1.2822  0.1117  1.4524
 2271TIP3   OH228447   2.279   6.459   1.609  0.6974  0.0932  0.1247
 2271TIP3    H128448   2.266   6.369   1.638  1.3258 -0.6555 -1.7775
 2271TIP3    H228449   2.373   6.473   1.616  0.4874  1.0385  1.5039
 2272TIP3   OH228450   5.964   4.477   0.702 -0.2386  0.0131 -0.3359
 2272TIP3    H128451   5.930   4.536   0.769 -0.0803  0.8370 -0.9672
 2272TIP3    H228452   5.923   4.392   0.722  1.1441 -0.2076  1.8273
 2273TIP3   OH228453   3.132   0.239   0.561  0.0113  0.6002  0.1597
 2273TIP3    H128454   3.097   0.324   0.589 -1.1128  0.8303 -1.7952
 2273TIP3    H228455   3.054   0.184   0.551  0.2506  0.6839 -2.8660
 2274TIP3   OH228456   6.467   3.174   7.023 -0.3842  0.0502 -0.3623
 2274TIP3    H128457   6.418   3.158   6.942 -0.0521 -1.3705 -0.3157
 2274TIP3    H228458   6.559   3.163   6.999 -0.2951 -0.6619  0.2432
 2275TIP3   OH228459   3.240   5.897   1.484  0.3330  0.4340 -0.4937
 2275TIP3    H128460   3.329   5.930   1.470 -0.0555  1.6045 -0.3373
 2275TIP3    H228461   3.185   5.975   1.482 -0.6141 -0.1951  0.1102
 2276TIP3   OH228462   2.490   4.737   7.157 -0.7968  0.0917 -0.2254
 2276TIP3    H128463   2.423   4.771   7.097 -1.0969  0.7042  0.4443
 2276TIP3    H228464   2.515   4.653   7.119  0.5204  1.3372 -2.3688
 2277TIP3   OH228465   6.482   4.520   6.574 -0.6352  0.3716 -0.1796
 2277TIP3    H128466   6.416   4.477   6.629 -0.1329 -1.2236 -0.7528
 2277TIP3    H228467   6.562   4.470   6.590 -0.1892  0.6420 -1.4440
 2278TIP3   OH228468   0.927   1.870   7.331  0.3655  0.0658  0.6256
 2278TIP3    H128469   0.884   1.789   7.357  0.3534 -0.1617 -0.0614
 2278TIP3    H228470   0.872   1.904   7.260  1.7962 -0.7146 -0.9168
 2279TIP3   OH228471   1.218   4.267   6.814 -0.0673  0.0748 -0.3634
 2279TIP3    H128472   1.266   4.185   6.800 -1.6697 -0.5563 -2.7446
 2279TIP3    H228473   1.205   4.303   6.726 -1.2667  1.7815  0.4550
 2280TIP3   OH228474   2.352   1.477   6.567  0.1419  0.0738  0.0794
 2280TIP3    H128475   2.287   1.448   6.504 -2.3716  0.2606  2.4056
 2280TIP3    H228476   2.374   1.566   6.540  1.6318 -0.9039 -2.3007
 2281TIP3   OH228477   5.574   3.115   1.055 -0.1316 -0.5996 -0.2869
 2281TIP3    H128478   5.660   3.156   1.065 -0.3120 -0.5131  1.0925
 2281TIP3    H228479   5.512   3.183   1.079 -0.4020 -1.9780  3.7284
 2282TIP3   OH228480   5.029   3.111   6.837  0.5011  0.3732  0.2577
 2282TIP3    H128481   5.108   3.164   6.845  0.3295  0.6710  0.0105
 2282TIP3    H228482   5.038   3.044   6.905  0.5697  0.9218  0.7955
 2283TIP3   OH228483   4.275   3.369   1.570  0.5377 -0.1505  0.2095
 2283TIP3    H128484   4.344   3.350   1.507 -0.0804  1.1603 -0.9264
 2283TIP3    H228485   4.304   3.327   1.651  0.2922 -3.9086 -1.4317
 2284TIP3   OH228486   2.801   3.336   0.151  0.1907 -0.7799  0.2218
 2284TIP3    H128487   2.761   3.385   0.222 -0.6044 -0.6206 -0.3261
 2284TIP3    H228488   2.777   3.245   0.168 -1.1531 -0.5991 -0.5543
 2285TIP3   OH228489   4.189   5.417   0.350 -0.1083  0.4332 -0.1290
 2285TIP3    H128490   4.177   5.344   0.289 -1.0773  1.7787 -1.6299
 2285TIP3    H228491   4.122   5.403   0.418  1.5292 -1.5352  1.1904
 2286TIP3   OH228492   5.263   5.522   5.366 -0.3314  0.0767  0.3839
 2286TIP3    H128493   5.285   5.438   5.327  0.0649 -0.0248  0.8114
 2286TIP3    H228494   5.216   5.500   5.447 -0.5544  0.2718  0.3103
 2287TIP3   OH228495   4.941   5.343   1.191 -0.3295 -0.8935  0.1119
 2287TIP3    H128496   4.857   5.390   1.193 -0.3965 -1.0124  0.1078
 2287TIP3    H228497   4.981   5.362   1.276  0.3045  0.3670 -0.4438
 2288TIP3   OH228498   6.415   1.208   7.303  0.5726  0.0209 -0.1301
 2288TIP3    H128499   6.398   1.270   7.232  1.4106  0.8587  0.3884
 2288TIP3    H228500   6.336   1.211   7.357  0.8775  1.1346  0.2603
 2289TIP3   OH228501   1.331   6.857   8.058  0.4973 -0.1241  0.3598
 2289TIP3    H128502   1.329   6.763   8.041 -0.2233  0.2223 -1.8236
 2289TIP3    H228503   1.422   6.883   8.045  0.1584 -0.0370 -2.6109
 2290TIP3   OH228504   1.890   3.486   6.669  0.6158 -0.4456  0.5010
 2290TIP3    H128505   1.957   3.536   6.715  1.0313 -0.2635 -0.2788
 2290TIP3    H228506   1.808   3.507   6.715  0.9101  0.2855  0.7039
 2291TIP3   OH228507   4.765   4.591   1.968  0.1231 -0.1104  0.1458
 2291TIP3    H128508   4.821   4.531   2.018  0.5472  0.9935  1.0364
 2291TIP3    H228509   4.801   4.678   1.985 -1.3988  0.5551  0.1345
 2292TIP3   OH228510   4.615   5.713   6.280 -0.3171 -0.1791 -0.2421
 2292TIP3    H128511   4.629   5.665   6.198  1.9373 -0.4486  0.2511
 2292TIP3    H228512   4.641   5.803   6.260 -0.5571 -0.0599 -0.0310
 2293TIP3   OH228513   0.422   0.236   7.157  0.4536 -0.0905 -0.2250
 2293TIP3    H128514   0.474   0.276   7.087  1.3460  2.0427  1.5184
 2293TIP3    H228515   0.337   0.280   7.152 -0.3580 -1.6929 -1.4224
 2294TIP3   OH228516   6.870   4.201   7.304 -0.4273  0.4477  0.0434
 2294TIP3    H128517   6.812   4.265   7.262 -0.1464  0.4383 -0.3555
 2294TIP3    H228518   6.843   4.202   7.396 -1.4139  0.0628 -0.2320
 2295TIP3   OH228519   3.419   2.255   7.753 -0.8450  0.1955  0.4264
 2295TIP3    H128520   3.466   2.327   7.709  1.0273  0.1300  2.1798
 2295TIP3    H228521   3.444   2.264   7.845 -1.2599 -2.1991  0.8142
 2296TIP3   OH228522   5.939   0.529   0.743  0.3256 -0.0723  0.2582
 2296TIP3    H128523   5.881   0.473   0.796  0.3483  0.0866  0.4526
 2296TIP3    H228524   6.004   0.469   0.708  0.0442 -0.2546  0.0353
 2297TIP3   OH228525   6.473   5.393   7.759 -0.6133 -0.5874 -1.0713
 2297TIP3    H128526   6.490   5.300   7.777 -1.9057 -0.5674  0.4356
 2297TIP3    H228527   6.512   5.439   7.833  0.2350  0.1231 -1.9323
 2298TIP3   OH228528   4.432   2.704   6.414  0.1687 -0.2501  0.6207
 2298TIP3    H128529   4.356   2.646   6.409 -0.1602  0.2097  0.2440
 2298TIP3    H228530   4.482   2.684   6.334 -1.6376  2.3050 -1.2884
 2299TIP3   OH228531   4.629   5.103   1.201 -0.1043 -0.0307 -0.1086
 2299TIP3    H128532   4.612   5.073   1.290  1.7879 -1.1969 -0.0948
 2299TIP3    H228533   4.620   5.199   1.205 -1.3117 -0.1627  0.9969
 2300TIP3   OH228534   6.226   1.769   0.977  0.1721  0.7466 -0.4985
 2300TIP3    H128535   6.303   1.714   0.989  1.0665  2.2307  1.0595
 2300TIP3    H228536   6.152   1.710   0.991  1.0713 -0.3449 -0.2549
 2301TIP3   OH228537   4.260   6.046   6.810 -0.0871  0.0174 -0.3764
 2301TIP3    H128538   4.273   6.059   6.716  0.2760 -0.5558 -0.4102
 2301TIP3    H228539   4.348   6.030   6.844 -0.4423 -2.1940 -0.3312
 2302TIP3   OH228540   0.719   5.515   6.316  0.1612  0.2669  0.2537
 2302TIP3    H128541   0.639   5.483   6.358  0.9830  0.0027  1.7136
 2302TIP3    H228542   0.703   5.607   6.299 -0.9162 -0.0751 -0.6602
 2303TIP3   OH228543   6.073   0.795   0.373  0.3061  0.0484  0.0120
 2303TIP3    H128544   6.052   0.791   0.466  1.2244  2.2412  0.3809
 2303TIP3    H228545   6.156   0.747   0.365 -0.0074 -0.5284  0.2488
 2304TIP3   OH228546   2.121   4.710   7.385  0.6793 -0.0812 -0.9245
 2304TIP3    H128547   2.110   4.713   7.290  1.0492  5.0256 -1.1205
 2304TIP3    H228548   2.033   4.726   7.420  0.8860  0.2000 -0.5247
 2305TIP3   OH228549   1.087   6.796   7.930 -0.0052 -0.2310  0.2693
 2305TIP3    H128550   1.124   6.803   8.019 -0.0813 -0.8460  0.3511
 2305TIP3    H228551   1.021   6.728   7.937 -1.5417  1.2049  0.2439
 2306TIP3   OH228552   4.107   1.798   1.467 -0.8702 -0.3276  0.3350
 2306TIP3    H128553   4.141   1.868   1.411 -1.6325 -0.2096  0.0221
 2306TIP3    H228554   4.164   1.801   1.544  1.5592 -1.8497 -1.2688
 2307TIP3   OH228555   3.104   2.862   7.036  0.0693  0.4038 -0.5955
 2307TIP3    H128556   3.080   2.853   6.943  0.4750  0.7318 -0.7374
 2307TIP3    H228557   3.101   2.956   7.052  1.5993  0.5083 -0.7316
 2308TIP3   OH228558   1.504   1.637   1.558 -0.0217  0.3080 -0.0808
 2308TIP3    H128559   1.445   1.577   1.603  1.0353  0.0549  1.0224
 2308TIP3    H228560   1.588   1.591   1.555  0.1927  0.7410 -1.4382
 2309TIP3   OH228561   4.762   5.234   6.889 -0.0272 -0.3088  0.0900
 2309TIP3    H128562   4.694   5.301   6.892 -0.9964 -1.2680 -0.0067
 2309TIP3    H228563   4.758   5.200   6.799  1.4941  0.5208 -0.3424
 2310TIP3   OH228564   5.462   0.739   7.996  0.4233 -0.2988 -0.2594
 2310TIP3    H128565   5.437   0.799   8.066 -0.5393  1.1806 -1.8277
 2310TIP3    H228566   5.557   0.732   8.004  0.7248  2.3997 -0.7552
 2311TIP3   OH228567   3.428   5.909   8.040  0.2999  0.5422  0.0865
 2311TIP3    H128568   3.473   5.840   7.992  1.4027  0.6926  0.8577
 2311TIP3    H228569   3.343   5.872   8.061  0.7598 -0.4753  0.2301
 2312TIP3   OH228570   3.592   0.512   6.505  0.3462 -0.1138  0.1457
 2312TIP3    H128571   3.642   0.552   6.576  0.2404 -0.0439  0.1799
 2312TIP3    H228572   3.506   0.495   6.542 -0.5584  2.2512 -0.6960
 2313TIP3   OH228573   2.168   2.660   1.502  0.2123 -0.5299 -0.5963
 2313TIP3    H128574   2.222   2.674   1.580 -0.4656 -0.6134 -0.1003
 2313TIP3    H228575   2.226   2.679   1.429  0.4430  1.0750 -0.0430
 2314TIP3   OH228576   4.798   6.725   6.669  0.3993 -0.0052 -0.0296
 2314TIP3    H128577   4.778   6.789   6.737  0.4626 -0.8725  0.8173
 2314TIP3    H228578   4.818   6.779   6.591  2.5024  1.1262  1.1791
 2315TIP3   OH228579   3.131   0.821   0.759 -0.9466 -0.2913 -0.3643
 2315TIP3    H128580   3.090   0.750   0.808  0.8735 -0.7339  0.6063
 2315TIP3    H228581   3.206   0.780   0.715 -0.6699  0.7628 -0.9125
 2316TIP3   OH228582   0.822   4.785   6.361 -0.1924  0.3814  0.4108
 2316TIP3    H128583   0.897   4.844   6.370 -0.3095  0.5274  0.4293
 2316TIP3    H228584   0.760   4.814   6.428  0.3551 -0.6810  1.4009
 2317TIP3   OH228585   5.554   5.568   6.699  0.6277  0.0501 -0.3165
 2317TIP3    H128586   5.562   5.611   6.784  0.9167  0.4872 -0.5643
 2317TIP3    H228587   5.588   5.479   6.715 -2.0107 -0.8671  0.7461
 2318TIP3   OH228588   5.556   5.748   0.416 -0.1023  0.1989 -0.0996
 2318TIP3    H128589   5.607   5.823   0.444  0.5235  0.0232 -0.7230
 2318TIP3    H228590   5.561   5.686   0.489  0.8339  0.0668 -0.2588
 2319TIP3   OH228591   7.027   5.703   7.528 -0.4383 -0.2138 -0.4784
 2319TIP3    H128592   7.001   5.643   7.598  3.4999 -0.3252  1.1541
 2319TIP3    H228593   7.052   5.645   7.456 -1.2022 -0.2591 -0.7154
 2320TIP3   OH228594   0.910   3.457   6.965 -0.1404 -0.1490  0.1593
 2320TIP3    H128595   0.828   3.420   6.931  0.0053 -0.6260  0.3170
 2320TIP3    H228596   0.891   3.550   6.977 -0.5127 -0.1685 -0.2486
 2321TIP3   OH228597   1.979   6.598   6.640  0.0271  0.0619  0.4315
 2321TIP3    H128598   1.991   6.524   6.581  0.4875 -0.2566  0.9193
 2321TIP3    H228599   1.893   6.634   6.616 -0.1678 -0.5830  0.1448
 2322TIP3   OH228600   5.099   6.366   0.246  0.0541 -0.3195  0.2514
 2322TIP3    H128601   5.108   6.461   0.238  2.2633 -0.4161  0.9375
 2322TIP3    H228602   5.172   6.340   0.302 -1.0244 -2.3403  0.7910
 2323TIP3   OH228603   6.552   4.997   1.187  0.4429  0.3491 -0.6339
 2323TIP3    H128604   6.619   4.976   1.121  0.2264  0.5301 -0.9125
 2323TIP3    H228605   6.528   5.087   1.168 -1.1340 -0.2467 -1.6388
 2324TIP3   OH228606   0.349   6.402   6.000  0.3258 -0.3844 -0.1313
 2324TIP3    H128607   0.297   6.366   6.072  0.3121  1.5119  0.8482
 2324TIP3    H228608   0.286   6.454   5.950  0.8440  0.2473 -0.1310
 2325TIP3   OH228609   6.120   5.993   1.018 -0.0995 -0.0635  0.4809
 2325TIP3    H128610   6.162   5.975   1.101  0.9840  0.2401  0.0136
 2325TIP3    H228611   6.097   6.086   1.022 -2.4782 -0.6304  1.4787
 2326TIP3   OH228612   2.453   0.394   1.781  0.5708 -0.9668  0.0863
 2326TIP3    H128613   2.363   0.397   1.813  0.6185 -0.8508  0.2087
 2326TIP3    H228614   2.483   0.305   1.802  0.3066 -1.1832 -0.4423
 2327TIP3   OH228615   5.291   6.889   7.414  0.1245  0.3693 -0.4892
 2327TIP3    H128616   5.254   6.977   7.423  0.0197  0.3145 -0.3887
 2327TIP3    H228617   5.225   6.831   7.451  0.1125  0.2313 -0.7225
 2328TIP3   OH228618   5.103   5.500   6.994 -0.0145  0.1818 -0.1666
 2328TIP3    H128619   5.157   5.580   6.994  1.8161 -0.8824 -2.8448
 2328TIP3    H228620   5.167   5.429   6.996 -1.4342 -1.1821 -1.2762
 2329TIP3   OH228621   6.543   0.454   1.349 -0.0181  0.0118  0.1003
 2329TIP3    H128622   6.587   0.534   1.379 -0.4978  0.5967 -0.7122
 2329TIP3    H228623   6.459   0.485   1.316 -0.0325 -0.7820 -0.6144
 2330TIP3   OH228624   5.832   3.177   1.034  0.3180 -0.4506  0.2664
 2330TIP3    H128625   5.901   3.215   1.088  0.2737  0.1700 -0.0978
 2330TIP3    H228626   5.854   3.205   0.945 -2.3284  2.9564  0.4436
 2331TIP3   OH228627   4.811   2.832   6.955 -0.2767 -0.2799  0.0773
 2331TIP3    H128628   4.803   2.823   6.860  1.5223 -0.1234 -0.1200
 2331TIP3    H228629   4.814   2.742   6.987 -0.0274 -0.3368 -0.1016
 2332TIP3   OH228630   0.806   4.539   6.283  0.6392  0.0534  0.3178
 2332TIP3    H128631   0.889   4.520   6.237 -0.0154  0.0343 -0.9009
 2332TIP3    H228632   0.799   4.634   6.278  0.4555  0.0323  0.1666
 2333TIP3   OH228633   0.146   2.051   0.461 -0.6018 -0.3290 -0.0730
 2333TIP3    H128634   0.112   2.105   0.390  0.4190  0.9370  0.3340
 2333TIP3    H228635   0.234   2.025   0.431  0.3281  1.2183  1.1531
 2334TIP3   OH228636   5.471   4.987   1.686  0.1019 -0.1848 -0.2493
 2334TIP3    H128637   5.559   5.018   1.707  0.0623 -1.4026  2.0490
 2334TIP3    H228638   5.417   5.066   1.688  0.4916  0.0873  2.4497
 2335TIP3   OH228639   1.044   2.937   5.967 -0.5115  0.9674 -0.6635
 2335TIP3    H128640   1.063   2.882   6.043 -2.0965  0.2947 -0.7116
 2335TIP3    H228641   1.062   3.026   5.996  0.3744  0.5803  0.0013
 2336TIP3   OH228642   0.406   0.345   6.800 -0.2078  0.1960 -0.8062
 2336TIP3    H128643   0.389   0.252   6.818  0.6961  0.0534 -0.6049
 2336TIP3    H228644   0.420   0.349   6.706  2.9597 -0.4819 -0.4765
 2337TIP3   OH228645   3.464   6.182   1.197 -0.5154 -0.3142  0.0001
 2337TIP3    H128646   3.373   6.189   1.226 -0.7153 -0.3190 -0.6135
 2337TIP3    H228647   3.500   6.111   1.250 -1.2073 -1.1122 -0.5673
 2338TIP3   OH228648   2.076   2.758   7.643 -0.0692 -0.2259  0.1432
 2338TIP3    H128649   2.070   2.848   7.611  0.0935 -0.9350 -1.9960
 2338TIP3    H228650   2.121   2.766   7.728  0.4404  1.6374 -0.2629
 2339TIP3   OH228651   4.451   1.312   8.103  0.9614 -0.0721  0.3559
 2339TIP3    H128652   4.359   1.292   8.122  1.1231  0.1360  1.4089
 2339TIP3    H228653   4.494   1.227   8.100  0.3938 -0.3724 -2.2898
 2340TIP3   OH228654   1.324   4.112   6.291 -0.2190 -0.1718 -0.6373
 2340TIP3    H128655   1.229   4.114   6.279 -0.5691  0.2981  1.8137
 2340TIP3    H228656   1.354   4.198   6.263 -0.4214 -0.4502 -1.7759
 2341TIP3   OH228657   0.423   6.667   0.996 -0.0829  0.6130 -0.7837
 2341TIP3    H128658   0.439   6.736   0.931  1.7693 -2.0318 -3.3976
 2341TIP3    H228659   0.509   6.652   1.035 -0.6312  0.2965  0.3108
 2342TIP3   OH228660   6.016   2.592   6.877  0.3017 -0.9286  0.8936
 2342TIP3    H128661   5.972   2.509   6.856  0.3814 -0.8797  0.5356
 2342TIP3    H228662   5.991   2.651   6.807  1.2269 -1.0025  0.4873
 2343TIP3   OH228663   1.531   6.141   8.024  0.2148 -0.3106 -0.1279
 2343TIP3    H128664   1.530   6.171   7.933  3.0589 -0.5580 -0.3243
 2343TIP3    H228665   1.533   6.046   8.018 -3.0889 -0.5524  0.3835
 2344TIP3   OH228666   2.232   2.472   1.083  0.8727  0.5247 -0.0570
 2344TIP3    H128667   2.159   2.530   1.104  0.9643  0.3079  0.9203
 2344TIP3    H228668   2.256   2.494   0.993 -0.3587  0.6318 -0.3761
 2345TIP3   OH228669   3.597   4.307   7.051  0.1688  0.8917 -0.8569
 2345TIP3    H128670   3.681   4.291   7.007 -0.1422 -0.1573 -1.1048
 2345TIP3    H228671   3.548   4.361   6.990  0.8875  2.0342 -0.4428
 2346TIP3   OH228672   5.077   4.086   1.147  0.5262  0.4341 -0.1079
 2346TIP3    H128673   5.036   4.036   1.217 -0.8481  0.9716 -0.5060
 2346TIP3    H228674   5.024   4.165   1.139  0.2762  0.1152 -2.1460
 2347TIP3   OH228675   4.102   5.125   6.617  0.3477  0.1130 -0.3746
 2347TIP3    H128676   4.132   5.173   6.694 -0.7410 -0.5007  0.4675
 2347TIP3    H228677   4.094   5.192   6.549  1.1619  0.6980  0.0895
 2348TIP3   OH228678   0.049   5.680   5.623  0.0370 -0.3161 -0.2655
 2348TIP3    H128679  -0.040   5.716   5.624 -0.7732 -2.0620 -2.1108
 2348TIP3    H228680   0.069   5.662   5.714 -2.1674 -1.3408  0.0724
 2349TIP3   OH228681   5.297   1.169   0.526 -0.5111 -0.0195  0.3407
 2349TIP3    H128682   5.320   1.248   0.476 -0.6836 -0.8452 -1.1156
 2349TIP3    H228683   5.360   1.167   0.598  0.6140  0.5511 -0.5847
 2350TIP3   OH228684   4.463   0.304   5.733 -0.5034  0.2632 -0.4721
 2350TIP3    H128685   4.540   0.351   5.700  0.0824  0.7367  1.4200
 2350TIP3    H228686   4.499   0.227   5.777 -1.1573  0.0801 -0.2420
 2351TIP3   OH228687   4.298   0.168   0.300 -0.2030 -0.3362  0.0521
 2351TIP3    H128688   4.377   0.178   0.354  0.0414  0.5700 -0.4504
 2351TIP3    H228689   4.229   0.145   0.362 -0.2274  2.0439  1.0064
 2352TIP3   OH228690   5.554   0.798   6.892  0.2932 -0.0789 -0.1976
 2352TIP3    H128691   5.625   0.767   6.836  0.9300  0.5174  0.2710
 2352TIP3    H228692   5.483   0.819   6.831  1.1684  1.0871 -0.8413
 2353TIP3   OH228693   2.391   1.343   1.690  0.3813 -0.5808 -0.1941
 2353TIP3    H128694   2.408   1.349   1.784 -2.5453  0.1934  0.3708
 2353TIP3    H228695   2.469   1.299   1.655  2.4096  0.7415  2.2730
 2354TIP3   OH228696   3.532   4.450   7.975 -0.6228  1.0546 -0.0236
 2354TIP3    H128697   3.504   4.361   7.951  0.9321  0.9369 -1.5674
 2354TIP3    H228698   3.489   4.506   7.910  0.3353  1.1653 -0.5747
 2355TIP3   OH228699   2.278   7.002   5.739 -0.2370  0.0569 -0.1827
 2355TIP3    H128700   2.288   6.983   5.832 -1.8479 -0.2972 -0.0630
 2355TIP3    H228701   2.292   7.097   5.732  2.5443 -0.2599 -0.0080
 2356TIP3   OH228702   4.002   2.960   0.359  0.1486  0.2702 -0.4761
 2356TIP3    H128703   3.952   2.917   0.428 -0.3942  0.3423 -0.8176
 2356TIP3    H228704   3.946   2.954   0.281  0.9839 -0.3002 -1.0542
 2357TIP3   OH228705   2.134   0.879   1.096 -0.0687  0.1164  0.1798
 2357TIP3    H128706   2.223   0.891   1.128 -0.6067  0.8937  1.5232
 2357TIP3    H228707   2.089   0.832   1.167 -0.5456 -0.9774 -0.8076
 2358TIP3   OH228708   3.169   2.967   0.103  0.2255 -0.0877 -0.0303
 2358TIP3    H128709   3.185   2.873   0.095 -1.7403 -0.3529 -1.5077
 2358TIP3    H228710   3.102   2.975   0.171  1.8976  0.4878  1.6482
 2359TIP3   OH228711   2.927   2.740   0.785 -0.1945  0.0249 -0.3835
 2359TIP3    H128712   2.980   2.727   0.863 -2.3594 -0.7083  1.0252
 2359TIP3    H228713   2.939   2.660   0.734 -1.0274 -0.7719  0.6247
 2360TIP3   OH228714   2.188   3.111   0.737 -0.0870  0.0011  0.6550
 2360TIP3    H128715   2.217   3.040   0.681  0.7058  0.5481  0.3554
 2360TIP3    H228716   2.115   3.074   0.787 -0.3033 -0.7229 -0.1719
 2361TIP3   OH228717   5.083   0.102   0.433  0.4736 -0.1821 -0.1315
 2361TIP3    H128718   5.002   0.093   0.383  0.0626 -1.3101  0.7005
 2361TIP3    H228719   5.062   0.067   0.520  1.3853  1.0246  0.6193
 2362TIP3   OH228720   4.395   6.221   6.516 -0.0732 -0.2361  0.1578
 2362TIP3    H128721   4.467   6.163   6.542  0.3257  1.1608  2.4095
 2362TIP3    H228722   4.435   6.285   6.457  0.6181  0.6357  1.5332
 2363TIP3   OH228723   4.319   3.492   0.644 -0.1220 -0.1481  0.7908
 2363TIP3    H128724   4.369   3.486   0.726  0.1182  0.0690  0.6606
 2363TIP3    H228725   4.266   3.571   0.655  1.1151  0.8169  0.0794
 2364TIP3   OH228726   5.970   6.901   0.730  0.3161 -0.5347 -0.1421
 2364TIP3    H128727   5.996   6.877   0.641 -0.3248 -1.2674 -0.1462
 2364TIP3    H228728   6.041   6.955   0.762  0.6593 -0.4445 -1.0264
 2365TIP3   OH228729   6.508   4.413   6.878  0.0424  0.4004 -0.3817
 2365TIP3    H128730   6.454   4.488   6.854  1.6677  1.4195 -1.0108
 2365TIP3    H228731   6.445   4.346   6.905 -1.5459  1.3666 -1.5015
 2366TIP3   OH228732   6.831   2.689   7.003 -0.3815  0.5423  0.1937
 2366TIP3    H128733   6.815   2.696   7.097 -0.3674 -1.1005  0.3412
 2366TIP3    H228734   6.744   2.692   6.963 -0.3298  2.6702  0.0941
 2367TIP3   OH228735   4.726   3.121   0.042 -0.3107 -0.2585 -0.1811
 2367TIP3    H128736   4.782   3.047   0.065 -0.1440  0.2403  1.0564
 2367TIP3    H228737   4.637   3.092   0.066 -0.2587 -0.0930  0.2067
 2368TIP3   OH228738   5.739   1.737   6.518 -0.4327  0.1600  0.0841
 2368TIP3    H128739   5.703   1.650   6.535 -0.8732 -0.0348 -1.6194
 2368TIP3    H228740   5.829   1.721   6.491  0.1024  0.4171  1.6428
 2369TIP3   OH228741   6.966   3.435   5.769  0.1680  0.7453 -0.6049
 2369TIP3    H128742   6.995   3.376   5.698 -1.6240 -2.2627  0.9641
 2369TIP3    H228743   6.873   3.418   5.778  0.2753  1.1940  2.3058
 2370TIP3   OH228744   2.876   1.989   0.868 -0.3337 -0.0500 -0.5189
 2370TIP3    H128745   2.944   1.935   0.907  0.2587  0.8894 -0.2376
 2370TIP3    H228746   2.794   1.943   0.889 -0.1593  0.9424  2.7553
 2371TIP3   OH228747   2.831   3.231   0.815  0.0264 -0.1740  0.1330
 2371TIP3    H128748   2.805   3.251   0.726 -0.8966  0.4231  0.5185
 2371TIP3    H228749   2.813   3.137   0.825  3.5685 -1.1936 -1.4103
 2372TIP3   OH228750   4.169   5.316   7.726 -0.9644 -0.2781 -0.1632
 2372TIP3    H128751   4.200   5.306   7.815 -2.8075  0.8068  0.6584
 2372TIP3    H228752   4.073   5.318   7.733 -1.3679 -3.1445 -2.4955
 2373TIP3   OH228753   4.459   4.181   0.758 -0.1084 -0.7239 -0.3572
 2373TIP3    H128754   4.450   4.167   0.852 -2.3374  0.5014 -0.3257
 2373TIP3    H228755   4.531   4.123   0.732  0.6706 -0.9905  2.0962
 2374TIP3   OH228756   2.097   2.216   6.237  0.4639 -0.0770  0.4382
 2374TIP3    H128757   2.014   2.244   6.276 -0.2823 -0.6939 -0.6609
 2374TIP3    H228758   2.150   2.295   6.234 -0.2424  0.4191  0.7845
 2375TIP3   OH228759   4.763   3.408   1.789  0.4382  0.0281 -0.0853
 2375TIP3    H128760   4.721   3.492   1.810  0.0408 -0.1579 -0.1329
 2375TIP3    H228761   4.740   3.351   1.862 -0.0318 -0.2979 -0.4818
 2376TIP3   OH228762   5.551   1.800   6.859 -0.7738  0.1738 -0.5816
 2376TIP3    H128763   5.506   1.841   6.933  0.2352  0.2600  0.0073
 2376TIP3    H228764   5.633   1.769   6.896 -0.6580 -0.6138 -1.4750
 2377TIP3   OH228765   2.039   6.073   1.388  0.2974 -1.1438  0.2596
 2377TIP3    H128766   1.976   6.101   1.455  1.3349 -0.6620  1.0508
 2377TIP3    H228767   2.119   6.055   1.436  1.1946 -0.3762 -0.9019
 2378TIP3   OH228768   1.174   5.144   5.953  0.1721 -0.2738  0.3296
 2378TIP3    H128769   1.139   5.177   5.870 -0.8519  1.4890  1.4026
 2378TIP3    H228770   1.256   5.101   5.929 -1.3709 -2.2608 -1.9568
 2379TIP3   OH228771   4.508   5.980   1.501 -0.2125 -0.8054  0.0086
 2379TIP3    H128772   4.503   5.997   1.407 -1.1625 -3.7296 -0.5695
 2379TIP3    H228773   4.602   5.972   1.518 -0.0497 -0.6227 -0.7534
 2380TIP3   OH228774   4.306   0.008   6.856 -0.1536 -0.3004  0.5547
 2380TIP3    H128775   4.322   0.053   6.939 -0.5680 -0.6986  0.8554
 2380TIP3    H228776   4.383   0.029   6.802  0.9994 -1.4761  1.6574
 2381TIP3   OH228777   0.646   0.797   7.140  0.0390 -0.3756 -0.4102
 2381TIP3    H128778   0.576   0.860   7.120 -1.8607 -2.0894  0.4810
 2381TIP3    H228779   0.628   0.722   7.083  0.0955 -1.5355  1.0372
 2382TIP3   OH228780   4.001   6.780   0.972 -0.0877  0.0202  0.3592
 2382TIP3    H128781   3.922   6.771   1.024 -0.7383 -0.8013 -0.7180
 2382TIP3    H228782   4.001   6.703   0.915 -0.5592  1.8784 -2.3459
 2383TIP3   OH228783   6.575   2.982   6.692 -0.7887  0.1502 -0.0274
 2383TIP3    H128784   6.532   3.048   6.747  0.0257  0.1070  0.6759
 2383TIP3    H228785   6.576   3.020   6.604 -0.3672  1.0621  0.3643
 2384TIP3   OH228786   0.671   2.898   1.418 -0.3445 -0.1434 -0.0131
 2384TIP3    H128787   0.595   2.905   1.476 -2.2656  0.2116 -2.4293
 2384TIP3    H228788   0.658   2.815   1.371 -0.8659  1.2448 -2.5029
 2385TIP3   OH228789   5.545   4.172   0.667  0.2923  0.2216 -0.2851
 2385TIP3    H128790   5.570   4.235   0.735  0.8151 -1.1701  0.8689
 2385TIP3    H228791   5.458   4.199   0.639  0.2170  1.0417  0.6980
 2386TIP3   OH228792   4.889   4.337   0.694 -0.1379 -0.4014  0.7191
 2386TIP3    H128793   4.884   4.417   0.747 -0.2447 -0.0807  0.2344
 2386TIP3    H228794   4.798   4.307   0.687 -0.1473 -0.3429  0.5736
 2387TIP3   OH228795   1.622   0.924   0.334 -0.5175 -0.2556 -0.1259
 2387TIP3    H128796   1.542   0.874   0.348  0.1889 -0.9907  1.6477
 2387TIP3    H228797   1.625   0.986   0.407  0.0503  0.4057 -0.6967
 2388TIP3   OH228798   4.497   1.521   6.087 -0.3639  0.1777 -0.4129
 2388TIP3    H128799   4.452   1.478   6.014  0.3784 -1.1700 -0.1008
 2388TIP3    H228800   4.588   1.529   6.058 -0.3072  0.7268 -0.1020
 2389TIP3   OH228801   4.712   0.621   6.684 -0.0150 -0.0982  0.0707
 2389TIP3    H128802   4.662   0.624   6.766 -0.5992 -0.0371 -0.2815
 2389TIP3    H228803   4.648   0.594   6.618  0.5245 -0.4592 -0.3134
 2390TIP3   OH228804   1.104   3.501   6.688  0.0990  0.2379 -0.1829
 2390TIP3    H128805   1.195   3.519   6.664  1.0453 -3.1245  0.3320
 2390TIP3    H228806   1.107   3.482   6.781 -1.1414  0.1104 -0.1536
 2391TIP3   OH228807   3.658   5.802   1.971 -0.2482  0.0388 -0.2307
 2391TIP3    H128808   3.632   5.831   1.883 -0.4111 -3.1741 -1.3716
 2391TIP3    H228809   3.590   5.741   1.997 -0.5871  1.4471  2.5546
 2392TIP3   OH228810   7.053   5.524   6.781 -0.2237 -0.0395 -0.4803
 2392TIP3    H128811   6.992   5.493   6.847 -1.2574 -0.0052 -1.3992
 2392TIP3    H228812   7.012   5.603   6.745  1.3063  1.1792  0.2664
 2393TIP3   OH228813   0.571   4.722   7.936 -0.4300 -0.4091 -0.0037
 2393TIP3    H128814   0.487   4.734   7.892 -0.4159 -3.0543 -0.9012
 2393TIP3    H228815   0.552   4.738   8.028 -1.7764 -0.3272 -0.2704
 2394TIP3   OH228816   0.638   4.679   1.015  0.0459  0.1620  0.4270
 2394TIP3    H128817   0.697   4.627   0.960 -0.2928 -0.7960  0.9527
 2394TIP3    H228818   0.596   4.739   0.955 -0.3618 -0.9059 -0.3874
 2395TIP3   OH228819   2.242   3.339   0.957  0.3899 -0.5131 -0.6271
 2395TIP3    H128820   2.169   3.357   1.016  0.0694 -0.7408 -0.9499
 2395TIP3    H228821   2.269   3.425   0.925  0.6765 -0.3725 -0.0209
 2396TIP3   OH228822   3.567   2.439   7.260 -0.1305 -0.2154  0.3298
 2396TIP3    H128823   3.597   2.524   7.231 -2.4925  0.1146 -1.4347
 2396TIP3    H228824   3.513   2.457   7.337 -0.1070 -0.1979  0.3423
 2397TIP3   OH228825   0.101   6.219   6.990  0.6579  0.2803  0.4658
 2397TIP3    H128826   0.100   6.178   7.077 -0.0060  0.7244  0.6729
 2397TIP3    H228827   0.183   6.188   6.951 -0.1322 -1.8138  0.3212
 2398TIP3   OH228828   3.726   5.772   6.730 -0.4592  0.6502 -0.2538
 2398TIP3    H128829   3.797   5.718   6.695 -0.1647  0.7607  0.1619
 2398TIP3    H228830   3.654   5.761   6.668 -0.2592  0.1141 -0.3919
 2399TIP3   OH228831   1.744   5.278   1.382 -0.1683 -0.2497 -0.3332
 2399TIP3    H128832   1.791   5.245   1.458 -0.8967 -0.6096 -0.0303
 2399TIP3    H228833   1.698   5.356   1.414 -1.2955 -0.9709 -0.1148
 2400TIP3   OH228834   0.329   3.089   1.170  0.0325 -0.3019  0.0993
 2400TIP3    H128835   0.345   3.169   1.220 -1.0021  0.6097 -0.9750
 2400TIP3    H228836   0.415   3.065   1.135  0.0719  1.4260 -1.1062
 2401TIP3   OH228837   5.864   6.609   6.943 -0.1959  0.1460  0.6565
 2401TIP3    H128838   5.782   6.561   6.956 -0.1517  0.1951  1.1452
 2401TIP3    H228839   5.849   6.694   6.984 -1.0293  1.4098 -2.0066
 2402TIP3   OH228840   3.688   0.648   1.522  0.3594 -0.0241 -0.1262
 2402TIP3    H128841   3.756   0.715   1.520  1.8262 -1.3816  1.6574
 2402TIP3    H228842   3.702   0.598   1.442 -0.4255  1.3880 -1.2115
 2403TIP3   OH228843   5.921   2.744   0.266 -0.3607 -0.6030 -0.4557
 2403TIP3    H128844   5.958   2.657   0.277 -0.3970 -0.3517  2.4558
 2403TIP3    H228845   5.837   2.740   0.312  0.7915  1.5850  2.1133
 2404TIP3   OH228846   2.970   0.310   6.936  0.4654  0.0832  0.0534
 2404TIP3    H128847   2.996   0.221   6.914  2.4224  1.1188 -2.2814
 2404TIP3    H228848   3.028   0.336   7.008 -0.8568 -0.8214  1.5061
 2405TIP3   OH228849   4.829   3.021   7.369  0.1310  0.1258 -0.1151
 2405TIP3    H128850   4.809   3.029   7.463  0.7083  2.8784 -0.1299
 2405TIP3    H228851   4.885   2.944   7.363  0.3726  0.0863  1.8651
 2406TIP3   OH228852   2.876   1.351   7.968  0.1569  0.8129 -0.3384
 2406TIP3    H128853   2.897   1.341   7.875 -2.2514  1.3438 -1.0267
 2406TIP3    H228854   2.938   1.417   8.000  1.6819 -0.1252 -1.2872
 2407TIP3   OH228855   5.378   5.119   7.394  0.0957  0.1793 -0.3016
 2407TIP3    H128856   5.342   5.062   7.462 -2.2420  1.2333 -0.5545
 2407TIP3    H228857   5.396   5.202   7.439 -2.1416  1.1249 -0.9762
 2408TIP3   OH228858   6.572   6.735   7.825 -0.4225 -0.1112 -0.2036
 2408TIP3    H128859   6.595   6.661   7.770 -0.8600  0.1919 -0.8113
 2408TIP3    H228860   6.576   6.701   7.914  0.1420 -0.6517 -0.4286
 2409TIP3   OH228861   0.184   0.377   1.605  0.2612  0.0133 -0.0499
 2409TIP3    H128862   0.242   0.306   1.632  0.2352  0.7477  2.1598
 2409TIP3    H228863   0.096   0.345   1.626  0.0472 -0.1599 -1.1548
 2410TIP3   OH228864   3.172   6.649   1.615 -0.5812  0.2964 -0.4707
 2410TIP3    H128865   3.157   6.567   1.568  2.3454 -1.0898  0.7263
 2410TIP3    H228866   3.258   6.679   1.583 -0.0926  1.1012  1.4833
 2411TIP3   OH228867   2.936   1.550   1.662  0.2688  0.0699  0.3219
 2411TIP3    H128868   2.958   1.640   1.686 -0.6176  0.5825 -0.6857
 2411TIP3    H228869   2.905   1.556   1.572 -1.4681 -0.9611  0.7868
 2412TIP3   OH228870   3.784   5.907   7.688 -0.1232 -0.4067  0.0947
 2412TIP3    H128871   3.776   5.817   7.658 -1.0519 -0.8152  1.4815
 2412TIP3    H228872   3.827   5.901   7.773  1.4142  0.6239 -0.5742
 2413TIP3   OH228873   4.914   2.041   0.736  0.2076 -0.0654 -0.1103
 2413TIP3    H128874   4.878   2.129   0.737  1.8958  0.6779 -0.1964
 2413TIP3    H228875   4.923   2.017   0.828  2.6167  1.1628  0.0439
 2414TIP3   OH228876   2.944   3.743   1.709  0.1752  0.3063  0.1156
 2414TIP3    H128877   2.919   3.806   1.641  0.0929  1.6131  1.3090
 2414TIP3    H228878   2.881   3.672   1.700 -1.1143  1.4077  0.1142
 2415TIP3   OH228879   0.716   3.582   7.925  0.0335 -0.2061 -0.1176
 2415TIP3    H128880   0.626   3.611   7.944 -0.5314 -0.6929 -1.8775
 2415TIP3    H228881   0.748   3.548   8.008 -0.4424  2.3647  1.2368
 2416TIP3   OH228882   1.507   6.839   1.135 -0.1064  0.3049  0.3443
 2416TIP3    H128883   1.418   6.867   1.158  0.2558  1.9075 -0.0768
 2416TIP3    H228884   1.503   6.822   1.041  0.4980  2.5834 -0.1683
 2417TIP3   OH228885   6.176   4.301   7.033  0.0537  0.0974 -0.2218
 2417TIP3    H128886   6.233   4.376   7.013  0.5046  0.5936  2.5405
 2417TIP3    H228887   6.091   4.340   7.053  1.0291  0.4705  4.4150
 2418TIP3   OH228888   1.432   3.642   1.083  0.4930  0.5180 -0.1817
 2418TIP3    H128889   1.464   3.662   1.171 -0.1363  0.6904  0.0141
 2418TIP3    H228890   1.479   3.702   1.026 -1.0867  2.3696  0.3543
 2419TIP3   OH228891   1.142   4.826   1.097  0.6614  0.2003  0.3920
 2419TIP3    H128892   1.066   4.881   1.081 -1.0073 -1.6155  1.4490
 2419TIP3    H228893   1.112   4.737   1.077  2.0542 -0.7418  2.1176
 2420TIP3   OH228894   2.433   1.725   1.266  0.1104 -0.1231 -0.3966
 2420TIP3    H128895   2.353   1.676   1.284  0.5902 -0.2720  1.5874
 2420TIP3    H228896   2.488   1.663   1.217  0.4187 -1.3936  1.4315
 2421TIP3   OH228897   5.612   2.905   1.241  0.2219 -0.2439  0.1873
 2421TIP3    H128898   5.539   2.848   1.217  0.8820 -1.6371  1.3388
 2421TIP3    H228899   5.589   2.990   1.205 -0.8793 -1.1932 -1.4470
 2422TIP3   OH228900   0.768   3.210   6.833 -0.0797  0.1165  0.0339
 2422TIP3    H128901   0.813   3.256   6.762  0.9887 -0.5927  0.2241
 2422TIP3    H228902   0.685   3.182   6.794  0.6368 -0.5607 -1.0675
 2423TIP3   OH228903   3.917   1.868   6.606 -0.0858 -0.2174 -0.8143
 2423TIP3    H128904   3.847   1.804   6.621 -0.7097  0.5812 -0.2251
 2423TIP3    H228905   3.917   1.922   6.685  0.6085  0.3462 -1.1905
 2424TIP3   OH228906   1.668   0.616   6.732  0.4408 -0.6607  0.0293
 2424TIP3    H128907   1.618   0.698   6.731 -1.5230 -1.6859  2.8190
 2424TIP3    H228908   1.757   0.643   6.755  0.2517  0.8025 -0.7954
 2425TIP3   OH228909   3.271   5.885   6.559 -0.3790 -0.1128  0.4232
 2425TIP3    H128910   3.272   5.862   6.466  2.0265  0.2045  0.3134
 2425TIP3    H228911   3.290   5.803   6.604 -1.1929 -0.1921  0.6445
 2426TIP3   OH228912   4.887   2.596   7.052  0.3301  0.3843  0.7215
 2426TIP3    H128913   4.954   2.590   7.120  0.7816 -0.5963  0.1989
 2426TIP3    H228914   4.919   2.541   6.981 -1.5976 -1.1132  0.9221
 2427TIP3   OH228915   1.973   1.623   6.517 -0.0921 -0.8132 -0.1832
 2427TIP3    H128916   2.008   1.537   6.494 -0.0028 -0.3614 -1.8480
 2427TIP3    H228917   1.885   1.623   6.481  0.3922  0.2693 -1.4520
 2428TIP3   OH228918   1.812   1.989   7.451 -0.6990  0.5193 -0.5246
 2428TIP3    H128919   1.788   2.075   7.485 -1.6935  0.0882 -0.0896
 2428TIP3    H228920   1.772   1.985   7.364 -0.4849  0.5669 -0.6267
 2429TIP3   OH228921   6.641   5.106   0.459  0.3608  0.6164  0.0557
 2429TIP3    H128922   6.697   5.037   0.492 -1.2057  0.1449  1.9338
 2429TIP3    H228923   6.693   5.149   0.391  1.9446 -1.4179 -0.1197
 2430TIP3   OH228924   4.884   7.043   6.358  0.0734  0.0101 -0.4250
 2430TIP3    H128925   4.938   6.978   6.313 -0.9773 -0.9952 -0.3143
 2430TIP3    H228926   4.919   7.127   6.331  0.7220 -0.5937 -1.5476
 2431TIP3   OH228927   0.744   2.558   0.022  0.0169  0.0889 -0.6121
 2431TIP3    H128928   0.806   2.603   0.080 -0.6678 -0.5742  0.6732
 2431TIP3    H228929   0.800   2.501  -0.032  0.5467 -0.7420  0.7474
 2432TIP3   OH228930   5.159   3.129   7.375 -0.1736 -0.2461  0.0120
 2432TIP3    H128931   5.072   3.153   7.405  0.0807 -0.1218  0.6830
 2432TIP3    H228932   5.147   3.048   7.326 -0.8005  0.3114 -0.7683
 2433TIP3   OH228933   0.086   3.484   0.123 -0.4160 -0.0268 -0.1859
 2433TIP3    H128934   0.055   3.444   0.205  0.6785 -2.7802 -1.0207
 2433TIP3    H228935   0.181   3.487   0.132 -0.3184  0.0645 -1.1687
 2434TIP3   OH228936   4.727   5.978   6.218  0.4433 -0.1479 -0.0172
 2434TIP3    H128937   4.685   6.058   6.186 -1.6577 -1.4755 -0.8056
 2434TIP3    H228938   4.792   5.955   6.152  0.9174  0.7755  0.1178
 2435TIP3   OH228939   3.539   3.092   1.322 -0.3253  0.5658 -0.4327
 2435TIP3    H128940   3.455   3.049   1.335 -0.0517 -0.2421 -1.2476
 2435TIP3    H228941   3.518   3.173   1.277 -0.7992  1.0766  0.6750
 2436TIP3   OH228942   3.457   2.607   6.970 -0.4112 -0.4791 -0.2049
 2436TIP3    H128943   3.377   2.579   7.015  0.7595 -0.6801  1.8483
 2436TIP3    H228944   3.528   2.583   7.029  1.2960 -1.2346 -2.4186
 2437TIP3   OH228945   1.368   4.712   0.705 -0.0766  0.1316 -0.4461
 2437TIP3    H128946   1.287   4.662   0.700 -0.0889  0.1640 -0.5633
 2437TIP3    H228947   1.386   4.738   0.615 -1.5921  2.7900 -0.0833
 2438TIP3   OH228948   3.627   3.937   0.062  0.2849  0.6588  0.2733
 2438TIP3    H128949   3.649   3.866   0.002  0.0369  1.2913 -0.5723
 2438TIP3    H228950   3.623   3.895   0.148 -0.9485 -0.5719 -0.3617
 2439TIP3   OH228951   2.533   2.122   7.767 -0.5055 -0.3529  0.7107
 2439TIP3    H128952   2.453   2.099   7.720 -1.3296  0.6223  1.5610
 2439TIP3    H228953   2.530   2.068   7.846  0.2252 -1.0726  0.2551
 2440TIP3   OH228954   3.391   4.923   0.275 -0.4396 -0.1524  0.9150
 2440TIP3    H128955   3.336   4.870   0.332 -1.4655  0.5668  0.6260
 2440TIP3    H228956   3.474   4.875   0.270 -0.6847 -0.7411  2.1708
 2441TIP3   OH228957   1.393   5.549   7.842  0.1113  0.0410  0.7274
 2441TIP3    H128958   1.410   5.624   7.899 -1.6371  0.5359  0.6578
 2441TIP3    H228959   1.436   5.571   7.759  1.2887  0.0443  1.3106
 2442TIP3   OH228960   0.360   6.786   6.092  0.6995 -0.0509  0.0180
 2442TIP3    H128961   0.350   6.754   6.181 -0.1649  1.4211  0.4864
 2442TIP3    H228962   0.431   6.851   6.097  0.5438  0.1506 -0.3227
 2443TIP3   OH228963   5.142   5.770   7.909 -0.7859 -0.5332 -0.2223
 2443TIP3    H128964   5.224   5.748   7.953 -0.3445 -0.7247 -1.1151
 2443TIP3    H228965   5.168   5.817   7.830 -1.3794 -2.3184 -1.5696
 2444TIP3   OH228966   4.485   1.592   6.369 -0.3536 -0.0139 -0.3499
 2444TIP3    H128967   4.460   1.573   6.278 -0.9464  2.5213 -0.8009
 2444TIP3    H228968   4.412   1.644   6.403 -0.4535 -1.4737  1.8416
 2445TIP3   OH228969   1.757   1.598   0.496  0.8023 -0.2778 -0.4908
 2445TIP3    H128970   1.777   1.529   0.433  0.4104 -0.2753 -0.6193
 2445TIP3    H228971   1.700   1.659   0.449 -0.4138 -0.8456  0.1892
 2446TIP3   OH228972   0.701   3.336   7.774 -0.0376  0.0437  0.0053
 2446TIP3    H128973   0.678   3.415   7.823 -2.9297 -0.3638 -0.5330
 2446TIP3    H228974   0.697   3.265   7.838 -0.3546 -0.0523 -0.1238
 2447TIP3   OH228975   1.122   5.902   1.193  0.3353 -0.2925 -0.4207
 2447TIP3    H128976   1.035   5.938   1.210  0.6778 -0.5265  2.1941
 2447TIP3    H228977   1.128   5.899   1.097 -1.7507  1.5595 -0.7040
 2448TIP3   OH228978   5.991   6.806   7.641 -0.2942  0.2060  0.1377
 2448TIP3    H128979   6.067   6.748   7.641  0.7911  1.4369  2.8443
 2448TIP3    H228980   5.990   6.845   7.554  1.2301 -0.9998 -0.4632
 2449TIP3   OH228981   2.289   0.295   6.374 -0.4568  0.3929 -0.0408
 2449TIP3    H128982   2.341   0.249   6.308  0.4277  1.3480 -0.0385
 2449TIP3    H228983   2.351   0.354   6.418 -1.5633  1.7221 -0.1643
 2450TIP3   OH228984   2.807   3.419   6.363  0.0571 -0.1127  0.1317
 2450TIP3    H128985   2.857   3.342   6.391 -1.2549 -1.3858 -0.8609
 2450TIP3    H228986   2.873   3.484   6.340  1.2283 -1.2807  0.0894
 2451TIP3   OH228987   2.263   0.590   6.777  0.0824 -0.4433 -0.5735
 2451TIP3    H128988   2.304   0.628   6.855 -0.9108 -0.9292  0.2044
 2451TIP3    H228989   2.279   0.496   6.785 -1.9098 -0.7471  0.2072
 2452TIP3   OH228990   6.374   4.559   7.732  0.3670  0.2179 -0.6479
 2452TIP3    H128991   6.279   4.551   7.735  0.3181  1.0532  0.4347
 2452TIP3    H228992   6.391   4.652   7.718  1.0284  0.3458  0.8545
 2453TIP3   OH228993   2.135   1.851   6.688  0.0091 -0.5941  0.2403
 2453TIP3    H128994   2.173   1.913   6.750  1.3170 -1.2209  0.1139
 2453TIP3    H228995   2.210   1.821   6.635 -0.7984 -1.3072 -0.5418
 2454TIP3   OH228996   6.887   5.643   1.066  0.5259 -0.2726  0.2789
 2454TIP3    H128997   6.855   5.567   1.017  0.3270 -0.9563  1.4153
 2454TIP3    H228998   6.977   5.656   1.035 -0.1827  0.5207 -1.6229
 2455TIP3   OH228999   2.230   3.570   7.142 -0.1723  0.2848 -0.0196
 2455TIP3    H129000   2.184   3.648   7.112  0.3742  1.0075  0.9766
 2455TIP3    H229001   2.319   3.599   7.160  0.1244 -0.6352  0.0950
 2456TIP3   OH229002   2.473   2.017   1.316  0.1417  0.4242  0.5947
 2456TIP3    H129003   2.513   2.056   1.239 -1.1739  1.6355  0.4864
 2456TIP3    H229004   2.476   1.923   1.300 -0.3373  0.6645 -1.0653
 2457TIP3   OH229005   0.274   5.855   0.888  0.4989 -0.1020 -0.1157
 2457TIP3    H129006   0.288   5.763   0.914  0.1937  0.1566  1.0321
 2457TIP3    H229007   0.351   5.901   0.920  0.4891  0.0958 -0.3784
 2458TIP3   OH229008   5.748   4.331   6.343 -0.4502  0.8561  0.0244
 2458TIP3    H129009   5.823   4.287   6.382 -0.7722  0.0436 -0.2579
 2458TIP3    H229010   5.685   4.340   6.414 -0.0257  1.7276  0.3152
 2459TIP3   OH229011   2.261   4.456   7.417  0.3012  0.2589 -0.0609
 2459TIP3    H129012   2.208   4.532   7.392  1.0824  1.1152  0.8185
 2459TIP3    H229013   2.309   4.484   7.495  2.5636 -0.2602 -1.1815
 2460TIP3   OH229014   1.939   3.298   6.921 -0.0413 -0.0056  0.8899
 2460TIP3    H129015   1.951   3.348   7.001  0.6655  1.7493 -0.2434
 2460TIP3    H229016   1.865   3.340   6.877  2.0625  1.7858 -1.2339
 2461TIP3   OH229017   3.306   2.005   1.484  0.2331 -0.8299  0.6473
 2461TIP3    H129018   3.374   1.940   1.500  2.4283  1.0524 -0.4165
 2461TIP3    H229019   3.246   1.996   1.558  1.5450 -2.6820  1.5547
 2462TIP3   OH229020   2.928   2.950   1.854 -0.1236 -0.1473  0.6315
 2462TIP3    H129021   2.984   2.941   1.932 -1.1671 -1.2250  1.2897
 2462TIP3    H229022   2.854   2.892   1.871  0.1985 -1.3654 -1.6952
 2463TIP3   OH229023   3.862   3.295   7.342 -0.3292 -0.1340  0.7791
 2463TIP3    H129024   3.846   3.261   7.254 -1.4565  0.5648  0.6933
 2463TIP3    H229025   3.898   3.382   7.329  1.4505 -0.7915  1.0142
 2464TIP3   OH229026   2.423   3.713   0.972 -0.8974 -0.3418 -0.3424
 2464TIP3    H129027   2.388   3.649   0.910  0.0090 -1.8560  0.6478
 2464TIP3    H229028   2.426   3.667   1.056  2.9392 -0.2545 -0.2543
 2465TIP3   OH229029   6.905   2.410   7.054 -0.1026 -0.7119 -0.0699
 2465TIP3    H129030   6.863   2.487   7.016  0.3603  0.4101  1.5858
 2465TIP3    H229031   6.983   2.397   7.001  0.9042  1.2463  0.8484
 2466TIP3   OH229032   3.768   5.947   1.284  0.8748  0.6328  0.9024
 2466TIP3    H129033   3.697   5.942   1.348 -0.0948 -0.7734 -0.2097
 2466TIP3    H229034   3.735   5.899   1.208  2.5589  0.9891 -0.1108
 2467TIP3   OH229035   5.145   1.492   8.110 -0.0575  0.3657 -0.1604
 2467TIP3    H129036   5.194   1.515   8.031 -0.0497  1.0931  0.0567
 2467TIP3    H229037   5.127   1.575   8.153  1.0673 -0.0994  1.2907
 2468TIP3   OH229038   1.130   1.650   6.000  0.0189  0.2326 -0.5500
 2468TIP3    H129039   1.211   1.700   5.998  0.2208 -0.0946 -1.0799
 2468TIP3    H229040   1.140   1.591   6.075  1.8529 -2.2864 -2.5492
 2469TIP3   OH229041   7.065   2.665   7.325  0.1971 -0.3579  0.1693
 2469TIP3    H129042   7.113   2.587   7.295 -0.1867 -1.3134  1.9257
 2469TIP3    H229043   7.134   2.728   7.349  0.5416 -0.7542  0.2406
 2470TIP3   OH229044   2.429   0.799   0.982  0.3065 -0.0461 -0.1477
 2470TIP3    H129045   2.410   0.817   1.074 -2.1614 -1.5108 -0.3006
 2470TIP3    H229046   2.513   0.752   0.984 -1.2349 -3.0704  1.8058
 2471TIP3   OH229047   3.302   4.698   1.624 -0.3863 -0.5099  0.5354
 2471TIP3    H129048   3.333   4.786   1.647 -0.6496 -0.1532 -0.4276
 2471TIP3    H229049   3.207   4.702   1.634 -0.3304 -0.9642  1.3674
 2472TIP3   OH229050   1.336   6.049   6.943 -0.0101 -0.7270  0.0870
 2472TIP3    H129051   1.251   6.088   6.923  0.2895 -0.6716 -1.1390
 2472TIP3    H229052   1.326   5.956   6.923  0.6488 -0.4682 -1.5692
 2473TIP3   OH229053   1.769   4.549   1.244 -0.8195  0.6995  0.4172
 2473TIP3    H129054   1.719   4.627   1.269  0.8329  1.4219  1.7370
 2473TIP3    H229055   1.789   4.505   1.327 -1.0558 -0.7231 -0.2472
 2474TIP3   OH229056   6.389   4.949   0.800  0.4480  0.1275  0.1844
 2474TIP3    H129057   6.330   4.968   0.873 -0.5789  0.1294 -0.6301
 2474TIP3    H229058   6.403   4.854   0.806 -0.8083 -0.1257 -0.4492
 2475TIP3   OH229059   3.828   0.730   1.217  0.1715  0.1572 -0.6243
 2475TIP3    H129060   3.842   0.644   1.177  0.6672 -0.7569  1.3996
 2475TIP3    H229061   3.838   0.792   1.144  0.1378 -1.4591 -2.0661
 2476TIP3   OH229062   6.346   1.601   1.282  0.2809 -0.4389 -0.5686
 2476TIP3    H129063   6.383   1.627   1.197 -0.5793 -0.4509 -0.9574
 2476TIP3    H229064   6.408   1.537   1.317  1.3129  0.5222 -0.5871
 2477TIP3   OH229065   1.808   5.435   5.415 -0.1081  0.9150 -0.3880
 2477TIP3    H129066   1.836   5.525   5.401  0.9444  0.4012 -1.8370
 2477TIP3    H229067   1.720   5.442   5.452 -0.8529  2.5304 -2.2970
 2478TIP3   OH229068   6.425   3.547   6.174  0.3101 -0.0479  0.6912
 2478TIP3    H129069   6.443   3.517   6.085 -0.4668  1.9012 -0.1893
 2478TIP3    H229070   6.330   3.538   6.183  0.2479  0.7813  0.9169
 2479TIP3   OH229071   4.182   6.568   7.759  0.5517  0.3857  0.6988
 2479TIP3    H129072   4.193   6.500   7.692 -1.2554  0.7913 -0.0582
 2479TIP3    H229073   4.224   6.646   7.721 -0.2029  0.5343  0.1541
 2480TIP3   OH229074   1.513   0.744   0.826  0.3338  0.0989 -0.5855
 2480TIP3    H129075   1.601   0.772   0.800  1.2405  0.5257  2.4824
 2480TIP3    H229076   1.468   0.826   0.845 -0.1545 -0.1832 -0.5275
 2481TIP3   OH229077   6.665   6.240   6.514  0.4712  0.3525 -0.1909
 2481TIP3    H129078   6.714   6.229   6.596  1.4317  0.9764 -0.6535
 2481TIP3    H229079   6.652   6.335   6.507 -1.2632  0.1718  0.1549
 2482TIP3   OH229080   2.102   0.768   7.567 -0.0349 -0.2943 -1.1551
 2482TIP3    H129081   2.050   0.689   7.583  0.0645 -0.6334 -2.4225
 2482TIP3    H229082   2.036   0.836   7.550 -0.1204 -0.0883 -0.0645
 2483TIP3   OH229083   1.567   5.796   1.012 -0.5711  0.0147  0.3111
 2483TIP3    H129084   1.597   5.828   1.097  2.2509 -1.8805  0.1926
 2483TIP3    H229085   1.601   5.859   0.949  0.6471 -0.5114  0.4034
 2484TIP3   OH229086   5.499   3.004   7.233  0.7789  0.7675 -0.3601
 2484TIP3    H129087   5.576   3.031   7.182  1.7604 -0.8381  0.1801
 2484TIP3    H229088   5.428   2.999   7.168  1.8170 -0.4781 -1.4848
 2485TIP3   OH229089   5.607   3.980   1.269  0.3461 -0.6160 -0.2426
 2485TIP3    H129090   5.621   3.963   1.363  1.7516 -0.1199 -0.3306
 2485TIP3    H229091   5.512   3.987   1.260  0.2268  0.6448  1.3990
 2486TIP3   OH229092   0.705   3.912   6.203 -0.1118  0.1679  0.2671
 2486TIP3    H129093   0.781   3.875   6.248  0.7314  0.1371 -1.1238
 2486TIP3    H229094   0.662   3.966   6.270  1.5357  0.7647  0.9100
 2487TIP3   OH229095   1.888   5.890   1.237 -0.8796  0.8799 -0.1313
 2487TIP3    H129096   1.950   5.866   1.168 -0.0678 -3.0507  1.7260
 2487TIP3    H229097   1.930   5.965   1.281  1.1577  0.1412 -0.7013
 2488TIP3   OH229098   4.903   2.527   7.859 -0.8829  0.3948 -0.3200
 2488TIP3    H129099   4.981   2.488   7.899 -0.4490  0.6699 -0.9006
 2488TIP3    H229100   4.898   2.614   7.897 -2.0622 -0.3123  1.2634
 2489TIP3   OH229101   3.260   4.042   1.770 -0.3697 -0.6449 -0.3310
 2489TIP3    H129102   3.264   4.001   1.683  0.3142 -1.2771 -0.0182
 2489TIP3    H229103   3.321   3.991   1.823  0.1389  0.4899  0.2141
 2490TIP3   OH229104   4.067   1.700   7.155 -0.8027  0.4257 -0.4000
 2490TIP3    H129105   4.148   1.662   7.123 -0.1410  1.8430 -0.4589
 2490TIP3    H229106   4.016   1.718   7.076 -1.6164 -1.3084 -0.3294
 2491TIP3   OH229107   0.768   1.376   6.590  0.5206  0.3732 -0.0801
 2491TIP3    H129108   0.704   1.438   6.627  0.2621 -0.0321  0.1615
 2491TIP3    H229109   0.732   1.353   6.504 -0.4015 -0.9275  0.6186
 2492TIP3   OH229110   3.412   6.696   7.851  0.0934 -0.2601 -0.4441
 2492TIP3    H129111   3.380   6.630   7.913  0.4734 -0.0968 -0.0715
 2492TIP3    H229112   3.372   6.672   7.767  0.3926 -1.0859 -0.3576
 2493TIP3   OH229113   3.129   2.009   6.840  0.1786 -0.4738  0.0687
 2493TIP3    H129114   3.093   1.971   6.759 -1.1373  2.0538 -0.6567
 2493TIP3    H229115   3.119   1.940   6.905  0.0313 -2.1282 -1.6182
 2494TIP3   OH229116   1.538   0.552   7.270  0.3417  0.9010 -0.2832
 2494TIP3    H129117   1.552   0.535   7.177  3.1355  3.3624 -0.4587
 2494TIP3    H229118   1.618   0.596   7.299 -0.9723  1.4359  2.9888
 2495TIP3   OH229119   6.194   3.549   0.186  0.0339 -0.4035 -0.9389
 2495TIP3    H129120   6.229   3.553   0.275 -0.3752 -1.6444 -0.7018
 2495TIP3    H229121   6.232   3.469   0.148  1.2908  0.8089 -2.3744
 2496TIP3   OH229122   5.788   2.235   6.328 -0.0161 -0.3270 -0.0837
 2496TIP3    H129123   5.705   2.254   6.371  1.0170 -0.7910  2.2467
 2496TIP3    H229124   5.789   2.140   6.318  0.8921 -0.5024  1.4098
 2497TIP3   OH229125   5.908   4.902   1.796 -0.0597 -0.4779 -0.1474
 2497TIP3    H129126   5.973   4.942   1.855 -1.6448  0.2461  1.1820
 2497TIP3    H229127   5.888   4.817   1.837 -2.9738  1.0235  1.8956
 2498TIP3   OH229128   0.968   5.019   7.932  0.0032 -0.3003  0.2748
 2498TIP3    H129129   1.051   5.058   7.960  0.4844 -1.0236 -0.0982
 2498TIP3    H229130   0.923   4.997   8.014 -0.3203  1.1032  0.4886
 2499TIP3   OH229131   3.617   3.575   0.452  0.0164 -0.1169 -0.0348
 2499TIP3    H129132   3.699   3.550   0.494  0.3084  1.7559  0.6052
 2499TIP3    H229133   3.597   3.502   0.393  2.1323 -0.6089 -0.2209
 2500TIP3   OH229134   2.295   6.270   7.571  0.6529 -0.4858  0.3355
 2500TIP3    H129135   2.304   6.355   7.613  0.6756 -0.3002 -0.0459
 2500TIP3    H229136   2.379   6.227   7.585  1.0665  0.0160 -0.4895
 2501TIP3   OH229137   1.468   2.022   6.017 -0.0236 -0.0104 -0.6289
 2501TIP3    H129138   1.553   2.057   5.992  0.7660  0.3756  2.2670
 2501TIP3    H229139   1.473   1.928   5.998  1.0245  0.0336 -0.5988
 2502TIP3   OH229140   5.122   5.441   7.641 -0.7656 -0.4307  0.1347
 2502TIP3    H129141   5.140   5.399   7.725  0.0987  0.3488  0.3512
 2502TIP3    H229142   5.193   5.411   7.584 -1.3629 -0.9785 -0.3399
 2503TIP3   OH229143   0.070   4.224   7.318  0.1941  0.2396  0.0587
 2503TIP3    H129144  -0.019   4.197   7.296 -0.2166 -0.0193  1.8430
 2503TIP3    H229145   0.058   4.286   7.390  1.4184  1.0487 -0.4062
 2504TIP3   OH229146   6.562   0.079   1.978 -0.0569 -0.2441 -0.3115
 2504TIP3    H129147   6.611  -0.001   1.958 -0.5938 -0.8771  0.8476
 2504TIP3    H229148   6.506   0.056   2.052 -1.4086  0.7455 -0.9814
 2505TIP3   OH229149   2.414   5.939   1.029  0.0782  0.7029 -0.8933
 2505TIP3    H129150   2.436   6.018   0.978  1.5544  0.1816 -1.1033
 2505TIP3    H229151   2.472   5.942   1.105 -0.2316  0.0836 -0.6263
 2506TIP3   OH229152   6.335   1.950   7.244  0.0602  0.0881  0.3905
 2506TIP3    H129153   6.331   1.989   7.157  0.1993 -0.5198  0.1098
 2506TIP3    H229154   6.278   1.873   7.239 -0.9148  0.7283  1.1967
 2507TIP3   OH229155   4.304   2.311   6.557 -0.3453  0.0428  0.5709
 2507TIP3    H129156   4.394   2.326   6.528 -1.1324 -0.1672 -2.1841
 2507TIP3    H229157   4.299   2.357   6.642  2.0736  0.8329  0.3630
 2508TIP3   OH229158   5.958   3.542   6.220 -0.2372 -0.3682  1.0999
 2508TIP3    H129159   5.893   3.490   6.173  1.7661 -2.0975  0.0443
 2508TIP3    H229160   5.932   3.537   6.312 -2.1095 -0.1369  0.6119
 2509TIP3   OH229161   0.307   5.196   1.571  0.3154  0.1990  0.2973
 2509TIP3    H129162   0.273   5.273   1.615  1.3609  0.2782  0.9956
 2509TIP3    H229163   0.239   5.130   1.581  0.4046  0.3026  1.8126
 2510TIP3   OH229164   6.186   2.646   7.073 -0.2281  0.1060  0.2507
 2510TIP3    H129165   6.203   2.557   7.103  1.9662 -0.4348 -2.2339
 2510TIP3    H229166   6.124   2.635   7.001 -0.6325  0.7052  0.5001
 2511TIP3   OH229167   0.017   2.898   6.317 -0.1034 -0.2276  0.2980
 2511TIP3    H129168   0.079   2.893   6.244  0.5399  1.1475  0.7309
 2511TIP3    H229169  -0.004   2.806   6.336  1.2719 -0.6939 -0.3055
 2512TIP3   OH229170   3.283   6.378   6.427 -0.3525 -0.0123  0.0119
 2512TIP3    H129171   3.346   6.323   6.475 -0.6989 -0.6548 -0.2540
 2512TIP3    H229172   3.283   6.342   6.339 -1.1745 -0.0867  0.0343
 2513TIP3   OH229173   5.546   3.459   0.130  0.1261  0.2624 -0.0253
 2513TIP3    H129174   5.539   3.503   0.214 -1.4023 -0.0528  0.0358
 2513TIP3    H229175   5.575   3.370   0.151 -1.0554 -0.0763  0.2818
 2514TIP3   OH229176   2.319   3.639   1.433 -0.2125 -0.0374 -0.5690
 2514TIP3    H129177   2.373   3.670   1.506  2.1227 -0.4626 -2.0142
 2514TIP3    H229178   2.287   3.553   1.462  0.1788  0.0611  0.1840
 2515TIP3   OH229179   6.988   5.851   5.709 -0.0606  0.1912  0.2584
 2515TIP3    H129180   6.946   5.799   5.778  1.3716 -0.5760  0.5864
 2515TIP3    H229181   6.923   5.918   5.687 -2.4010 -2.2900 -0.9054
 2516TIP3   OH229182   4.253   5.803   1.163  0.6626 -0.1440  0.8078
 2516TIP3    H129183   4.256   5.899   1.157 -2.9874  0.0347 -1.6819
 2516TIP3    H229184   4.256   5.785   1.257  0.9328  2.4384  1.3724
 2517TIP3   OH229185   5.445   1.399   0.768 -0.3329 -0.0755 -0.4308
 2517TIP3    H129186   5.350   1.402   0.777 -0.4319 -0.6078 -1.2040
 2517TIP3    H229187   5.471   1.491   0.764 -0.6871  0.0977  0.8841
 2518TIP3   OH229188   5.541   5.072   7.751  0.8980  0.7593 -0.9007
 2518TIP3    H129189   5.453   5.047   7.725 -0.1685  1.3575  1.8645
 2518TIP3    H229190   5.589   4.988   7.756 -1.0496 -0.3126  2.6975
 2519TIP3   OH229191   6.608   1.564   6.701 -0.4541 -0.3328  0.6116
 2519TIP3    H129192   6.663   1.560   6.623  1.3709 -0.1096  1.8335
 2519TIP3    H229193   6.521   1.538   6.671 -0.2869  1.6239 -1.9159
 2520TIP3   OH229194   3.436   3.044   0.831  0.3234 -0.5140  0.2292
 2520TIP3    H129195   3.481   2.967   0.795  0.3423  0.0182 -0.9368
 2520TIP3    H229196   3.374   3.070   0.763 -0.9844 -0.5655  1.3621
 2521TIP3   OH229197   3.630   1.404   8.064 -0.4365 -0.0723  0.6173
 2521TIP3    H129198   3.606   1.494   8.086  0.5260 -0.3264  3.0987
 2521TIP3    H229199   3.624   1.357   8.147  0.9756 -1.8570 -0.2192
 2522TIP3   OH229200   3.232   4.213   8.101  0.6446  0.4515  0.1263
 2522TIP3    H129201   3.175   4.281   8.135 -1.9128 -0.7790 -1.3474
 2522TIP3    H229202   3.272   4.251   8.023 -0.2008  0.5181 -0.2791
 2523TIP3   OH229203   4.159   1.963   7.749 -0.1075  0.6382 -0.1340
 2523TIP3    H129204   4.077   1.931   7.711  0.1622  1.3647 -1.4228
 2523TIP3    H229205   4.227   1.911   7.705  0.1422  0.1277  0.8317
 2524TIP3   OH229206   5.766   7.074   0.703  0.1000 -0.7252  0.0754
 2524TIP3    H129207   5.724   7.014   0.765  0.5419 -0.4137  0.6837
 2524TIP3    H229208   5.853   7.038   0.690  0.5350  0.0264  0.8068
 2525TIP3   OH229209   4.226   6.992   6.519 -0.4791  0.3169 -0.5515
 2525TIP3    H129210   4.162   6.940   6.471  0.5198 -1.9189  0.3666
 2525TIP3    H229211   4.175   7.064   6.557 -1.9341  0.0608 -1.9183
 2526TIP3   OH229212   1.488   5.796   7.845  0.0023  0.0912 -0.6413
 2526TIP3    H129213   1.423   5.866   7.843  0.0786  0.1984  0.2821
 2526TIP3    H229214   1.561   5.829   7.792  0.7200  1.4189  1.0750
 2527TIP3   OH229215   4.892   1.516   0.168  0.1796 -0.0036  0.0594
 2527TIP3    H129216   4.852   1.507   0.082  1.7045  0.4576 -0.7331
 2527TIP3    H229217   4.974   1.467   0.161  1.2572  1.6601  0.5930
 2528TIP3   OH229218   5.483   3.215   6.830 -0.3337  0.3264  0.7165
 2528TIP3    H129219   5.493   3.236   6.737  0.9980  0.4970  0.8669
 2528TIP3    H229220   5.477   3.120   6.833 -2.5944  0.4191  0.3096
 2529TIP3   OH229221   1.027   0.669   0.696  1.0097  0.3790 -0.2075
 2529TIP3    H129222   1.072   0.736   0.644  1.1422  1.0936  0.8048
 2529TIP3    H229223   0.943   0.709   0.717  0.3479 -0.5031 -1.1240
 2530TIP3   OH229224   2.412   0.893   0.728  0.5583  0.2766  0.1830
 2530TIP3    H129225   2.470   0.845   0.669  0.9116  0.4611  0.3728
 2530TIP3    H229226   2.405   0.838   0.806 -1.9511 -1.2008 -0.9675
 2531TIP3   OH229227   4.967   6.150   6.098 -0.5424  0.2483 -0.7103
 2531TIP3    H129228   4.906   6.080   6.075 -1.9152  1.2776 -0.3064
 2531TIP3    H229229   4.912   6.226   6.112  0.9411  1.5096 -1.4413
 2532TIP3   OH229230   3.707   0.523   0.682  0.2587  0.0063  0.0427
 2532TIP3    H129231   3.624   0.559   0.712  0.3827  0.2841  0.0571
 2532TIP3    H229232   3.774   0.574   0.728  0.4342 -0.8113  0.7115
 2533TIP3   OH229233   3.958   2.482   6.658  0.3707 -0.2610 -0.7132
 2533TIP3    H129234   3.871   2.502   6.691  0.1535  0.0013 -1.4404
 2533TIP3    H229235   4.007   2.564   6.669  0.3153 -0.1908 -0.9882
 2534TIP3   OH229236   1.828   0.667   7.036  0.1803  0.1294 -0.0265
 2534TIP3    H129237   1.756   0.719   7.072 -0.1808  0.4435 -1.1853
 2534TIP3    H229238   1.907   0.708   7.071 -0.1734  0.1799  0.7264
 2535TIP3   OH229239   2.227   5.598   7.622  0.0868 -0.0844  0.0281
 2535TIP3    H129240   2.323   5.597   7.616  0.0015 -0.2533 -1.7192
 2535TIP3    H229241   2.208   5.565   7.710  1.6429  0.6652  0.6883
 2536TIP3   OH229242   5.025   0.807   2.078  0.2057 -0.5855  0.8188
 2536TIP3    H129243   5.039   0.870   2.008 -0.6469  1.7356  2.6202
 2536TIP3    H229244   4.931   0.811   2.095  0.1167 -2.4460  0.9472
 2537TIP3   OH229245   6.253   6.644   5.875  0.2259  0.2960 -0.4613
 2537TIP3    H129246   6.323   6.624   5.937  0.2101 -0.0951 -0.5654
 2537TIP3    H229247   6.222   6.558   5.846  0.3964  0.4811 -1.1984
 2538TIP3   OH229248   1.563   0.091   1.565 -0.2202  0.2030  0.4868
 2538TIP3    H129249   1.478   0.133   1.551  0.1634  0.9911  0.5150
 2538TIP3    H229250   1.627   0.156   1.538  0.5030  0.8201  3.3747
 2539TIP3   OH229251   1.985   4.323   0.900 -0.6575 -0.5732  0.2407
 2539TIP3    H129252   2.015   4.344   0.812  0.7512  2.6642  1.3343
 2539TIP3    H229253   2.031   4.242   0.923  1.3124  0.1323 -0.9597
 2540TIP3   OH229254   5.851   6.893   6.026  0.0135  0.4802 -0.2095
 2540TIP3    H129255   5.772   6.942   6.005 -0.6528  0.0637  1.2018
 2540TIP3    H229256   5.901   6.952   6.082 -0.2925 -0.0387  0.6188
 2541TIP3   OH229257   6.169   2.260   1.866  0.1703 -0.1042  0.1268
 2541TIP3    H129258   6.149   2.353   1.855  0.7105  0.0125  0.0671
 2541TIP3    H229259   6.263   2.254   1.846 -0.0879 -0.8382 -0.9475
 2542TIP3   OH229260   2.883   4.619   6.417  0.3728  0.4416 -0.3234
 2542TIP3    H129261   2.949   4.605   6.484 -0.5853 -0.6746  0.4274
 2542TIP3    H229262   2.882   4.714   6.404  1.4481  0.5579  0.3236
 2543TIP3   OH229263   0.566   6.762   7.245 -0.1071 -0.0007  0.4370
 2543TIP3    H129264   0.520   6.729   7.168 -1.2572  0.0141  1.1113
 2543TIP3    H229265   0.562   6.691   7.309  1.3445 -0.2347  0.3207
 2544TIP3   OH229266   0.370   6.947   5.600 -0.3040 -0.3116  0.4132
 2544TIP3    H129267   0.373   6.898   5.682 -1.8945  0.3063  0.8758
 2544TIP3    H229268   0.315   6.893   5.542  0.0847 -0.3181  0.0449
 2545TIP3   OH229269   1.971   1.068   1.525 -0.4761 -0.9883 -0.3131
 2545TIP3    H129270   1.898   1.117   1.562 -0.1553 -0.8251  0.1109
 2545TIP3    H229271   2.007   1.125   1.457  0.2616 -0.3716  0.5726
 2546TIP3   OH229272   5.582   3.869   0.566 -0.1453 -0.1909  1.0474
 2546TIP3    H129273   5.532   3.807   0.620 -1.6557  0.5988  0.5897
 2546TIP3    H229274   5.542   3.954   0.584  1.7286  0.6529  1.4681
 2547TIP3   OH229275   6.247   7.020   1.094 -0.2439  0.0880  0.4341
 2547TIP3    H129276   6.229   6.978   1.010 -1.5836  2.7073 -0.6960
 2547TIP3    H229277   6.341   7.007   1.108 -0.1231 -0.9632 -1.1162
 2548TIP3   OH229278   1.129   3.545   0.581 -0.8068  0.2387  0.1864
 2548TIP3    H129279   1.205   3.539   0.638  0.6273 -0.2782 -1.7049
 2548TIP3    H229280   1.157   3.600   0.508 -2.7455  1.2863  0.1640
 2549TIP3   OH229281   4.505   1.125   5.996 -0.4219 -0.7244 -0.0412
 2549TIP3    H129282   4.475   1.169   5.917 -1.3169 -1.8242 -0.3289
 2549TIP3    H229283   4.594   1.096   5.976  0.5930  1.7065  0.4832
 2550TIP3   OH229284   2.494   0.615   7.695  0.5239 -0.4773 -0.3893
 2550TIP3    H129285   2.429   0.619   7.765  1.1914 -0.6322  0.2603
 2550TIP3    H229286   2.454   0.561   7.627  1.0210 -2.9368  1.1658
 2551TIP3   OH229287   4.220   4.508   6.654  0.4141  0.0234 -0.3127
 2551TIP3    H129288   4.148   4.444   6.648  1.7373 -1.5613 -0.0235
 2551TIP3    H229289   4.203   4.569   6.582 -1.2263 -0.3034 -0.2422
 2552TIP3   OH229290   5.830   0.075   0.372  0.0157 -0.1415 -0.0643
 2552TIP3    H129291   5.915   0.032   0.361  0.2553 -0.1734  1.6446
 2552TIP3    H229292   5.805   0.103   0.284  1.1772 -1.2868 -0.7921
 2553TIP3   OH229293   3.870   6.620   1.204 -0.6910 -0.5711 -0.2460
 2553TIP3    H129294   3.919   6.546   1.169  1.8576  1.9547 -2.5095
 2553TIP3    H229295   3.778   6.596   1.191  0.0457 -2.7711 -2.1114
 2554TIP3   OH229296   1.484   4.621   6.880 -0.1305  0.2599  0.3575
 2554TIP3    H129297   1.564   4.583   6.845 -0.5522  0.6779 -1.1328
 2554TIP3    H229298   1.478   4.707   6.840 -0.2789  1.0764  2.0602
 2555TIP3   OH229299   1.948   3.098   7.139 -0.2328  0.1035 -0.8820
 2555TIP3    H129300   1.916   3.188   7.131  0.1785  0.4492  0.8937
 2555TIP3    H229301   1.870   3.046   7.156 -0.2017  0.5912  1.0261
 2556TIP3   OH229302   5.173   0.942   1.071 -0.3677  0.2046  0.0581
 2556TIP3    H129303   5.237   0.880   1.107  2.0775  1.5672 -1.6877
 2556TIP3    H229304   5.153   0.908   0.984 -1.0636  0.5146  0.0893
 2557TIP3   OH229305   1.300   4.751   7.940  0.0038  0.9272  0.2477
 2557TIP3    H129306   1.320   4.759   8.033 -0.8178 -1.0546  0.6471
 2557TIP3    H229307   1.204   4.746   7.936  0.0690 -0.1678 -0.5582
 2558TIP3   OH229308   1.217   5.301   1.189 -0.5546  0.0005 -0.6080
 2558TIP3    H129309   1.169   5.363   1.134  1.7905  1.3274 -1.2726
 2558TIP3    H229310   1.222   5.221   1.135 -1.1950  0.1429 -0.8924
 2559TIP3   OH229311   1.878   1.537   0.956  0.3859  0.0710 -0.3519
 2559TIP3    H129312   1.813   1.466   0.958 -0.3256  0.6841 -0.9093
 2559TIP3    H229313   1.852   1.591   0.881  1.1993  0.6562 -0.2244
 2560TIP3   OH229314   0.110   0.134   1.375 -1.2560  0.4349 -0.2701
 2560TIP3    H129315   0.019   0.106   1.373 -1.1587  0.0844  0.1420
 2560TIP3    H229316   0.159   0.060   1.339 -1.0796  0.4123  0.0143
 2561TIP3   OH229317   3.035   2.908   1.298 -0.0078 -0.2742  0.3769
 2561TIP3    H129318   2.994   2.826   1.270 -0.2080 -0.2503  0.6030
 2561TIP3    H229319   3.071   2.888   1.384 -1.9498  0.4827  1.4267
 2562TIP3   OH229320   6.310   3.024   6.245 -0.0362 -0.4140  0.1940
 2562TIP3    H129321   6.282   3.115   6.250 -1.7867 -0.7135 -2.0824
 2562TIP3    H229322   6.230   2.974   6.262  0.9510 -1.5881  1.6865
 2563TIP3   OH229323   2.718   0.396   1.115  0.1230 -0.4562  0.1070
 2563TIP3    H129324   2.661   0.366   1.185 -1.9298  2.2608 -0.2194
 2563TIP3    H229325   2.802   0.415   1.158 -0.4758 -0.7289  1.4318
 2564TIP3   OH229326   5.466   2.146   0.850 -0.6619 -0.3503  0.0864
 2564TIP3    H129327   5.550   2.103   0.864 -0.0631  0.6811 -0.2414
 2564TIP3    H229328   5.428   2.153   0.937  0.4462  0.8614  0.4985
 2565TIP3   OH229329   1.683   4.693   8.036 -0.3600 -0.1710  0.1423
 2565TIP3    H129330   1.761   4.705   7.981 -0.5372  0.6024  0.0426
 2565TIP3    H229331   1.629   4.630   7.987  0.2289 -0.7648  0.2488
 2566TIP3   OH229332   5.415   6.844   0.762  0.2832  0.0554 -0.0914
 2566TIP3    H129333   5.363   6.787   0.818  0.5593 -0.2505 -0.1459
 2566TIP3    H229334   5.442   6.789   0.688  0.7501  0.1841 -0.0246
 2567TIP3   OH229335   4.013   5.068   6.214  0.4744  0.2324  0.5596
 2567TIP3    H129336   3.938   5.118   6.182  0.1931 -0.6991 -0.2932
 2567TIP3    H229337   3.974   4.991   6.256  0.9552 -0.5804 -0.4586
 2568TIP3   OH229338   3.653   0.642   0.438  0.3758 -0.1522  0.1037
 2568TIP3    H129339   3.647   0.589   0.517 -1.4077  1.3459  1.0731
 2568TIP3    H229340   3.624   0.729   0.465 -0.8267  0.3002 -2.2932
 2569TIP3   OH229341   6.323   3.782   6.441  0.0335  0.2079 -0.5147
 2569TIP3    H129342   6.271   3.862   6.438 -1.1125 -0.5022 -0.2961
 2569TIP3    H229343   6.404   3.804   6.396 -0.0575  1.6255 -0.0185
 2570TIP3   OH229344   5.664   4.226   7.166  0.0391  0.0171  0.0313
 2570TIP3    H129345   5.651   4.144   7.118  1.0748  0.0257 -0.2766
 2570TIP3    H229346   5.677   4.198   7.257 -0.5318 -0.0900  0.0855
 2571TIP3   OH229347   5.252   2.990   0.415  0.3718  0.1320  0.0490
 2571TIP3    H129348   5.283   2.901   0.431  2.5614  0.7433 -0.4969
 2571TIP3    H229349   5.204   3.013   0.494  2.5249 -0.4306  1.6257
 2572TIP3   OH229350   2.871   2.369   6.851  0.6695  0.4460  0.3374
 2572TIP3    H129351   2.929   2.444   6.868 -0.3819  1.1262  1.0581
 2572TIP3    H229352   2.839   2.384   6.762  0.1503  1.1127  0.6160
 2573TIP3   OH229353   2.048   5.209   7.290 -0.2270 -0.1927  0.4441
 2573TIP3    H129354   1.965   5.169   7.315  0.7387 -2.0762  0.8021
 2573TIP3    H229355   2.093   5.226   7.373  0.1968 -0.2196  0.2244
 2574TIP3   OH229356   2.665   3.264   1.627 -0.1413 -0.1120 -0.1076
 2574TIP3    H129357   2.638   3.173   1.642 -0.1022  0.0082  0.7157
 2574TIP3    H229358   2.726   3.259   1.554 -1.6071 -0.5201 -1.3720
 2575TIP3   OH229359   3.103   1.165   8.028 -0.1767 -0.0576 -0.1849
 2575TIP3    H129360   3.023   1.140   7.981  1.3569 -1.2152 -2.4285
 2575TIP3    H229361   3.118   1.093   8.089 -1.0970  0.4330  0.6459
 2576TIP3   OH229362   4.491   5.302   0.354 -0.4711 -0.1091  0.3628
 2576TIP3    H129363   4.518   5.368   0.291 -0.6150  1.2660  1.6862
 2576TIP3    H229364   4.508   5.342   0.440 -2.3672 -0.9983  1.2095
 2577TIP3   OH229365   3.851   1.918   1.169 -0.6102  0.4052  0.7147
 2577TIP3    H129366   3.920   1.971   1.208  0.4162  0.8119 -1.4993
 2577TIP3    H229367   3.854   1.939   1.076 -4.1489  0.8882  0.5698
 2578TIP3   OH229368   3.002   1.400   7.702 -0.6417  0.0168  0.1319
 2578TIP3    H129369   2.976   1.491   7.716  1.4189  0.5809  0.5863
 2578TIP3    H229370   3.007   1.390   7.607 -2.6567 -0.2233 -0.0089
 2579TIP3   OH229371   1.341   6.542   5.966 -0.3850  0.3441  0.4083
 2579TIP3    H129372   1.421   6.500   5.998 -0.9382 -0.1245  1.2093
 2579TIP3    H229373   1.372   6.606   5.902  0.5865 -0.2200  0.2911
 2580TIP3   OH229374   3.271   3.613   6.665 -0.3585 -0.2929 -0.0006
 2580TIP3    H129375   3.182   3.645   6.647 -0.8085 -0.4313  1.8499
 2580TIP3    H229376   3.317   3.626   6.582 -0.9211  3.7663  0.1058
 2581TIP3   OH229377   1.304   4.927   7.507  0.3601  0.2621 -0.4014
 2581TIP3    H129378   1.212   4.950   7.517 -0.2132 -1.5174 -1.2650
 2581TIP3    H229379   1.347   4.965   7.584 -1.2372  0.3324  0.4904
 2582TIP3   OH229380   0.019   1.993   7.611 -0.2276 -0.0567 -0.2221
 2582TIP3    H129381  -0.072   1.966   7.606 -0.6820  0.9571  1.4814
 2582TIP3    H229382   0.065   1.918   7.647 -0.1738 -0.9195 -2.0046
 2583TIP3   OH229383   3.538   1.831   1.453 -0.4325 -0.3384  0.1003
 2583TIP3    H129384   3.524   1.777   1.376 -0.1059  0.5665 -0.6081
 2583TIP3    H229385   3.588   1.775   1.513 -0.9148 -1.1347 -0.2306
 2584TIP3   OH229386   6.877   6.395   1.498 -0.2933 -0.2545  0.3127
 2584TIP3    H129387   6.785   6.373   1.512 -0.2386 -0.4653  0.3384
 2584TIP3    H229388   6.884   6.487   1.524 -0.8393  0.2432 -1.1788
 2585TIP3   OH229389   2.606   4.579   0.620 -0.1851 -0.4294  0.4132
 2585TIP3    H129390   2.584   4.498   0.573  2.1225 -0.1054 -1.4629
 2585TIP3    H229391   2.522   4.622   0.634 -1.1278 -0.6908 -3.3368
 2586TIP3   OH229392   4.380   4.293   7.359  0.2647  0.3951 -0.3575
 2586TIP3    H129393   4.433   4.238   7.302 -0.1941  0.7499 -1.1417
 2586TIP3    H229394   4.444   4.343   7.410  0.6883 -0.8868  0.4232
 2587TIP3   OH229395   6.434   5.967   1.093  0.5229 -0.6618  0.1715
 2587TIP3    H129396   6.430   6.062   1.081  2.2673 -0.7380 -1.5151
 2587TIP3    H229397   6.511   5.954   1.149  2.3105 -1.1397 -2.1920
 2588TIP3   OH229398   4.704   1.475   7.110  0.1238  1.2167 -0.2218
 2588TIP3    H129399   4.647   1.548   7.133 -0.2945  0.9639 -0.4515
 2588TIP3    H229400   4.746   1.450   7.193 -1.6304  0.0809  0.3713
 2589TIP3   OH229401   4.014   2.828   1.246  0.2898 -0.1212 -0.1278
 2589TIP3    H129402   3.933   2.873   1.271  0.1352 -1.2423  1.5233
 2589TIP3    H229403   4.079   2.898   1.239 -0.3930  0.5856  0.4110
 2590TIP3   OH229404   6.642   5.954   0.211 -0.1476  0.8478  0.5798
 2590TIP3    H129405   6.604   5.929   0.127 -0.6091  0.5485  0.8693
 2590TIP3    H229406   6.626   6.048   0.218 -0.2813  0.8370  0.4195
 2591TIP3   OH229407   6.318   1.348   7.767 -0.3659 -0.3530  0.1421
 2591TIP3    H129408   6.363   1.369   7.686 -1.1525 -1.0667 -0.5018
 2591TIP3    H229409   6.374   1.281   7.808  0.5925  0.7739  0.7498
 2592TIP3   OH229410   7.020   4.783   7.242  1.1990 -0.3008  0.4843
 2592TIP3    H129411   7.078   4.858   7.232  0.0433  0.4139 -1.3403
 2592TIP3    H229412   6.941   4.819   7.281 -0.1148 -0.0927 -2.1794
 2593TIP3   OH229413   5.633   4.624   5.651  0.4690 -0.1423 -0.3805
 2593TIP3    H129414   5.637   4.553   5.586 -0.0064 -2.1990  1.7026
 2593TIP3    H229415   5.696   4.599   5.718  0.7180  1.7593  0.1487
 2594TIP3   OH229416   3.237   0.199   6.766  0.1713  0.0437 -0.1076
 2594TIP3    H129417   3.201   0.143   6.834 -0.6549  0.5545 -0.1011
 2594TIP3    H229418   3.253   0.141   6.692  0.0288 -0.3234  0.1497
 2595TIP3   OH229419   5.137   1.197   6.045  0.1275  0.2551  0.5616
 2595TIP3    H129420   5.218   1.164   6.007  0.1248  0.7685  0.0917
 2595TIP3    H229421   5.163   1.235   6.129  0.3379  0.2270  0.5083
 2596TIP3   OH229422   2.267   6.974   1.299  0.2676 -0.0014  0.2780
 2596TIP3    H129423   2.174   6.989   1.285  0.1180  0.5862  1.7903
 2596TIP3    H229424   2.299   7.054   1.340  1.1298 -0.7677  1.1325
 2597TIP3   OH229425   4.075   0.003   0.445  0.3705  0.2192  1.1032
 2597TIP3    H129426   4.004   0.066   0.434  1.0540  1.0069  1.0582
 2597TIP3    H229427   4.041  -0.079   0.411  0.6355  1.3404 -2.1917
 2598TIP3   OH229428   1.079   6.470   5.991 -0.3323  0.1872  0.2198
 2598TIP3    H129429   1.021   6.499   5.921 -0.7477  0.0198  0.4898
 2598TIP3    H229430   1.167   6.483   5.956 -0.5246 -1.5087 -1.0285
 2599TIP3   OH229431   4.856   6.512   1.491  0.2216  0.1827  0.7790
 2599TIP3    H129432   4.930   6.456   1.514  2.9812  3.0777 -0.3643
 2599TIP3    H229433   4.894   6.582   1.440 -2.5698  4.1866  3.5812
 2600TIP3   OH229434   1.047   3.034   0.629 -0.7602 -0.4374  0.7496
 2600TIP3    H129435   1.023   2.960   0.572  1.7300  0.5198 -1.8183
 2600TIP3    H229436   0.988   3.105   0.603 -1.2217 -0.6842  1.1163
 2601TIP3   OH229437   1.437   7.090   6.103  0.1299  0.2823  0.2632
 2601TIP3    H129438   1.472   7.125   6.186  1.0521  0.2792 -0.1097
 2601TIP3    H229439   1.510   7.098   6.042 -0.3419 -0.3178 -0.3859
 2602TIP3   OH229440   1.604   5.588   6.581  0.0903 -0.2156 -0.8087
 2602TIP3    H129441   1.683   5.555   6.539  0.3363  1.6037 -1.8641
 2602TIP3    H229442   1.563   5.643   6.515 -2.8155 -2.1275 -0.8106
 2603TIP3   OH229443   3.832   5.351   7.958 -0.2232 -0.3023  0.0813
 2603TIP3    H129444   3.866   5.420   8.015  0.4679 -0.2653 -0.3607
 2603TIP3    H229445   3.743   5.378   7.938 -0.0634  0.3055  0.1628
 2604TIP3   OH229446   0.055   3.978   7.587  0.0548 -0.6171  0.6603
 2604TIP3    H129447   0.123   3.956   7.524  0.4073  2.2954 -0.1223
 2604TIP3    H229448   0.096   3.965   7.673  1.3731  0.4198  0.2062
 2605TIP3   OH229449   0.535   0.565   6.909  0.2574  0.0915  0.6794
 2605TIP3    H129450   0.456   0.512   6.898  0.0268  0.4286  0.6852
 2605TIP3    H229451   0.543   0.613   6.827  0.7504 -0.3284  0.4803
 2606TIP3   OH229452   4.033   0.431   1.304  0.3707 -0.2253 -0.4612
 2606TIP3    H129453   4.109   0.489   1.295 -0.5619  1.5606  2.0576
 2606TIP3    H229454   4.070   0.347   1.332  1.4357  0.6928  1.0444
 2607TIP3   OH229455   3.056   0.407   6.616 -0.4984  0.5933 -0.4106
 2607TIP3    H129456   3.090   0.482   6.666 -1.0866  1.0229 -0.6504
 2607TIP3    H229457   3.089   0.331   6.663  0.4785  0.9940 -0.4107
 2608TIP3   OH229458   1.956   3.800   0.224  0.2073  0.2575  0.4064
 2608TIP3    H129459   1.999   3.771   0.304  1.5050 -1.4867 -0.8353
 2608TIP3    H229460   2.025   3.841   0.173  0.3762 -1.9259 -1.3122
 2609TIP3   OH229461   3.776   2.207   1.057  0.5159 -0.0254  0.2772
 2609TIP3    H129462   3.720   2.273   1.017  0.5114  0.3132  0.8236
 2609TIP3    H229463   3.720   2.130   1.066  0.9520 -0.6465 -1.7861
 2610TIP3   OH229464   4.744   0.894   6.565 -0.1215  0.6317 -0.2682
 2610TIP3    H129465   4.802   0.961   6.601  0.4128  0.5670 -0.9654
 2610TIP3    H229466   4.778   0.812   6.600 -0.6065  0.6920  0.3657
 2611TIP3   OH229467   4.015   4.397   7.648 -0.4485 -0.5175 -0.2991
 2611TIP3    H129468   4.022   4.487   7.679 -1.4661 -0.3198 -0.6070
 2611TIP3    H229469   3.937   4.363   7.692  0.3212 -1.4698  0.3472
 2612TIP3   OH229470   4.704   6.944   6.852 -0.0024 -0.8370 -0.4389
 2612TIP3    H129471   4.742   7.011   6.909 -1.5581 -1.3096  1.2517
 2612TIP3    H229472   4.625   6.986   6.817  0.1513 -1.0708 -1.0699
 2613TIP3   OH229473   4.596   4.573   6.487  0.3578  0.1572  0.0166
 2613TIP3    H129474   4.512   4.575   6.442  1.5065 -0.2252 -2.3245
 2613TIP3    H229475   4.591   4.645   6.550 -2.1024 -0.5863  0.7847
 2614TIP3   OH229476   4.458   6.668   1.782  0.3545  0.0597  0.5755
 2614TIP3    H129477   4.551   6.652   1.765  0.1309  0.0838 -0.8434
 2614TIP3    H229478   4.449   6.764   1.781  0.2661  0.0518  0.3214
 2615TIP3   OH229479   3.130   3.672   1.092 -0.3899 -0.1895 -0.1617
 2615TIP3    H129480   3.195   3.632   1.149 -0.8886 -1.3357 -0.3820
 2615TIP3    H229481   3.051   3.620   1.104 -1.5729  1.7021  0.7674
 2616TIP3   OH229482   6.490   1.945   7.690  0.2940 -0.0593 -0.1990
 2616TIP3    H129483   6.479   2.003   7.614  0.6111 -1.6030 -1.4561
 2616TIP3    H229484   6.419   1.881   7.682 -0.1433  0.2001  1.2586
 2617TIP3   OH229485   5.754   6.339   6.669  0.5389 -0.1553  0.2054
 2617TIP3    H129486   5.839   6.318   6.630 -0.6000 -1.1659 -1.9201
 2617TIP3    H229487   5.737   6.269   6.731  0.2386 -1.3120 -1.1386
 2618TIP3   OH229488   2.088   3.376   2.034  0.1542 -0.3098 -0.0377
 2618TIP3    H129489   2.050   3.301   1.989  0.8379  0.3959 -1.8837
 2618TIP3    H229490   2.034   3.451   2.009  0.3804  0.0637  0.5464
 2619TIP3   OH229491   6.372   1.464   6.581 -0.0493 -0.0787  0.0499
 2619TIP3    H129492   6.308   1.420   6.637  1.2490 -2.7656 -0.3967
 2619TIP3    H229493   6.388   1.401   6.510  1.8714  1.2011 -0.7214
 2620TIP3   OH229494   2.591   0.560   1.561  0.2007 -0.2125  0.1097
 2620TIP3    H129495   2.516   0.524   1.513  0.3168  1.7288 -1.6603
 2620TIP3    H229496   2.567   0.550   1.653 -0.9110 -2.2951 -0.3436
 2621TIP3   OH229497   5.541   6.304   1.478 -0.0430  0.2020  0.2215
 2621TIP3    H129498   5.627   6.286   1.515  1.2156  2.6005 -1.2550
 2621TIP3    H229499   5.554   6.298   1.383 -1.3466  1.1264 -0.0490
 2622TIP3   OH229500   6.956   4.662   7.562 -0.9208 -0.7881 -0.1182
 2622TIP3    H129501   6.913   4.638   7.480  1.4741  0.3768 -1.8161
 2622TIP3    H229502   7.014   4.588   7.581 -1.0885 -0.8251  0.2569
 2623TIP3   OH229503   7.000   2.296   8.053 -0.1273  0.5746  0.3213
 2623TIP3    H129504   6.940   2.336   7.991  0.2147  0.0778 -0.3400
 2623TIP3    H229505   7.084   2.295   8.008 -0.1446 -0.9971  0.2680
 2624TIP3   OH229506   0.809   6.465   5.818  0.4065 -0.2122  0.1037
 2624TIP3    H129507   0.853   6.381   5.807 -0.4122 -0.6087 -0.2546
 2624TIP3    H229508   0.718   6.448   5.791  0.5791  1.1840 -1.5353
 2625TIP3   OH229509   5.340   2.831   1.173  0.1078 -0.3827  0.1624
 2625TIP3    H129510   5.313   2.768   1.106  1.6378 -0.3478 -0.5174
 2625TIP3    H229511   5.275   2.901   1.167 -0.3871 -0.8862 -0.5418
 2626TIP3   OH229512   3.606   3.652   0.948 -0.4501  0.0274 -0.0771
 2626TIP3    H129513   3.538   3.642   1.015 -0.6838 -1.0104 -0.4499
 2626TIP3    H229514   3.557   3.650   0.866 -0.2838  2.3100 -0.2844
 2627TIP3   OH229515   2.630   5.535   6.206  0.2644 -0.1881 -0.3331
 2627TIP3    H129516   2.677   5.489   6.276 -1.2097 -0.2227  0.6612
 2627TIP3    H229517   2.544   5.495   6.204  0.2393 -0.1161 -2.1370
 2628TIP3   OH229518   3.699   5.674   7.584 -0.3065  0.6436 -0.4037
 2628TIP3    H129519   3.617   5.664   7.535 -1.2009 -2.1024  1.4075
 2628TIP3    H229520   3.764   5.628   7.531 -0.5072  0.5658 -0.5858
 2629TIP3   OH229521   1.869   3.324   8.008 -0.4442  0.3464  0.0461
 2629TIP3    H129522   1.944   3.270   8.031  0.1473  0.7607 -0.8578
 2629TIP3    H229523   1.880   3.404   8.059 -1.6642 -0.5902  1.8834
 2630TIP3   OH229524   2.235   0.523   0.006 -0.2011  0.7914 -0.2148
 2630TIP3    H129525   2.163   0.479   0.052  0.7171 -1.3540 -0.7000
 2630TIP3    H229526   2.302   0.536   0.073  0.1814 -0.1289 -0.3998
 2631TIP3   OH229527   3.415   6.713   6.323 -0.7082 -1.2130  0.0304
 2631TIP3    H129528   3.460   6.794   6.347 -1.5748 -0.6309 -0.2728
 2631TIP3    H229529   3.485   6.650   6.308 -0.0502 -1.2240  2.6496
 2632TIP3   OH229530   2.680   6.259   1.069  0.2756 -0.0383  0.7985
 2632TIP3    H129531   2.745   6.253   1.139 -0.8188 -0.9335  1.7866
 2632TIP3    H229532   2.679   6.172   1.029  0.6033  0.3488 -0.0752
 2633TIP3   OH229533   4.790   0.428   1.709 -0.3415 -0.2192 -0.2846
 2633TIP3    H129534   4.854   0.486   1.751 -1.5104  0.9882 -0.0973
 2633TIP3    H229535   4.719   0.486   1.682 -1.2313 -1.4796 -0.7558
 2634TIP3   OH229536   1.060   0.440   1.305  0.4213  0.4506 -0.1407
 2634TIP3    H129537   1.047   0.431   1.399  0.7257  1.8653  0.0593
 2634TIP3    H229538   1.135   0.383   1.286 -0.0808 -0.3766  0.3445
 2635TIP3   OH229539   5.925   6.538   5.879 -0.0168 -0.0156  0.0589
 2635TIP3    H129540   5.854   6.541   5.814 -0.0483 -0.1569  0.0857
 2635TIP3    H229541   5.922   6.449   5.913  0.2957 -0.0747 -0.0703
 2636TIP3   OH229542   5.348   0.744   1.170 -0.2114 -0.1517 -0.2743
 2636TIP3    H129543   5.438   0.757   1.202 -1.0234 -1.0320  2.7065
 2636TIP3    H229544   5.349   0.657   1.131  0.0997 -0.4425  0.3577
 2637TIP3   OH229545   1.085   0.454   0.914 -0.5402 -0.4873  0.0244
 2637TIP3    H129546   1.120   0.543   0.920  0.7207 -0.6547 -3.1300
 2637TIP3    H229547   1.057   0.445   0.823 -1.5246 -3.0409  0.4886
 2638TIP3   OH229548   5.407   4.846   7.240 -0.6665  0.2250 -0.2817
 2638TIP3    H129549   5.482   4.806   7.283 -0.5710  1.2209  0.5053
 2638TIP3    H229550   5.398   4.932   7.281 -1.7588  0.4345 -0.9107
 2639TIP3   OH229551   4.010   5.105   8.010 -0.4360 -0.0942 -0.5433
 2639TIP3    H129552   3.967   5.076   8.090 -1.6804 -0.3960 -1.2814
 2639TIP3    H229553   3.981   5.196   8.000  0.7360  0.3524 -0.0014
 2640TIP3   OH229554   5.787   1.766   0.681  0.2395 -0.8191 -0.6355
 2640TIP3    H129555   5.746   1.796   0.600  0.1150  0.1333 -0.2408
 2640TIP3    H229556   5.880   1.781   0.669 -0.0115  3.1385  0.7923
 2641TIP3   OH229557   0.361   2.494   7.765  0.1800  0.2944  0.1495
 2641TIP3    H129558   0.282   2.540   7.736  0.2851 -0.2320 -1.0188
 2641TIP3    H229559   0.427   2.513   7.699  1.4579  1.7340  1.7394
 2642TIP3   OH229560   3.949   5.354   2.035 -0.1597  0.8947 -0.1400
 2642TIP3    H129561   3.906   5.294   2.097  2.2504 -1.1007 -0.2425
 2642TIP3    H229562   4.029   5.380   2.080  1.4712 -0.3129 -2.2041
 2643TIP3   OH229563   6.507   6.465   1.280 -0.6441  0.3844  0.1073
 2643TIP3    H129564   6.455   6.541   1.306 -0.1287  0.2794  1.5636
 2643TIP3    H229565   6.489   6.400   1.348 -0.2778 -0.4252 -0.5502
 2644TIP3   OH229566   4.636   1.658   1.279 -0.1238  0.2281  0.0671
 2644TIP3    H129567   4.633   1.697   1.366 -0.2695 -1.0662  0.6658
 2644TIP3    H229568   4.561   1.694   1.233  0.7091  1.9707 -0.0066
 2645TIP3   OH229569   2.816   5.451   1.874  0.3215  0.5680  0.4754
 2645TIP3    H129570   2.760   5.384   1.912 -0.2881  0.9729  0.2984
 2645TIP3    H229571   2.876   5.475   1.944 -0.9857  1.5257  1.3140
 2646TIP3   OH229572   0.151   4.918   7.612 -0.6232  0.2632  0.6754
 2646TIP3    H129573   0.182   4.894   7.524 -1.9847  3.9484 -0.9840
 2646TIP3    H229574   0.205   4.993   7.637 -2.0715  0.9613  1.8182
 2647TIP3   OH229575   5.885   5.096   6.926 -0.1391  0.5693 -0.2677
 2647TIP3    H129576   5.932   5.101   7.009 -1.0934  1.1361  0.2565
 2647TIP3    H229577   5.917   5.170   6.875  0.2693  0.3600 -0.3238
 2648TIP3   OH229578   0.562   4.609   6.039  0.3415  0.1215  0.2841
 2648TIP3    H129579   0.576   4.541   5.973  0.4024  0.9369 -0.5683
 2648TIP3    H229580   0.474   4.641   6.021 -1.0241 -1.9090  2.7502
 2649TIP3   OH229581   0.345   2.870   0.221 -0.2688 -0.2173  1.0458
 2649TIP3    H129582   0.289   2.793   0.229 -0.0007 -0.5017  0.2612
 2649TIP3    H229583   0.316   2.928   0.291 -0.5795 -0.9612  1.5439
 2650TIP3   OH229584   3.514   3.958   0.486  0.2391 -1.1419  0.5800
 2650TIP3    H129585   3.439   4.017   0.497  1.7281  1.0800 -0.5523
 2650TIP3    H229586   3.556   3.958   0.572  0.7344  0.2409  0.3639
 2651TIP3   OH229587   6.413   6.531   6.065  1.1145 -0.2675  0.0625
 2651TIP3    H129588   6.368   6.509   6.147  1.1374  0.9286  0.4228
 2651TIP3    H229589   6.448   6.448   6.034 -0.1850 -1.0148  0.4759
 2652TIP3   OH229590   0.891   5.616   1.967  0.0143 -0.6527  0.0167
 2652TIP3    H129591   0.921   5.618   1.876  0.2299  0.5964  0.1003
 2652TIP3    H229592   0.930   5.693   2.007 -0.5840 -0.8492  1.0141
 2653TIP3   OH229593   3.047   5.331   0.328  0.5617  0.4498 -0.3710
 2653TIP3    H129594   3.120   5.366   0.276  0.3060  0.4368 -0.7475
 2653TIP3    H229595   2.976   5.324   0.265  0.0761  0.9696  0.1121
 2654TIP3   OH229596   3.472   0.427   1.088  0.4906 -0.2682  0.2060
 2654TIP3    H129597   3.434   0.352   1.133  0.3176 -0.3572 -0.0869
 2654TIP3    H229598   3.554   0.394   1.051 -1.1474 -1.3168 -2.8727
 2655TIP3   OH229599   1.250   3.462   1.868  0.0612  0.9357 -0.1641
 2655TIP3    H129600   1.301   3.490   1.943 -1.2644  1.5630  0.5498
 2655TIP3    H229601   1.162   3.495   1.885 -2.2076 -4.7567  1.5029
 2656TIP3   OH229602   5.979   0.734   6.792  0.1397 -0.3988  0.2638
 2656TIP3    H129603   6.042   0.706   6.726  1.1815  1.0072  0.6191
 2656TIP3    H229604   6.030   0.786   6.854 -1.1299 -0.3191  1.2947
 2657TIP3   OH229605   3.725   0.170   8.117 -0.6723 -0.0841  0.4949
 2657TIP3    H129606   3.743   0.248   8.170 -1.3790  1.7158 -1.7767
 2657TIP3    H229607   3.805   0.118   8.124  0.1268  1.2000  1.4356
 2658TIP3   OH229608   1.643   4.660   5.551 -0.1595 -0.6292  0.1097
 2658TIP3    H129609   1.708   4.621   5.492  1.2977 -0.1123  1.3067
 2658TIP3    H229610   1.667   4.753   5.554 -0.4198 -0.5915  1.2357
 2659TIP3   OH229611   3.706   5.642   0.270  0.2608 -0.4717 -0.1069
 2659TIP3    H129612   3.679   5.719   0.319 -0.6902  0.2097 -1.6338
 2659TIP3    H229613   3.789   5.616   0.311  0.8454  1.6202  0.1684
 2660TIP3   OH229614   1.860   5.586   7.862  0.4362  0.0754 -0.4514
 2660TIP3    H129615   1.840   5.612   7.952  1.2428  0.8560 -0.4688
 2660TIP3    H229616   1.817   5.652   7.808  0.7410  0.1703 -0.5862
 2661TIP3   OH229617   3.160   1.424   6.244 -0.3250  0.4357  0.3764
 2661TIP3    H129618   3.199   1.428   6.157 -1.6617  2.0928 -0.1968
 2661TIP3    H229619   3.126   1.335   6.252 -0.0387  0.2231 -0.7262
 2662TIP3   OH229620   1.154   1.006   0.073  0.7186  0.1229  0.0162
 2662TIP3    H129621   1.101   1.070   0.025  0.1903 -1.1326 -1.1435
 2662TIP3    H229622   1.244   1.036   0.064  0.3365  1.6477  1.0026
 2663TIP3   OH229623   2.695   4.587   2.192 -0.1775 -0.1163 -0.6353
 2663TIP3    H129624   2.602   4.597   2.172  0.0771  0.5933 -1.5080
 2663TIP3    H229625   2.739   4.594   2.108  0.7124  0.0737 -0.1717
 2664TIP3   OH229626   6.154   1.404   6.777  0.2794  0.1093 -0.0662
 2664TIP3    H129627   6.194   1.367   6.856 -1.9779 -2.1971  0.1250
 2664TIP3    H229628   6.122   1.490   6.805 -0.7833 -0.7958  1.7148
 2665TIP3   OH229629   2.034   2.683   1.913  0.1856 -0.1350 -0.1837
 2665TIP3    H129630   2.023   2.761   1.857  0.7452 -0.1404 -0.3014
 2665TIP3    H229631   2.091   2.713   1.984 -1.4250  0.1936  1.0328
 2666TIP3   OH229632   2.556   5.593   7.178 -0.6767  0.0392 -0.1067
 2666TIP3    H129633   2.533   5.644   7.101 -0.3960  1.7462  0.8895
 2666TIP3    H229634   2.642   5.556   7.157 -0.7060  0.2960 -0.6997
 2667TIP3   OH229635   2.889   3.427   1.217  0.2564 -0.1812 -0.5780
 2667TIP3    H129636   2.802   3.397   1.245  0.0014 -0.0053 -1.1714
 2667TIP3    H229637   2.939   3.346   1.205 -0.3286 -0.3752 -1.8455
 2668TIP3   OH229638   0.747   3.428   0.421  0.2268 -0.5269  0.4598
 2668TIP3    H129639   0.653   3.431   0.440  0.4357 -0.0454  1.5054
 2668TIP3    H229640   0.785   3.493   0.480  1.2279 -0.7758  0.1061
 2669TIP3   OH229641   7.052   4.935   1.117  0.2080  0.0820  0.2088
 2669TIP3    H129642   6.998   4.907   1.190  1.1890 -0.5428  0.7124
 2669TIP3    H229643   7.088   5.020   1.144  0.1352  0.1124  0.2112
 2670TIP3   OH229644   1.797   0.663   0.316  0.1039  0.4367  0.1961
 2670TIP3    H129645   1.889   0.669   0.343  0.3783 -0.3136 -0.5585
 2670TIP3    H229646   1.770   0.575   0.343 -0.1133  0.3029 -0.4520
 2671TIP3   OH229647   1.437   4.596   5.724  0.2443  1.0277 -0.8910
 2671TIP3    H129648   1.516   4.584   5.671  1.3448  2.4633  0.3513
 2671TIP3    H229649   1.448   4.535   5.797 -0.5704  0.1038 -1.5232
 2672TIP3   OH229650   6.085   5.927   1.784  0.5038 -0.2234  0.1950
 2672TIP3    H129651   6.030   5.928   1.862  0.6294  2.8938  0.3903
 2672TIP3    H229652   6.027   5.902   1.713 -0.7169  1.0185  0.7042
 2673TIP3   OH229653   2.773   0.479   1.373 -0.4698  0.0917 -0.3601
 2673TIP3    H129654   2.853   0.486   1.427 -1.8343 -0.9138  1.9622
 2673TIP3    H229655   2.702   0.505   1.432 -1.7324  4.3121 -3.2887
 2674TIP3   OH229656   0.828   0.168   8.062  0.5358 -0.5298 -0.4836
 2674TIP3    H129657   0.900   0.197   8.006  1.6123 -0.6812  0.7723
 2674TIP3    H229658   0.821   0.236   8.130  0.3892 -1.1750  0.1623
 2675TIP3   OH229659   0.243   1.017   7.757 -0.3937 -0.2916 -0.2094
 2675TIP3    H129660   0.207   1.004   7.669  1.0664 -0.6906 -0.7847
 2675TIP3    H229661   0.338   1.026   7.743 -0.3532  2.3566  1.0385
 2676TIP3   OH229662   6.802   3.783   6.396  0.3616  0.3944  0.1558
 2676TIP3    H129663   6.769   3.804   6.308  1.5190 -0.4608 -0.5187
 2676TIP3    H229664   6.860   3.855   6.418  1.4160 -0.2094 -0.5513
 2677TIP3   OH229665   5.129   1.110   6.860  0.6793 -0.5209 -0.2340
 2677TIP3    H129666   5.209   1.080   6.903  0.2949 -1.2915 -0.0337
 2677TIP3    H229667   5.140   1.205   6.852  0.8893 -0.3832  1.3373
 2678TIP3   OH229668   0.914   5.526   0.584 -0.1695 -0.4312  0.0924
 2678TIP3    H129669   0.918   5.452   0.645  0.1612  0.2467  0.9034
 2678TIP3    H229670   0.896   5.602   0.639 -2.0446 -0.0949 -0.8962
 2679TIP3   OH229671   3.742   4.319   0.081  0.2395  0.2450  0.1440
 2679TIP3    H129672   3.656   4.326   0.039 -0.6200 -1.4272  1.4861
 2679TIP3    H229673   3.802   4.300   0.009 -0.9869 -1.2546 -0.5486
 2680TIP3   OH229674   0.753   0.787   0.230  0.1195 -0.0547  0.1464
 2680TIP3    H129675   0.835   0.835   0.236 -0.3601  0.9305 -0.7528
 2680TIP3    H229676   0.755   0.725   0.303  0.5481  1.6900  1.6943
 2681TIP3   OH229677   6.454   6.107   0.416  0.1583 -0.2629 -0.5733
 2681TIP3    H129678   6.532   6.133   0.366  0.1148  1.5428  0.2404
 2681TIP3    H229679   6.488   6.057   0.490  0.3767 -0.9910 -1.1403
 2682TIP3   OH229680   1.938   0.972   0.195  0.0198 -0.2277 -0.1357
 2682TIP3    H129681   2.017   0.978   0.250  0.7384 -1.5611 -0.9787
 2682TIP3    H229682   1.970   0.979   0.106 -0.9523  0.2646 -0.4558
 2683TIP3   OH229683   3.894   2.599   7.456  0.0827 -0.6925 -0.2626
 2683TIP3    H129684   3.960   2.620   7.522 -0.4717  0.1996  0.0205
 2683TIP3    H229685   3.815   2.644   7.486 -0.4829 -1.2088 -0.9428
 2684TIP3   OH229686   4.591   4.076   7.299 -0.4755  0.0145  0.1413
 2684TIP3    H129687   4.656   4.129   7.253 -1.0340  0.5634 -0.0319
 2684TIP3    H229688   4.639   4.038   7.372  0.1384  0.0803 -0.2147
 2685TIP3   OH229689   0.293   2.039   0.014  0.6002 -0.8184  0.9552
 2685TIP3    H129690   0.362   2.064   0.076 -0.7397  0.8035  1.8783
 2685TIP3    H229691   0.237   1.979   0.064 -0.8654  1.0203  1.6282
 2686TIP3   OH229692   0.319   0.302   0.032 -0.1948  0.2792 -0.2206
 2686TIP3    H129693   0.261   0.253  -0.026 -1.6246  0.8796  0.6332
 2686TIP3    H229694   0.268   0.379   0.057  1.4247  1.4364 -0.3400
 2687TIP3   OH229695   2.066   1.108   7.791  0.5066 -0.0548  0.0905
 2687TIP3    H129696   2.060   1.162   7.712 -2.1209  1.2724  1.0811
 2687TIP3    H229697   2.039   1.166   7.862  1.6113 -1.5514  1.8269
 2688TIP3   OH229698   4.616   5.377   1.289 -0.0698  0.4258  0.1981
 2688TIP3    H129699   4.524   5.402   1.281  0.4062  2.5786  0.7895
 2688TIP3    H229700   4.643   5.415   1.372  1.9404  1.9135 -1.0561
 2689TIP3   OH229701   3.967   4.991   7.118 -0.0112 -0.3036 -0.5371
 2689TIP3    H129702   3.883   5.035   7.135  0.4641 -0.5178  3.2263
 2689TIP3    H229703   3.985   4.942   7.199  5.4234  2.6696  0.5230
 2690TIP3   OH229704   3.364   3.591   0.183  0.2345  0.6913 -0.0728
 2690TIP3    H129705   3.425   3.531   0.225 -0.9806  0.8204  2.0123
 2690TIP3    H229706   3.317   3.538   0.119  0.6758 -0.0620  0.2213
 2691TIP3   OH229707   1.013   4.232   7.595 -0.0255 -0.1432  0.5640
 2691TIP3    H129708   1.061   4.244   7.513  1.0959 -1.0377  1.0472
 2691TIP3    H229709   1.014   4.318   7.637  0.2658  0.0936  0.0776
 2692TIP3   OH229710   1.417   0.703   6.350 -0.8020 -0.1105  0.2533
 2692TIP3    H129711   1.448   0.767   6.286 -1.8685 -0.5500 -0.7422
 2692TIP3    H229712   1.496   0.677   6.398  0.0468  0.1794 -0.9351
 2693TIP3   OH229713   5.923   5.575   0.158  0.3703  0.1535 -0.3518
 2693TIP3    H129714   5.841   5.544   0.197 -0.0671  1.7935  0.1060
 2693TIP3    H229715   5.942   5.657   0.204  0.4956  1.5218 -2.7000
 2694TIP3   OH229716   3.171   0.406   7.104  0.1476  0.5409  0.3537
 2694TIP3    H129717   3.262   0.396   7.131 -0.3922 -0.7624  1.8767
 2694TIP3    H229718   3.127   0.442   7.181 -0.9972 -0.9508  0.4507
 2695TIP3   OH229719   0.944   6.799   7.649  0.2837 -0.5347 -0.0356
 2695TIP3    H129720   0.991   6.811   7.731  0.0656  1.1775 -0.1349
 2695TIP3    H229721   0.854   6.781   7.675  0.3434 -0.6337  0.1035
 2696TIP3   OH229722   2.856   4.668   0.587 -0.5032 -0.1192  0.1353
 2696TIP3    H129723   2.777   4.614   0.582 -2.2956  1.9305  3.1853
 2696TIP3    H229724   2.928   4.606   0.575 -2.5029 -2.3831 -0.9367
 2697TIP3   OH229725   5.548   4.582   0.504  0.1354  0.1831  0.6560
 2697TIP3    H129726   5.535   4.677   0.500 -0.7057  0.0400 -1.3194
 2697TIP3    H229727   5.586   4.560   0.419  0.3820 -1.2568  1.1173
 2698TIP3   OH229728   3.347   6.172   7.805 -0.4566 -0.3480 -0.5708
 2698TIP3    H129729   3.433   6.159   7.765 -0.4798 -0.9767 -0.4284
 2698TIP3    H229730   3.362   6.155   7.899 -0.9045 -1.3054 -0.6643
 2699TIP3   OH229731   4.199   1.792   5.971 -0.0218  0.0544  0.0605
 2699TIP3    H129732   4.275   1.847   5.994 -0.3885  1.3627 -1.6427
 2699TIP3    H229733   4.154   1.841   5.902 -1.2671 -1.6906 -0.4374
 2700TIP3   OH229734   3.658   3.382   7.677  0.0545  0.5028  0.2697
 2700TIP3    H129735   3.638   3.467   7.638 -0.0372 -0.3144 -1.5296
 2700TIP3    H229736   3.737   3.397   7.729  0.6321  1.4774 -0.8456
 2701TIP3   OH229737   4.353   6.233   0.811 -0.0939 -0.0870  0.0380
 2701TIP3    H129738   4.389   6.276   0.733  0.2639 -1.6252 -0.6778
 2701TIP3    H229739   4.295   6.299   0.849  0.4737  1.0494 -0.9752
 2702TIP3   OH229740   4.294   3.895   7.366 -0.0414 -0.2076 -0.1623
 2702TIP3    H129741   4.290   3.957   7.439 -1.2724 -0.5873  0.1165
 2702TIP3    H229742   4.202   3.879   7.343  0.2150 -2.2754  0.0690
 2703TIP3   OH229743   6.818   0.271   8.117 -0.1448 -0.3579 -0.0458
 2703TIP3    H129744   6.731   0.297   8.087 -0.3813  1.4078  1.9995
 2703TIP3    H229745   6.804   0.186   8.159 -0.6794 -0.5267 -0.5468
 2704TIP3   OH229746   4.074   1.377   7.470 -0.2548  0.0490 -0.0412
 2704TIP3    H129747   3.992   1.329   7.484 -0.6487  1.2810  2.6172
 2704TIP3    H229748   4.047   1.460   7.431 -0.1877  0.1044  0.0285
 2705TIP3   OH229749   2.455   2.500   7.382 -0.1905 -0.2552 -0.0640
 2705TIP3    H129750   2.381   2.559   7.392  0.8663  0.9941  0.5739
 2705TIP3    H229751   2.502   2.504   7.465  0.9840 -0.4618 -0.6812
 2706TIP3   OH229752   4.981   6.833   1.009  0.1251  0.2937 -0.2257
 2706TIP3    H129753   5.021   6.896   1.069  1.1824  0.0473 -0.6441
 2706TIP3    H229754   4.887   6.844   1.022  0.3056 -0.5114  2.2764
 2707TIP3   OH229755   0.194   3.120   7.342 -0.1513  0.1426  0.0638
 2707TIP3    H129756   0.181   3.214   7.349 -1.4144 -0.0780  0.8860
 2707TIP3    H229757   0.206   3.090   7.432 -0.7398 -0.6158 -0.0987
 2708TIP3   OH229758   5.476   5.327   6.266 -0.0685 -0.5603 -0.0725
 2708TIP3    H129759   5.434   5.406   6.301 -0.8484 -0.7281 -0.6177
 2708TIP3    H229760   5.451   5.325   6.174 -0.5895 -1.7905  0.0863
 2709TIP3   OH229761   3.541   0.274   6.302 -0.3523  0.0293  0.1538
 2709TIP3    H129762   3.601   0.333   6.348 -0.1970 -1.6612  2.3049
 2709TIP3    H229763   3.558   0.290   6.209  2.1462  0.9115  0.6788
 2710TIP3   OH229764   2.051   0.464   7.016  0.1803 -0.8241 -0.5153
 2710TIP3    H129765   1.967   0.503   6.992 -0.1076 -1.8273 -1.2005
 2710TIP3    H229766   2.105   0.473   6.937  0.3463 -1.1554 -0.4417
 2711TIP3   OH229767   6.064   2.309   0.836  0.3727  0.5999  0.0546
 2711TIP3    H129768   5.976   2.304   0.874  0.7266 -1.7927  0.7292
 2711TIP3    H229769   6.067   2.237   0.773  1.5500  1.2614 -0.6759
 2712TIP3   OH229770   1.620   6.038   7.411  0.2623  0.6555  0.1450
 2712TIP3    H129771   1.575   5.953   7.413 -0.3249  0.9009 -1.4520
 2712TIP3    H229772   1.619   6.063   7.319  1.2993  1.9538  0.4656
 2713TIP3   OH229773   2.180   3.387   7.704  0.0204  0.2323  0.5220
 2713TIP3    H129774   2.168   3.473   7.743 -1.3393  0.1075  0.4401
 2713TIP3    H229775   2.236   3.402   7.628 -0.4262  1.0962  0.3572
 2714TIP3   OH229776   1.897   1.806   1.710 -0.4527 -0.2137 -1.0045
 2714TIP3    H129777   1.837   1.736   1.686 -0.7249 -0.8487  1.3017
 2714TIP3    H229778   1.984   1.771   1.692 -0.5975 -1.0750 -0.1203
 2715TIP3   OH229779   3.404   6.269   7.057 -0.7102  0.4370  0.4286
 2715TIP3    H129780   3.481   6.326   7.062 -0.3637 -0.0945  1.3989
 2715TIP3    H229781   3.431   6.188   7.099 -1.8977  0.3602  1.0938
 2716TIP3   OH229782   6.088   5.646   0.568  0.3803 -0.4254  0.0478
 2716TIP3    H129783   6.052   5.569   0.525  0.0842  0.2307 -0.9109
 2716TIP3    H229784   6.012   5.700   0.590  0.6953  0.7498 -1.5668
 2717TIP3   OH229785   4.770   4.369   6.040 -0.3818 -0.2975 -0.4105
 2717TIP3    H129786   4.810   4.282   6.045 -0.0889 -0.0955  2.4318
 2717TIP3    H229787   4.844   4.429   6.044 -0.7034  0.0817 -0.1279
 2718TIP3   OH229788   1.119   5.211   0.437 -0.0004  0.6792  0.0627
 2718TIP3    H129789   1.148   5.265   0.363  0.9133  1.7507  1.1636
 2718TIP3    H229790   1.200   5.170   0.469 -0.0596  1.6043  1.5218
 2719TIP3   OH229791   0.045   5.854   5.926 -0.5799 -0.4058 -0.2073
 2719TIP3    H129792   0.043   5.764   5.960 -1.3575  0.2315  1.5361
 2719TIP3    H229793   0.001   5.848   5.841  1.0813 -1.9798 -1.0442
 2720TIP3   OH229794   4.611   0.065   7.414 -0.0235 -0.0331 -0.1269
 2720TIP3    H129795   4.560  -0.002   7.370 -0.9532  0.4900  0.1178
 2720TIP3    H229796   4.555   0.143   7.412  1.0809  0.7748 -0.5233
 2721TIP3   OH229797   1.912   2.742   0.093  0.0575 -0.3079  0.0516
 2721TIP3    H129798   1.966   2.758   0.016 -0.8035  1.8483 -0.1776
 2721TIP3    H229799   1.823   2.764   0.064 -0.2397  0.8088  1.6981
 2722TIP3   OH229800   0.884   4.616   7.114  0.1724 -0.2990  0.3737
 2722TIP3    H129801   0.796   4.648   7.094 -0.0088 -0.9564  0.0731
 2722TIP3    H229802   0.878   4.585   7.204  0.1341 -0.2038  0.4037
 2723TIP3   OH229803   2.320   4.542   6.701  0.1142  0.0130 -0.0865
 2723TIP3    H129804   2.337   4.602   6.629 -0.3031 -0.0072 -0.2083
 2723TIP3    H229805   2.280   4.597   6.769 -2.5333 -0.4967 -1.0943
 2724TIP3   OH229806   3.255   1.263   1.415  0.5077 -0.1384  0.3593
 2724TIP3    H129807   3.217   1.177   1.435 -1.0217  0.5210  0.3883
 2724TIP3    H229808   3.207   1.293   1.338  2.0329  0.0861 -0.5451
 2725TIP3   OH229809   6.587   3.441   1.642 -0.6894  0.3174 -0.1250
 2725TIP3    H129810   6.623   3.389   1.570  1.3367 -0.3600  1.2722
 2725TIP3    H229811   6.562   3.376   1.708  0.0086  1.0228  0.8538
 2726TIP3   OH229812   4.392   4.774   5.906  0.8443 -0.6565  0.0360
 2726TIP3    H129813   4.388   4.813   5.993 -0.2748  0.0764 -0.3209
 2726TIP3    H229814   4.418   4.683   5.921  1.4202 -0.3452  1.0576
 2727TIP3   OH229815   0.370   4.127   7.344  0.4059 -0.7031  0.4061
 2727TIP3    H129816   0.329   4.162   7.265 -1.9656 -0.2248  1.7648
 2727TIP3    H229817   0.299   4.082   7.390  1.4168 -0.0019  2.8028
 2728TIP3   OH229818   1.206   2.052   6.950 -0.5513 -0.1776  0.7619
 2728TIP3    H129819   1.184   2.144   6.966 -2.2155 -0.0779 -1.6565
 2728TIP3    H229820   1.132   2.002   6.983  0.4187 -0.7101  2.2185
 2729TIP3   OH229821   0.317   4.163   1.542 -0.3779 -0.2623  0.1076
 2729TIP3    H129822   0.238   4.160   1.597 -0.1011  0.3862  0.5497
 2729TIP3    H229823   0.295   4.109   1.466 -1.6623  0.8087 -0.3216
 2730TIP3   OH229824   0.563   6.016   1.308 -0.1669 -0.2279  0.4585
 2730TIP3    H129825   0.575   6.107   1.334 -2.7391  0.3807 -0.1954
 2730TIP3    H229826   0.526   5.973   1.385 -1.9071  0.0954 -0.1386
 2731TIP3   OH229827   1.458   6.512   7.144  0.0629  0.0757 -0.0286
 2731TIP3    H129828   1.384   6.537   7.089 -0.9066  3.0264  2.3180
 2731TIP3    H229829   1.527   6.574   7.122  1.8080 -2.3300 -1.8282
 2732TIP3   OH229830   3.455   6.403   6.022 -0.0441 -0.0355  0.2141
 2732TIP3    H129831   3.412   6.343   6.082 -1.1688  0.0142 -0.5156
 2732TIP3    H229832   3.474   6.350   5.944  0.5378  0.1361  0.2276
 2733TIP3   OH229833   0.648   5.902   0.001 -0.2522 -0.1762  0.4422
 2733TIP3    H129834   0.613   5.813  -0.005  1.5362 -0.8133 -2.6858
 2733TIP3    H229835   0.722   5.895   0.062  0.9365 -1.3337 -1.0426
 2734TIP3   OH229836   1.764   3.010   0.032 -0.0629 -0.0344 -0.2459
 2734TIP3    H129837   1.740   2.983  -0.057  0.7247 -1.6402 -0.0032
 2734TIP3    H229838   1.823   3.084   0.018  0.0260 -0.2447 -1.0696
 2735TIP3   OH229839   2.435   0.580   0.248  0.4582 -0.3557 -0.0158
 2735TIP3    H129840   2.505   0.640   0.226  0.3367  0.4901  1.7225
 2735TIP3    H229841   2.479   0.498   0.271  0.8739  0.1108  0.8753
 2736TIP3   OH229842   5.619   6.247   0.719  0.4791 -0.1063  0.1494
 2736TIP3    H129843   5.660   6.237   0.633  0.9339  1.6450  0.1302
 2736TIP3    H229844   5.693   6.260   0.779  0.1609 -1.2547  0.8215
 2737TIP3   OH229845   3.755   2.366   7.471  0.2773 -0.2242 -0.4906
 2737TIP3    H129846   3.730   2.393   7.383  2.8158  1.8231 -0.7042
 2737TIP3    H229847   3.832   2.419   7.492 -0.0589 -0.8275  2.8801
 2738TIP3   OH229848   6.863   2.070   1.273 -0.2469 -0.1635 -0.1972
 2738TIP3    H129849   6.932   2.023   1.319  0.0131 -0.1543 -0.5714
 2738TIP3    H229850   6.794   2.082   1.338 -0.2214 -0.8633 -0.0360
 2739TIP3   OH229851   5.518   0.207   0.698  0.1892  0.2128  0.1397
 2739TIP3    H129852   5.605   0.187   0.666  0.7453  0.4643  1.4248
 2739TIP3    H229853   5.466   0.129   0.679  0.5261  0.2938 -1.1825
 2740TIP3   OH229854   5.684   7.001   0.440 -0.1020 -0.7856  0.0346
 2740TIP3    H129855   5.654   7.046   0.519  1.0306 -0.7042  0.4374
 2740TIP3    H229856   5.746   7.062   0.400 -1.5106 -0.3074 -1.5780
 2741TIP3   OH229857   6.399   3.592   6.847  0.3404  0.1130  0.1777
 2741TIP3    H129858   6.332   3.529   6.821  1.0918 -0.0537 -1.5350
 2741TIP3    H229859   6.477   3.539   6.865  0.8687  0.4859 -0.9058
 2742TIP3   OH229860   2.009   5.741   6.805  0.3724  0.0537 -0.4797
 2742TIP3    H129861   2.016   5.804   6.734 -1.3961 -0.9709 -1.6474
 2742TIP3    H229862   2.099   5.727   6.834  0.9656  1.7443 -1.3788
 2743TIP3   OH229863   0.455   3.840   1.102  0.1034  0.3591 -0.3338
 2743TIP3    H129864   0.521   3.785   1.060 -1.3641 -1.0920 -0.8386
 2743TIP3    H229865   0.478   3.838   1.195  2.4644  2.3370 -0.7747
 2744TIP3   OH229866   5.199   1.494   6.076 -0.0558 -0.1215 -0.1035
 2744TIP3    H129867   5.231   1.414   6.117 -0.3122  0.5085  1.4054
 2744TIP3    H229868   5.255   1.507   6.000 -0.0128 -1.7177 -0.3780
 2745TIP3   OH229869   6.719   6.753   6.889  0.0116 -0.5400 -0.2193
 2745TIP3    H129870   6.717   6.668   6.933  0.0167 -0.5609 -0.2586
 2745TIP3    H229871   6.638   6.796   6.917 -0.0744 -0.6257 -0.3298
 2746TIP3   OH229872   1.272   4.610   7.382  0.0484 -0.1301  0.4096
 2746TIP3    H129873   1.265   4.623   7.476 -1.1352  1.6187  0.1369
 2746TIP3    H229874   1.278   4.516   7.371  1.4716 -0.3297  2.2798
 2747TIP3   OH229875   2.282   1.982   7.924  0.3730  0.5586 -0.4007
 2747TIP3    H129876   2.232   2.038   7.982  0.1104 -1.2071  1.1757
 2747TIP3    H229877   2.232   1.980   7.842 -0.8291  0.7763  0.3138
 2748TIP3   OH229878   2.396   5.168   1.403  0.4769 -0.1777  0.5973
 2748TIP3    H129879   2.327   5.132   1.457  0.1726 -0.1278  0.2464
 2748TIP3    H229880   2.383   5.128   1.317  0.8638 -0.1474  0.5196
 2749TIP3   OH229881   3.710   4.164   7.517  0.1836 -0.1603 -0.0105
 2749TIP3    H129882   3.801   4.143   7.497  0.6101 -0.7943  2.2652
 2749TIP3    H229883   3.671   4.081   7.543 -1.6232 -0.2614 -2.6096
 2750TIP3   OH229884   6.736   4.879   1.707  0.4252 -0.1285 -0.5219
 2750TIP3    H129885   6.711   4.855   1.797  1.3271  1.1344  0.0847
 2750TIP3    H229886   6.710   4.803   1.655  0.8638 -1.3519  0.9573
 2751TIP3   OH229887   2.381   7.112   7.745 -0.1100 -0.1448  0.1863
 2751TIP3    H129888   2.416   7.163   7.672 -2.2662 -0.1832 -0.9555
 2751TIP3    H229889   2.337   7.176   7.801 -1.1664 -0.4567 -0.2458
 2752TIP3   OH229890   3.994   2.851   1.767  0.7897 -0.1896  0.1352
 2752TIP3    H129891   4.071   2.813   1.726  0.9299 -0.4988  0.6800
 2752TIP3    H229892   4.028   2.903   1.840  0.6990  1.8818 -1.2231
 2753TIP3   OH229893   3.059   3.227   0.484 -0.4293  0.3000  0.0840
 2753TIP3    H129894   3.020   3.282   0.552  0.1633  0.9282 -0.0616
 2753TIP3    H229895   2.992   3.162   0.463 -0.3003 -0.4516  1.8630
 2754TIP3   OH229896   3.141   0.536   0.393  0.4030  0.1513 -0.5660
 2754TIP3    H129897   3.049   0.562   0.388  0.5744  1.0354  0.5303
 2754TIP3    H229898   3.184   0.608   0.440  2.2057  1.1499 -3.4661
 2755TIP3   OH229899   4.505   3.428   7.083 -0.1560  0.6642  0.2427
 2755TIP3    H129900   4.497   3.441   7.178  2.0749 -0.2853  0.6395
 2755TIP3    H229901   4.521   3.334   7.074  0.4403  0.8674 -1.0047
 2756TIP3   OH229902   2.321   0.594   7.897  0.0663  0.4619  0.0375
 2756TIP3    H129903   2.295   0.686   7.895 -1.4093  0.0676 -0.3115
 2756TIP3    H229904   2.277   0.559   7.974 -0.1036 -0.1432 -0.3318
 2757TIP3   OH229905   0.895   6.335   7.532  0.0547  0.1159 -0.1418
 2757TIP3    H129906   0.944   6.256   7.556  0.0924  0.0227 -0.5064
 2757TIP3    H229907   0.804   6.309   7.540  0.0646  0.1899  0.2242
 2758TIP3   OH229908   2.464   0.723   8.123  0.1593  0.0242 -0.1240
 2758TIP3    H129909   2.552   0.719   8.159  0.4606  0.4401 -0.7972
 2758TIP3    H229910   2.448   0.634   8.089  0.3904  0.0026 -0.1747
 2759TIP3   OH229911   0.478   4.280   1.755  0.6890 -0.1888  0.1969
 2759TIP3    H129912   0.572   4.261   1.748  0.8491  0.6054  0.1657
 2759TIP3    H229913   0.444   4.260   1.668  1.6364  3.8150 -1.3312
 2760TIP3   OH229914   4.813   3.055   7.636  0.1457 -0.2896 -0.0257
 2760TIP3    H129915   4.786   3.116   7.705  0.9303 -0.1130  0.1380
 2760TIP3    H229916   4.860   2.986   7.683 -0.7740 -1.0596 -0.2030
 2761TIP3   OH229917   5.459   6.727   6.671  0.3542 -0.1135 -0.0516
 2761TIP3    H129918   5.468   6.733   6.576  0.4587 -0.0972 -0.0408
 2761TIP3    H229919   5.532   6.779   6.706 -0.6783  1.3278  0.0382
 2762TIP3   OH229920   1.284   3.986   0.283  0.6384  0.6170 -0.1257
 2762TIP3    H129921   1.240   4.041   0.218  0.9727  0.4944 -0.4559
 2762TIP3    H229922   1.365   3.957   0.240  0.8479  0.5117  0.3309
 2763TIP3   OH229923   4.578   4.044   6.072 -0.3470  0.2835  0.3247
 2763TIP3    H129924   4.520   4.020   5.999 -0.0297  1.5399 -0.3808
 2763TIP3    H229925   4.655   3.988   6.061  0.4709  1.6526 -1.4013
 2764TIP3   OH229926   6.412   1.781   0.331  0.2100  0.1867 -0.2546
 2764TIP3    H129927   6.452   1.868   0.329  0.5356  0.0409 -2.0916
 2764TIP3    H229928   6.415   1.751   0.240  1.3319 -2.2968  0.5007
 2765TIP3   OH229929   6.640   4.043   0.057 -0.3694 -0.1364 -0.7285
 2765TIP3    H129930   6.687   4.119   0.024  0.7946 -0.1891  0.6995
 2765TIP3    H229931   6.622   3.989  -0.020  1.2403  0.2615 -1.4081
 2766TIP3   OH229932   2.661   3.604   7.549  0.2996 -0.4498 -0.3056
 2766TIP3    H129933   2.581   3.657   7.558  1.0389  0.5500  0.6720
 2766TIP3    H229934   2.728   3.666   7.521  1.2821 -0.7555  1.2292
 2767TIP3   OH229935   2.414   6.791   1.914 -0.4270 -0.2339 -0.1146
 2767TIP3    H129936   2.508   6.771   1.922 -0.4795 -0.8181 -0.9100
 2767TIP3    H229937   2.411   6.887   1.910  0.0076 -0.1188  1.3787
 2768TIP3   OH229938   3.492   3.246   6.785 -0.1170  0.2020 -0.7965
 2768TIP3    H129939   3.506   3.326   6.835 -0.5237 -0.6170  0.6910
 2768TIP3    H229940   3.415   3.264   6.731 -0.8962  0.4327  0.3781
 2769TIP3   OH229941   4.091   4.717   6.319  0.0700 -0.3424  0.1591
 2769TIP3    H129942   4.028   4.786   6.341 -1.1332 -1.9254  2.1227
 2769TIP3    H229943   4.072   4.695   6.228 -0.8170  0.6119  0.0944
 2770TIP3   OH229944   0.697   1.832   0.852 -0.2055  0.0192  0.0115
 2770TIP3    H129945   0.615   1.841   0.804 -0.2575 -1.7416 -0.2823
 2770TIP3    H229946   0.718   1.921   0.880 -0.6804  0.9713 -2.4233
 2771TIP3   OH229947   1.172   5.565   0.916  0.2824 -0.2369 -0.5759
 2771TIP3    H129948   1.105   5.516   0.964 -2.1026  1.9065 -1.5319
 2771TIP3    H229949   1.158   5.540   0.824  3.0028 -2.1983 -0.5692
 2772TIP3   OH229950   2.726   0.845   1.003 -0.4254 -0.5428  0.2748
 2772TIP3    H129951   2.694   0.816   1.088  1.0167  0.3714  1.1632
 2772TIP3    H229952   2.777   0.924   1.022  0.5886 -0.7641 -1.3402
 2773TIP3   OH229953   3.682   4.777   0.389  0.2734  0.4119 -0.2019
 2773TIP3    H129954   3.656   4.735   0.471 -2.3384  1.8998 -0.1485
 2773TIP3    H229955   3.629   4.734   0.322 -0.9242  2.1182 -0.4178
 2774TIP3   OH229956   4.924   5.978   7.318  0.3799  0.0869 -0.1575
 2774TIP3    H129957   4.876   6.013   7.392 -0.2032 -0.3625 -0.3141
 2774TIP3    H229958   4.895   5.887   7.311 -0.6890  0.5126 -1.8136
 2775TIP3   OH229959   5.515   6.550   0.214  0.0799  0.2780 -0.4992
 2775TIP3    H129960   5.517   6.484   0.145  1.6559 -0.6336  0.3424
 2775TIP3    H229961   5.580   6.614   0.187 -0.6939  0.9446 -0.7969
 2776TIP3   OH229962   6.876   6.630   0.246  0.2650 -0.1622  0.4999
 2776TIP3    H129963   6.964   6.594   0.257  0.4071  0.4723  1.7263
 2776TIP3    H229964   6.824   6.586   0.314  0.3838  1.6460  1.8531
 2777TIP3   OH229965   5.600   4.794   7.688 -0.4065 -0.1652  0.1509
 2777TIP3    H129966   5.601   4.818   7.596 -0.2651  0.2879  0.2666
 2777TIP3    H229967   5.534   4.726   7.695  0.7560 -1.4032 -0.5755
 2778TIP3   OH229968   2.486   1.002   0.311  0.1506 -0.2008 -0.1755
 2778TIP3    H129969   2.468   1.076   0.369 -0.5914 -0.8855  0.4937
 2778TIP3    H229970   2.556   1.033   0.253  0.0575  0.9133  0.2873
 2779TIP3   OH229971   0.024   0.887   7.587  0.1111  0.1931  0.2036
 2779TIP3    H129972   0.063   0.957   7.536 -0.6523  2.2906  2.3071
 2779TIP3    H229973  -0.001   0.820   7.523  3.0661  0.7064 -1.6271
 2780TIP3   OH229974   1.761   4.192   6.547 -0.1458  0.0199  0.5392
 2780TIP3    H129975   1.732   4.195   6.455 -1.5804  1.7585  0.9981
 2780TIP3    H229976   1.856   4.199   6.542 -0.2668  1.0767 -0.7926
 2781TIP3   OH229977   6.671   1.693   0.430 -0.2285  0.6736 -0.0037
 2781TIP3    H129978   6.589   1.699   0.381  0.7824  1.2045 -1.7033
 2781TIP3    H229979   6.729   1.641   0.374  1.7802  3.3680 -0.6537
 2782TIP3   OH229980   5.981   5.254   6.227  0.1944 -0.2365  0.0880
 2782TIP3    H129981   5.900   5.277   6.183 -0.0185 -1.5673 -0.2584
 2782TIP3    H229982   5.967   5.165   6.259  1.4979 -0.4719  0.0733
 2783TIP3   OH229983   6.086   2.475   7.486 -0.1482 -0.5339  1.0109
 2783TIP3    H129984   6.156   2.539   7.483 -0.9831  0.4374  1.6850
 2783TIP3    H229985   6.102   2.418   7.411 -0.1984  1.3156 -0.4761
 2784TIP3   OH229986   0.351   2.229   7.826 -0.5584 -0.3337  0.1700
 2784TIP3    H129987   0.350   2.202   7.735 -1.5572 -0.0354  0.0748
 2784TIP3    H229988   0.340   2.324   7.824 -0.5411 -0.3180  0.5916
 2785TIP3   OH229989   0.187   0.775   7.853 -0.1819 -0.1839 -0.1555
 2785TIP3    H129990   0.219   0.862   7.830  0.5081 -0.0332  1.3044
 2785TIP3    H229991   0.143   0.744   7.773  0.1928  1.1917 -0.9244
 2786TIP3   OH229992   3.791   4.995   0.043 -0.5403 -0.3288 -0.4476
 2786TIP3    H129993   3.783   5.064   0.109 -0.0053  0.6552 -1.3751
 2786TIP3    H229994   3.702   4.985   0.009 -0.5303  0.3206 -0.6937
 2787TIP3   OH229995   3.649   4.620   7.375  0.1182  0.1849  0.4771
 2787TIP3    H129996   3.742   4.629   7.355  0.0287  0.7100  0.2692
 2787TIP3    H229997   3.646   4.556   7.447  0.6884  0.6076  0.8893
 2788TIP3   OH229998   0.162   3.964   6.303  0.5629  0.0792  0.2881
 2788TIP3    H129999   0.080   4.002   6.335 -0.8364 -0.5312 -2.2582
 2788TIP3    H230000   0.215   3.952   6.381 -1.0636  2.1444  1.8355
 2789TIP3   OH230001   4.647   5.235   6.611  0.3676 -0.1412 -0.0329
 2789TIP3    H130002   4.655   5.323   6.649  0.8967  0.2193 -0.9585
 2789TIP3    H230003   4.723   5.227   6.554  0.1254 -1.0713 -0.2324
 2790TIP3   OH230004   2.352   5.049   7.744 -0.4308 -0.9476 -0.9756
 2790TIP3    H130005   2.278   5.041   7.684 -0.2976 -1.5255 -1.0798
 2790TIP3    H230006   2.375   4.958   7.765 -1.0276 -0.7494  0.6612
 2791TIP3   OH230007   2.195   3.653   0.166  0.0895 -0.0215 -0.3360
 2791TIP3    H130008   2.245   3.702   0.100 -0.8064  1.0749 -0.2327
 2791TIP3    H230009   2.237   3.567   0.168 -0.1009 -0.2379 -2.6115
 2792TIP3   OH230010   5.872   3.830   6.880  0.3560 -0.0086 -0.2111
 2792TIP3    H130011   5.963   3.808   6.860  0.4201  1.2876 -1.5052
 2792TIP3    H230012   5.871   3.925   6.890 -0.8855  0.0214 -0.3803
 2793TIP3   OH230013   6.160   3.019   1.002 -0.7261 -0.4062 -0.6063
 2793TIP3    H130014   6.196   2.990   1.086 -3.4105  1.2767  1.3064
 2793TIP3    H230015   6.134   2.938   0.958  0.7207 -1.3380  0.1677
 2794TIP3   OH230016   3.349   5.416   0.537 -0.0494  0.0697 -0.0511
 2794TIP3    H130017   3.380   5.379   0.619 -1.3771 -0.9493  0.0249
 2794TIP3    H230018   3.326   5.341   0.483  0.7390  0.7241 -1.3531
 2795TIP3   OH230019   1.708   4.937   1.333 -0.3250  0.0533  0.1027
 2795TIP3    H130020   1.698   4.942   1.237  2.4655 -1.9960 -0.4091
 2795TIP3    H230021   1.711   5.028   1.361  0.0177  0.7258 -1.9194
 2796TIP3   OH230022   2.484   5.207   0.169  0.1194  0.0510 -0.3169
 2796TIP3    H130023   2.570   5.179   0.200 -0.6647 -0.5898  1.4035
 2796TIP3    H230024   2.494   5.217   0.075  2.1466  0.2654 -0.1181
 2797TIP3   OH230025   0.849   1.808   7.852  0.2151 -0.6217  0.4995
 2797TIP3    H130026   0.762   1.822   7.890  0.5351 -1.4786  1.5849
 2797TIP3    H230027   0.908   1.807   7.928  1.0902 -0.6874 -0.1710
 2798TIP3   OH230028   4.720   2.385   2.511 -0.3512  0.6788 -0.0088
 2798TIP3    H130029   4.776   2.444   2.462  1.9371 -0.0423  1.5798
 2798TIP3    H230030   4.778   2.313   2.538 -2.7634 -1.8508 -1.0447
 2799TIP3   OH230031   5.595   0.024   8.039  0.6699 -0.3999 -0.0010
 2799TIP3    H130032   5.512  -0.017   8.065  0.9115 -0.8386  0.0919
 2799TIP3    H230033   5.659  -0.047   8.042  1.2960  0.1646  1.0853
 2800TIP3   OH230034   3.119   5.321   1.001  0.5638 -0.2229 -0.2907
 2800TIP3    H130035   3.029   5.324   1.031  0.5290 -0.9146 -0.2994
 2800TIP3    H230036   3.152   5.410   1.011 -1.1075  0.8972 -3.3571
 2801TIP3   OH230037   4.579   2.105   0.529 -0.8389  0.9869  0.4103
 2801TIP3    H130038   4.662   2.057   0.519  0.0501  2.5908 -0.2576
 2801TIP3    H230039   4.605   2.189   0.567 -1.7568  2.6144 -2.2902
 2802TIP3   OH230040   0.618   3.938   0.017 -0.4021 -0.6039  0.5111
 2802TIP3    H130041   0.651   3.944   0.107 -0.1358  1.4445  0.3281
 2802TIP3    H230042   0.542   3.995   0.015  0.3224  0.3612 -0.8521
 2803TIP3   OH230043   3.266   0.468   6.386  0.1866  0.0147 -0.4647
 2803TIP3    H130044   3.279   0.437   6.476  2.9632  1.1199 -0.4001
 2803TIP3    H230045   3.269   0.389   6.333  2.8416 -0.3222  0.0786
 2804TIP3   OH230046   1.266   1.618   7.890 -0.2091 -0.3109 -0.3212
 2804TIP3    H130047   1.235   1.668   7.815  0.5873 -0.7249 -0.9444
 2804TIP3    H230048   1.293   1.684   7.954 -0.9906  0.0417 -0.3407
 2805TIP3   OH230049   6.809   3.528   0.131  0.5607 -0.5792 -1.0046
 2805TIP3    H130050   6.757   3.563   0.204 -1.7426 -0.2811 -2.6746
 2805TIP3    H230051   6.785   3.436   0.126  0.0242 -0.4079 -1.8738
 2806TIP3   OH230052   1.839   4.626   1.997 -0.0774  0.5070 -0.4749
 2806TIP3    H130053   1.793   4.678   1.931 -0.6554 -0.1936 -0.6377
 2806TIP3    H230054   1.771   4.573   2.038  0.5383 -0.3455 -0.5241
 2807TIP3   OH230055   0.782   2.059   0.034 -0.0789  0.0027  0.3721
 2807TIP3    H130056   0.786   2.137   0.090  1.5574 -1.0459  1.8034
 2807TIP3    H230057   0.777   2.094  -0.055 -0.3180  1.7341  1.0263
 2808TIP3   OH230058   6.608   0.354   0.352  0.5608  0.1879 -0.9818
 2808TIP3    H130059   6.645   0.272   0.318 -1.1456 -0.5769 -1.0993
 2808TIP3    H230060   6.605   0.412   0.276 -1.9577 -1.0533 -1.9491
 2809TIP3   OH230061   5.239   3.674   1.532  0.5833  0.1096  0.0137
 2809TIP3    H130062   5.185   3.714   1.464 -0.1044  0.2742  0.6438
 2809TIP3    H230063   5.327   3.709   1.517 -0.0916  2.3837  0.9199
 2810TIP3   OH230064   1.843   6.344   0.723  0.0923 -0.2575 -0.5530
 2810TIP3    H130065   1.886   6.281   0.666  0.8365 -1.9009  1.6531
 2810TIP3    H230066   1.758   6.305   0.743 -0.2189  0.3643 -0.6103
 2811TIP3   OH230067   5.610   5.516   7.552  0.0359  0.1146 -0.4175
 2811TIP3    H130068   5.576   5.529   7.640  1.1670 -2.5075  0.5234
 2811TIP3    H230069   5.591   5.597   7.506 -2.1315  0.9286  1.7227
 2812TIP3   OH230070   1.755   1.559   0.061  0.0813  0.2086 -0.1115
 2812TIP3    H130071   1.806   1.629   0.021  0.0661 -0.3092 -1.0686
 2812TIP3    H230072   1.730   1.503  -0.012  2.0617 -2.0944  0.8377
 2813TIP3   OH230073   0.501   6.799   0.059 -0.0074 -0.1145 -0.1478
 2813TIP3    H130074   0.568   6.837   0.001  0.4305 -0.6057  0.0231
 2813TIP3    H230075   0.465   6.873   0.107 -0.2898  0.2864 -0.9619
 2814TIP3   OH230076   1.013   5.723   7.543  0.4310  0.5190  0.4776
 2814TIP3    H130077   1.104   5.728   7.513  0.2704  1.7214  0.1496
 2814TIP3    H230078   0.997   5.807   7.586 -0.3311  0.0631  1.1113
 2815TIP3   OH230079   1.892   0.996   1.014  0.4512 -0.6491  0.1462
 2815TIP3    H130080   1.896   1.020   0.922 -0.1696  0.4314  0.3804
 2815TIP3    H230081   1.972   0.946   1.030  1.3009  0.4261 -0.6353
 2816TIP3   OH230082   6.049   1.690   6.661  0.5208  0.1512 -0.3892
 2816TIP3    H130083   6.029   1.693   6.567  0.3615  1.8908 -0.3386
 2816TIP3    H230084   6.142   1.710   6.667  0.3072  1.1179 -0.1349
 2817TIP3   OH230085   6.816   5.817   7.395 -0.1631  0.5183  0.1003
 2817TIP3    H130086   6.779   5.901   7.423  0.0205  0.8271 -0.5421
 2817TIP3    H230087   6.863   5.784   7.471 -2.2327 -0.1832  1.1336
 2818TIP3   OH230088   5.078   2.590   7.240 -0.3322  0.2616 -0.5232
 2818TIP3    H130089   5.162   2.636   7.243 -0.4940  0.7607 -2.2586
 2818TIP3    H230090   5.072   2.545   7.324  1.1026  1.2031  0.1259
 2819TIP3   OH230091   1.241   2.611   7.637  0.0394  0.5394  0.2290
 2819TIP3    H130092   1.234   2.696   7.679 -0.2426  0.3780  0.5144
 2819TIP3    H230093   1.153   2.593   7.603  0.7852  1.8290 -2.7535
 2820TIP3   OH230094   3.924   4.608   7.951  0.3718 -0.0014 -0.5395
 2820TIP3    H130095   3.939   4.537   8.014 -2.3115 -1.0596 -0.9465
 2820TIP3    H230096   3.989   4.594   7.882 -0.5727 -2.6223 -0.9950
 2821TIP3   OH230097   1.832   2.652   6.389  0.3287  0.2338 -0.4882
 2821TIP3    H130098   1.884   2.659   6.309  1.4204  1.3450  0.2642
 2821TIP3    H230099   1.896   2.664   6.459 -0.6858 -0.1793  0.5357
 2822TIP3   OH230100   1.600   4.685   7.215  0.9519 -0.4654  0.4734
 2822TIP3    H130101   1.563   4.669   7.302 -1.2058 -0.5069 -0.3781
 2822TIP3    H230102   1.552   4.625   7.158  1.9924 -0.1025 -0.8280
 2823TIP3   OH230103   1.421   3.111   7.217 -0.1857 -0.1853  0.5275
 2823TIP3    H130104   1.430   3.076   7.306 -0.3935  1.2277  1.1263
 2823TIP3    H230105   1.369   3.190   7.227 -1.0197 -0.4979 -0.9964
 2824TIP3   OH230106   1.663   4.934   0.706 -0.4906  0.0582  0.3943
 2824TIP3    H130107   1.687   5.017   0.747  0.8167 -1.4141  2.8674
 2824TIP3    H230108   1.627   4.882   0.777  1.0164 -2.3512 -0.4968
 2825TIP3   OH230109   0.827   6.281   6.722 -0.1940  0.1349 -0.1036
 2825TIP3    H130110   0.850   6.325   6.640 -0.9654  1.1829  0.2345
 2825TIP3    H230111   0.911   6.270   6.767  0.0855  0.6643 -0.4786
 2826TIP3   OH230112   2.254   3.949   2.130  0.1993 -0.1118  0.9585
 2826TIP3    H130113   2.345   3.950   2.099  0.3583 -0.1292  1.4156
 2826TIP3    H230114   2.223   3.860   2.112  0.4436 -0.2644  1.2894
 2827TIP3   OH230115   4.065   3.048   8.116 -0.3171 -0.2080  0.0693
 2827TIP3    H130116   4.005   3.036   8.043  0.3210 -1.2958 -0.2976
 2827TIP3    H230117   4.080   2.960   8.149 -0.7559  0.2828  1.6614
 2828TIP3   OH230118   3.717   0.253   5.746  0.2185 -0.4349 -0.0133
 2828TIP3    H130119   3.791   0.288   5.796  1.2061 -2.2689 -0.0954
 2828TIP3    H230120   3.724   0.158   5.757 -0.6155 -0.7901 -2.1426
 2829TIP3   OH230121   2.290   5.188   6.564  0.4407  0.0931  0.3776
 2829TIP3    H130122   2.225   5.174   6.495  0.1963 -0.8532  0.7846
 2829TIP3    H230123   2.265   5.271   6.604  0.0762  0.2267 -0.1203
 2830TIP3   OH230124   2.661   6.073   7.857  0.5753 -0.4493  0.0315
 2830TIP3    H130125   2.588   6.014   7.876 -0.9359  1.5748  0.8265
 2830TIP3    H230126   2.735   6.037   7.907 -0.5435 -1.1363  1.2474
 2831TIP3   OH230127   4.266   4.388   6.951 -0.3398  0.5166  0.1849
 2831TIP3    H130128   4.289   4.408   7.041  0.4381  2.4076 -0.3915
 2831TIP3    H230129   4.172   4.406   6.946 -0.6437 -0.7686  0.8870
 2832TIP3   OH230130   0.240   4.376   7.588 -0.0086 -0.0393  0.0657
 2832TIP3    H130131   0.324   4.334   7.608 -0.0055 -0.0499  0.0305
 2832TIP3    H230132   0.257   4.470   7.597 -0.6651 -0.0929  2.7397
 2833TIP3   OH230133   0.953   1.950   6.990 -0.1085 -0.0029 -0.1514
 2833TIP3    H130134   0.955   1.999   6.907 -1.1521 -1.2103 -0.9182
 2833TIP3    H230135   0.864   1.960   7.022  0.2653  0.3700  0.7924
 2834TIP3   OH230136   2.602   4.302   7.710  0.0007 -0.0706  0.2227
 2834TIP3    H130137   2.668   4.372   7.716  0.2552 -0.2612 -0.3069
 2834TIP3    H230138   2.567   4.310   7.621  0.3981 -0.9417 -0.0218
 2835TIP3   OH230139   3.711   5.110   0.848 -0.4013 -0.2081 -0.3507
 2835TIP3    H130140   3.669   5.061   0.778  0.1497  0.5102 -1.2140
 2835TIP3    H230141   3.716   5.049   0.921 -0.3809 -1.1972 -1.1562
 2836TIP3   OH230142   3.232   2.481   7.049 -0.3412  0.7634  0.6266
 2836TIP3    H130143   3.185   2.398   7.061  1.7745 -0.7629 -0.8454
 2836TIP3    H230144   3.169   2.548   7.073 -2.8243 -1.1771 -0.0739
 2837TIP3   OH230145   6.554   0.860   0.118  0.2661  0.2747 -0.6768
 2837TIP3    H130146   6.508   0.943   0.110 -1.4723 -0.5812  0.0087
 2837TIP3    H230147   6.626   0.867   0.055 -0.4247  1.8956 -1.3505
 2838TIP3   OH230148   3.215   0.728   5.845  0.0570 -0.1514 -0.1252
 2838TIP3    H130149   3.205   0.760   5.935  6.1859  0.6499  0.6383
 2838TIP3    H230150   3.242   0.804   5.795  0.4047 -1.3450 -1.8195
 2839TIP3   OH230151   5.740   3.055   0.627 -0.3396 -0.1428 -0.2253
 2839TIP3    H130152   5.820   3.004   0.616  0.9318  1.8499 -0.7880
 2839TIP3    H230153   5.700   3.021   0.707  0.2582 -2.1881 -0.7389
 2840TIP3   OH230154   2.347   5.874   7.561 -0.3895 -0.5307 -0.8269
 2840TIP3    H130155   2.321   5.872   7.653 -0.1866 -4.4748 -0.6726
 2840TIP3    H230156   2.286   5.814   7.518  1.2355 -0.9591 -2.6829
 2841TIP3   OH230157   3.651   0.237   6.916 -0.0547  0.8574  0.0958
 2841TIP3    H130158   3.642   0.332   6.911 -2.7221  0.6714 -0.1668
 2841TIP3    H230159   3.692   0.212   6.834  0.0787  1.7246 -0.1075
 2842TIP3   OH230160   4.948   4.380   6.391  0.5720 -0.0033 -0.4131
 2842TIP3    H130161   5.019   4.401   6.452  1.0982  0.4967 -1.1931
 2842TIP3    H230162   4.933   4.287   6.403 -0.0388  0.2692  1.2317
 2843TIP3   OH230163   6.259   0.217   0.730 -0.3135  0.4967 -0.2390
 2843TIP3    H130164   6.303   0.227   0.646  1.6397 -1.0024  0.5446
 2843TIP3    H230165   6.293   0.288   0.784  0.2482  0.0637 -0.0120
 2844TIP3   OH230166   6.987   2.210   6.679 -0.7758  0.1208 -0.3322
 2844TIP3    H130167   6.969   2.122   6.647  1.2007 -0.8158  0.9440
 2844TIP3    H230168   6.995   2.263   6.599  0.2821 -1.3613 -1.2543
 2845TIP3   OH230169   6.398   4.659   7.186  0.2802  0.2541 -0.0391
 2845TIP3    H130170   6.415   4.753   7.185  0.8845  0.1483  0.0814
 2845TIP3    H230171   6.373   4.639   7.276  2.2833 -0.0625  0.4829
 2846TIP3   OH230172   2.146   3.348   0.404 -0.0190 -0.3813  0.2062
 2846TIP3    H130173   2.190   3.360   0.320 -0.6619  0.0317 -0.0790
 2846TIP3    H230174   2.138   3.253   0.413 -0.4619 -0.4167 -0.4823
 2847TIP3   OH230175   0.209   4.732   1.772 -0.4135  0.0613 -0.1311
 2847TIP3    H130176   0.283   4.680   1.741 -1.1044 -0.5655 -0.7547
 2847TIP3    H230177   0.247   4.793   1.835  1.0190  1.2338 -2.0406
 2848TIP3   OH230178   4.722   3.273   2.029 -0.2093  0.1981 -0.2976
 2848TIP3    H130179   4.735   3.179   2.030 -1.8871 -0.0653 -0.6012
 2848TIP3    H230180   4.644   3.287   2.084 -0.1911  1.3622 -0.5436
 2849TIP3   OH230181   3.410   5.143   7.154  0.0006 -0.1127 -0.5162
 2849TIP3    H130182   3.321   5.111   7.142 -0.7886  1.2336  1.2660
 2849TIP3    H230183   3.448   5.085   7.219 -1.2762  2.0674  2.3670
 2850TIP3   OH230184   4.883   5.360   7.166  0.2178  0.1902 -0.4968
 2850TIP3    H130185   4.958   5.387   7.114  0.1885  0.5134 -0.3734
 2850TIP3    H230186   4.905   5.388   7.255  0.3844 -0.5896 -0.2848
 2851TIP3   OH230187   4.905   3.044   7.103  0.1823 -0.4238 -0.2112
 2851TIP3    H130188   4.883   2.975   7.041 -1.9685  0.6169 -0.7116
 2851TIP3    H230189   4.875   3.012   7.188 -0.7474 -0.1517 -0.4305
 2852TIP3   OH230190   2.362   5.626   1.087  0.2242 -0.6224  0.4693
 2852TIP3    H130191   2.368   5.711   1.132 -2.9620 -0.5043  0.8645
 2852TIP3    H230192   2.275   5.594   1.108  0.6590 -3.1716 -1.2244
 2853TIP3   OH230193   2.202   1.986   6.193  0.4371  0.3002 -0.2250
 2853TIP3    H130194   2.132   1.931   6.157  0.4451  0.4195 -0.4244
 2853TIP3    H230195   2.166   2.075   6.191  0.0400  0.1758  1.0507
 2854TIP3   OH230196   6.905   2.104   7.308  0.2066  0.2939 -0.3765
 2854TIP3    H130197   6.978   2.166   7.301 -1.0116  1.6730 -1.4754
 2854TIP3    H230198   6.909   2.072   7.398  1.3739  1.3471 -0.0293
 2855TIP3   OH230199   0.393   3.955   7.032 -0.6906  0.0283  0.8749
 2855TIP3    H130200   0.463   3.910   7.080  0.6494  1.6254  0.5396
 2855TIP3    H230201   0.392   4.043   7.070  0.4381  1.3842 -1.9628
 2856TIP3   OH230202   2.020   6.515   7.155  0.3341 -0.0172  0.2882
 2856TIP3    H130203   2.056   6.514   7.244 -0.1038  2.8052  0.5917
 2856TIP3    H230204   1.946   6.454   7.159  0.5891 -0.2790  1.7391
 2857TIP3   OH230205   1.529   1.516   0.976 -0.7077  0.0414  0.0781
 2857TIP3    H130206   1.538   1.592   0.918  1.7982  0.6989  1.1693
 2857TIP3    H230207   1.518   1.554   1.063  0.0511 -0.8166  0.5674
 2858TIP3   OH230208   4.639   3.102   0.941 -0.2252  0.0242  0.2997
 2858TIP3    H130209   4.711   3.141   0.890  0.0535 -1.9850 -0.9661
 2858TIP3    H230210   4.560   3.125   0.892 -0.0989 -0.6486 -0.2302
 2859TIP3   OH230211   6.864   0.648   1.144  0.1677 -0.2378 -0.4839
 2859TIP3    H130212   6.781   0.641   1.097 -0.1605  0.3619 -0.0137
 2859TIP3    H230213   6.839   0.643   1.237  0.7414 -0.8171 -0.3505
 2860TIP3   OH230214   0.674   3.285   0.707  0.3219  0.0967  0.0757
 2860TIP3    H130215   0.677   3.345   0.782 -2.2850 -1.5678  1.6823
 2860TIP3    H230216   0.605   3.321   0.651 -0.2958 -0.6082  0.3629
 2861TIP3   OH230217   3.306   0.153   0.731  0.0587 -0.7141  0.0903
 2861TIP3    H130218   3.241   0.193   0.674  0.5370 -0.6578 -0.4199
 2861TIP3    H230219   3.390   0.183   0.697  0.3455 -0.3380  1.0744
 2862TIP3   OH230220   3.068   6.180   7.791  0.2459  0.0886 -0.2303
 2862TIP3    H130221   3.037   6.270   7.798 -1.4704 -0.3635 -1.2788
 2862TIP3    H230222   3.161   6.185   7.810  0.2838  2.1576 -0.6966
 2863TIP3   OH230223   1.597   4.008   7.943 -0.0641 -0.3900 -0.1596
 2863TIP3    H130224   1.514   4.054   7.955 -0.5842 -0.8424 -1.8703
 2863TIP3    H230225   1.576   3.933   7.889  1.5840 -0.0793 -1.3005
 2864TIP3   OH230226   4.147   5.608   0.020  0.5949  0.7729 -0.2202
 2864TIP3    H130227   4.060   5.645   0.034  1.6924  2.6603  2.2837
 2864TIP3    H230228   4.151   5.532   0.078  0.0950 -0.3789 -1.6237
 2865TIP3   OH230229   1.553   0.394   1.306  0.3658 -0.3298  0.0749
 2865TIP3    H130230   1.526   0.445   1.230  2.6906 -1.1600 -1.4193
 2865TIP3    H230231   1.619   0.447   1.349 -1.0230  0.1917  1.6786
 2866TIP3   OH230232   0.277   6.220   1.084 -0.1753 -0.5520  0.0799
 2866TIP3    H130233   0.216   6.286   1.116  2.1335  2.0109 -0.3343
 2866TIP3    H230234   0.252   6.205   0.993  0.8833  2.0500 -0.7376
 2867TIP3   OH230235   0.835   1.858   2.003  0.3890 -0.2648 -0.0007
 2867TIP3    H130236   0.918   1.824   1.969 -0.2125 -0.8099 -0.9484
 2867TIP3    H230237   0.859   1.943   2.041  0.9543  0.8708 -2.6705
 2868TIP3   OH230238   6.164   0.666   6.574  0.6579 -0.2624 -0.3750
 2868TIP3    H130239   6.093   0.649   6.513 -1.3448 -0.7430  1.9572
 2868TIP3    H230240   6.215   0.736   6.532 -3.7652  3.4566 -0.2748
 2869TIP3   OH230241   2.398   5.377   6.206 -0.1132  0.4869 -0.6890
 2869TIP3    H130242   2.377   5.377   6.300  0.0056  1.3074 -0.6506
 2869TIP3    H230243   2.320   5.341   6.164 -0.5644  1.0379 -0.3433
 2870TIP3   OH230244   0.563   5.343   6.845  0.4127 -0.2090  0.2853
 2870TIP3    H130245   0.477   5.376   6.872  0.2734 -0.4149  0.0947
 2870TIP3    H230246   0.559   5.249   6.862  0.3245 -0.3435 -0.4313
 2871TIP3   OH230247   6.517   1.283   1.769 -0.2777 -0.0899  0.0519
 2871TIP3    H130248   6.583   1.295   1.700 -1.9501 -0.8033 -1.7834
 2871TIP3    H230249   6.552   1.213   1.824  0.1977 -0.9731 -1.3241
 2872TIP3   OH230250   2.386   0.982   8.054  0.7786  0.2906 -0.1896
 2872TIP3    H130251   2.463   1.010   8.104 -0.2111  0.7615  1.1323
 2872TIP3    H230252   2.378   0.889   8.073  1.2763  0.1324 -0.7123
 2873TIP3   OH230253   5.522   4.722   1.685  0.2518 -0.2325  0.0389
 2873TIP3    H130254   5.456   4.791   1.692 -0.5969 -1.1276  5.1729
 2873TIP3    H230255   5.605   4.768   1.697  0.3127  0.4282 -2.4293
 2874TIP3   OH230256   3.144   3.922   0.967 -0.0224  0.0604  0.1060
 2874TIP3    H130257   3.145   3.843   1.020 -1.7855  0.1172  0.2732
 2874TIP3    H230258   3.151   3.994   1.030 -1.1333  0.0984  0.2025
 2875TIP3   OH230259   0.990   1.056   6.878 -0.3390  0.0320 -0.5702
 2875TIP3    H130260   0.999   1.010   6.961 -2.4462 -2.0746 -1.3886
 2875TIP3    H230261   1.071   1.036   6.830 -0.1496 -0.7651  0.0637
 2876TIP3   OH230262   2.345   4.139   6.310 -0.0984 -0.4767  0.2626
 2876TIP3    H130263   2.379   4.070   6.367 -0.8126 -0.2281  1.0164
 2876TIP3    H230264   2.258   4.107   6.285 -0.4298  0.1364  0.6139
 2877TIP3   OH230265   1.759   4.176   1.109  0.0255  0.5149  0.2676
 2877TIP3    H130266   1.771   4.124   1.188 -0.2248  0.9954  0.6267
 2877TIP3    H230267   1.845   4.212   1.090  0.1881  0.0107  0.0454
 2878TIP3   OH230268   1.459   3.549   7.701  0.2397 -0.0809  0.6340
 2878TIP3    H130269   1.375   3.518   7.665 -0.4954  0.5720  1.7550
 2878TIP3    H230270   1.503   3.469   7.731 -0.5304 -0.3098  1.1788
 2879TIP3   OH230271   5.638   2.547   0.959  0.2872 -0.2396  0.3107
 2879TIP3    H130272   5.692   2.496   1.020  1.6552  1.2566  0.4383
 2879TIP3    H230273   5.549   2.518   0.975  0.8100 -1.1671  1.7698
 2880TIP3   OH230274   5.078   1.142   7.864  0.2858  0.2764 -0.5080
 2880TIP3    H130275   5.051   1.051   7.875 -2.3401  0.6985 -2.4858
 2880TIP3    H230276   5.059   1.184   7.948  1.2740 -0.8929  0.3300
 2881TIP3   OH230277   3.243   5.617   1.735  0.0007  0.3503  0.4900
 2881TIP3    H130278   3.174   5.632   1.799  0.1412  0.6124  0.5831
 2881TIP3    H230279   3.305   5.688   1.749 -0.6797  1.2664 -0.9075
 2882TIP3   OH230280   1.810   2.147   7.771 -0.5340  0.2978  0.0336
 2882TIP3    H130281   1.720   2.180   7.763 -0.3900  0.6035 -0.3036
 2882TIP3    H230282   1.863   2.208   7.721 -0.3970 -1.0731 -1.6070
 2883TIP3   OH230283   0.566   5.371   1.382 -0.2206 -0.2377  0.5266
 2883TIP3    H130284   0.521   5.378   1.466  0.8937  1.9945  0.9918
 2883TIP3    H230285   0.659   5.374   1.404  0.1088  2.3363 -0.8367
 2884TIP3   OH230286   1.652   2.682   6.588  0.3242 -0.7999 -0.2163
 2884TIP3    H130287   1.703   2.684   6.507  3.5760 -0.8442  1.6230
 2884TIP3    H230288   1.614   2.770   6.594  2.0045  0.0205 -0.7242
 2885TIP3   OH230289   1.180   1.507   0.636  0.8291 -0.1394 -0.5011
 2885TIP3    H130290   1.143   1.452   0.706  0.6135 -0.6706 -1.0253
 2885TIP3    H230291   1.245   1.451   0.593  1.2078  0.3021 -0.5098
 2886TIP3   OH230292   5.985   1.691   6.399  0.0433 -0.2740  0.2385
 2886TIP3    H130293   6.003   1.772   6.352 -1.5017  0.2372  0.4557
 2886TIP3    H230294   5.985   1.623   6.332 -0.1562  0.1376 -0.1806
 2887TIP3   OH230295   5.294   3.770   7.506  0.6273 -0.1311 -0.3315
 2887TIP3    H130296   5.346   3.690   7.496 -1.5406 -1.4289 -1.9492
 2887TIP3    H230297   5.351   3.840   7.475  3.1554 -0.6783  2.5470
 2888TIP3   OH230298   1.155   3.214   1.823  0.3349 -0.1079 -0.6650
 2888TIP3    H130299   1.177   3.294   1.870  0.3806  0.3431 -1.4394
 2888TIP3    H230300   1.059   3.210   1.826  0.3533 -0.2268 -0.2905
 2889TIP3   OH230301   2.582   1.949   0.112 -0.4268  0.1314  0.4959
 2889TIP3    H130302   2.575   2.020   0.176 -0.2539 -0.7965  1.5812
 2889TIP3    H230303   2.664   1.905   0.135 -0.3077 -0.1581 -0.4434
 2890TIP3   OH230304   5.678   4.523   7.890 -0.2823  0.1783 -0.1213
 2890TIP3    H130305   5.666   4.446   7.834 -1.3480  0.4855 -0.3416
 2890TIP3    H230306   5.593   4.568   7.887  0.6571  1.9818 -0.9286
 2891TIP3   OH230307   0.016   5.150   7.824 -0.3851  0.0039 -0.6364
 2891TIP3    H130308  -0.009   5.089   7.754 -3.3306  0.4549 -0.1147
 2891TIP3    H230309   0.026   5.234   7.780 -0.7384 -0.0064 -0.7411
 2892TIP3   OH230310   5.390   6.365   0.668  0.1374  0.7587 -0.5392
 2892TIP3    H130311   5.363   6.297   0.606 -0.8260  0.5636  0.0693
 2892TIP3    H230312   5.467   6.329   0.712  0.2896  0.5246 -0.9946
 2893TIP3   OH230313   1.703   2.130   6.068 -0.2739 -0.4651 -0.0548
 2893TIP3    H130314   1.776   2.087   6.112  0.1819 -1.1767 -1.4451
 2893TIP3    H230315   1.743   2.202   6.019 -0.5059 -0.7595 -0.6936
 2894TIP3   OH230316   6.069   6.350   1.278  0.3286 -0.2246  0.3846
 2894TIP3    H130317   6.107   6.411   1.342 -1.3475  0.3397  0.9034
 2894TIP3    H230318   6.007   6.297   1.329 -0.4782 -0.2876 -0.6275
 2895TIP3   OH230319   6.372   2.577   2.369 -0.0610 -0.1132 -0.2867
 2895TIP3    H130320   6.393   2.640   2.438  0.9608  0.5937 -1.2138
 2895TIP3    H230321   6.293   2.612   2.328  0.3404  0.4228 -0.6136
 2896TIP3   OH230322   3.284   1.059   0.675 -0.4770  0.6641 -0.1159
 2896TIP3    H130323   3.302   1.034   0.766  0.7674  1.9040  0.0033
 2896TIP3    H230324   3.262   0.976   0.632 -0.3792 -0.0438  1.1404
 2897TIP3   OH230325   2.552   4.306   7.419 -0.4435  0.3671 -0.3151
 2897TIP3    H130326   2.514   4.304   7.331  0.5196 -2.9137 -0.8158
 2897TIP3    H230327   2.646   4.315   7.404 -0.3057  0.1424  0.3756
 2898TIP3   OH230328   2.882   3.057   7.068 -0.2661  0.5269 -0.3665
 2898TIP3    H130329   2.918   3.100   6.990 -2.3180  2.1669 -0.5022
 2898TIP3    H230330   2.804   3.013   7.037 -0.0795 -0.4145  0.4550
 2899TIP3   OH230331   6.073   4.655   8.017 -0.2288 -0.5958 -0.6186
 2899TIP3    H130332   6.029   4.716   8.076 -0.8094 -1.6814  0.1017
 2899TIP3    H230333   6.150   4.626   8.065  2.6921  2.9195 -2.6617
 2900TIP3   OH230334   0.086   2.423   0.092  0.5405 -0.0785 -0.1644
 2900TIP3    H130335   0.012   2.381   0.048  1.3950  0.3514 -2.0970
 2900TIP3    H230336   0.155   2.425   0.027  1.4479  1.8070  0.7740
 2901TIP3   OH230337   0.871   1.427   2.092 -0.1113  0.3834 -0.3475
 2901TIP3    H130338   0.872   1.405   2.185  0.2763 -2.1109 -0.8630
 2901TIP3    H230339   0.963   1.444   2.070 -0.3250  2.0294 -0.1052
 2902TIP3   OH230340   6.013   1.594   1.334  0.2509  0.7824  0.1369
 2902TIP3    H130341   6.073   1.571   1.264 -1.1924  0.2365 -0.9722
 2902TIP3    H230342   5.973   1.511   1.360  1.0299  0.9179  1.8995
 2903TIP3   OH230343   2.007   4.170   6.441 -0.1225 -0.8571 -0.0772
 2903TIP3    H130344   2.059   4.209   6.370 -1.2400  0.0299 -0.4469
 2903TIP3    H230345   2.004   4.076   6.420  1.3097 -0.9293 -0.0350
 2904TIP3   OH230346   0.195   1.423   6.971 -0.4182 -0.4498  0.1662
 2904TIP3    H130347   0.128   1.485   6.944 -1.0650 -0.7409  1.0769
 2904TIP3    H230348   0.227   1.386   6.888 -0.5756  0.5081 -0.3357
 2905TIP3   OH230349   4.301   4.485   6.037  0.2845  0.2634  0.1871
 2905TIP3    H130350   4.221   4.533   6.062  1.1761  1.9820 -0.0729
 2905TIP3    H230351   4.335   4.451   6.119  0.4588  1.4784  0.6505
 2906TIP3   OH230352   5.500   0.805   1.876  0.3362  0.2151  0.2766
 2906TIP3    H130353   5.560   0.731   1.882  0.2666  0.0246 -1.1705
 2906TIP3    H230354   5.555   0.883   1.887  1.1881  0.1307 -2.7084
 2907TIP3   OH230355   6.637   2.603   6.160  0.2385 -0.1653  0.0455
 2907TIP3    H130356   6.542   2.604   6.144  0.1649 -1.8754  0.1711
 2907TIP3    H230357   6.675   2.584   6.074  0.5094  0.8566 -0.0725
 2908TIP3   OH230358   3.184   3.568   1.617 -0.2149  0.5222 -0.1004
 2908TIP3    H130359   3.144   3.614   1.543  0.0458 -1.4467 -1.5704
 2908TIP3    H230360   3.278   3.583   1.608 -0.3193  2.7248  1.6454
 2909TIP3   OH230361   6.849   2.865   5.800  0.0279 -0.3319  0.0171
 2909TIP3    H130362   6.834   2.958   5.782  1.5444 -0.2452 -1.0116
 2909TIP3    H230363   6.895   2.864   5.884  1.3748 -0.0015 -0.6842
 2910TIP3   OH230364   0.933   2.104   1.197 -0.5079  0.1373  0.0166
 2910TIP3    H130365   0.925   2.094   1.292  0.2097  1.5980  0.2568
 2910TIP3    H230366   0.998   2.173   1.185 -1.2338  0.6024 -1.5304
 2911TIP3   OH230367   0.868   5.966   1.279  0.2446  0.1624 -0.0293
 2911TIP3    H130368   0.915   5.961   1.363 -1.4580 -1.5796  0.9097
 2911TIP3    H230369   0.778   5.988   1.304 -0.4914 -1.2378 -1.2985
 2912TIP3   OH230370   3.674   0.384   7.630 -0.6724  0.1337  0.2868
 2912TIP3    H130371   3.626   0.466   7.621 -2.2061 -0.7681  0.0993
 2912TIP3    H230372   3.654   0.354   7.719 -0.2357 -0.1253  0.3027
 2913TIP3   OH230373   5.708   1.215   0.595 -0.2529  0.0787 -0.1323
 2913TIP3    H130374   5.635   1.174   0.643 -1.0531 -0.0663 -1.4313
 2913TIP3    H230375   5.734   1.289   0.650  0.1592 -1.1999  1.4794
 2914TIP3   OH230376   6.484   3.014   0.050  0.0423  0.4567  0.2010
 2914TIP3    H130377   6.403   2.963   0.039  1.9308 -2.5134 -1.0768
 2914TIP3    H230378   6.461   3.082   0.113 -3.9406  0.9640 -1.4722
 2915TIP3   OH230379   2.230   2.986   7.822  0.2912  0.0048 -0.2105
 2915TIP3    H130380   2.322   3.009   7.832 -0.1658  1.1455  1.9306
 2915TIP3    H230381   2.215   2.917   7.886 -0.8702  1.6716  1.4552
 2916TIP3   OH230382   0.521   2.891   6.376  0.0637 -0.0174 -0.4154
 2916TIP3    H130383   0.459   2.919   6.309  0.4423  0.6356 -0.5000
 2916TIP3    H230384   0.466   2.855   6.446 -0.3368 -0.6564 -1.0453
 2917TIP3   OH230385   4.173   6.682   5.478  0.3061  0.1034  0.1969
 2917TIP3    H130386   4.137   6.601   5.515  2.3777 -0.6365  0.7598
 2917TIP3    H230387   4.236   6.712   5.543  1.0970  1.0110 -0.9465
 2918TIP3   OH230388   6.803   0.148   6.553  0.6847 -0.2402  0.5603
 2918TIP3    H130389   6.864   0.087   6.511 -1.6540 -1.0124 -2.1052
 2918TIP3    H230390   6.733   0.092   6.586 -1.5503  0.8480 -1.9910
 2919TIP3   OH230391   3.154   1.026   7.756 -0.0005  0.0835  0.4216
 2919TIP3    H130392   3.060   1.034   7.741 -0.1236  0.4427  1.3513
 2919TIP3    H230393   3.184   0.966   7.687 -0.8617  0.1560 -0.0303
 2920TIP3   OH230394   0.499   5.894   6.504  0.6431  0.5289  0.0180
 2920TIP3    H130395   0.538   5.831   6.565 -0.3326  1.1446  1.3123
 2920TIP3    H230396   0.434   5.843   6.456  0.2709  0.3985  0.6462
 2921TIP3   OH230397   2.902   5.902   6.390  0.6772  0.0298 -0.0980
 2921TIP3    H130398   2.955   5.830   6.424  0.7531 -0.9121 -2.0451
 2921TIP3    H230399   2.830   5.910   6.452  0.8306 -1.5268  0.3215
 2922TIP3   OH230400   5.015   4.217   7.109 -0.1495  0.0080 -0.3237
 2922TIP3    H130401   5.083   4.257   7.164 -1.5646  1.6787  0.3278
 2922TIP3    H230402   4.999   4.132   7.148 -0.2516  0.6682  1.1437
 2923TIP3   OH230403   5.252   5.518   0.334  0.2053  0.0278  0.3542
 2923TIP3    H130404   5.282   5.569   0.409  2.6311  2.0027 -1.7505
 2923TIP3    H230405   5.179   5.570   0.298  0.9742  0.6891 -0.2918
 2924TIP3   OH230406   5.801   3.517   6.445 -0.4512 -0.4006  0.4896
 2924TIP3    H130407   5.776   3.600   6.404  0.9394  0.1862  0.7626
 2924TIP3    H230408   5.783   3.529   6.538  1.8376  0.4859  0.8779
 2925TIP3   OH230409   5.837   1.534   7.413 -0.1315  0.6797  0.2176
 2925TIP3    H130410   5.763   1.488   7.374 -0.9809  1.6643  0.6125
 2925TIP3    H230411   5.838   1.505   7.504  1.1370 -0.7398 -0.2123
 2926TIP3   OH230412   6.501   4.845   0.559  0.1783 -0.5368  0.3104
 2926TIP3    H130413   6.541   4.907   0.620 -1.0412 -1.4758  2.1676
 2926TIP3    H230414   6.576   4.798   0.521  1.1625  2.2426 -1.4955
 2927TIP3   OH230415   1.594   3.997   0.885 -0.1083 -0.7537 -0.4278
 2927TIP3    H130416   1.644   4.019   0.807 -2.3057  0.9155 -1.5023
 2927TIP3    H230417   1.541   3.921   0.859 -1.0079 -0.0572 -0.6800
 2928TIP3   OH230418   0.836   4.500   1.876 -0.3991 -0.1307 -0.4694
 2928TIP3    H130419   0.838   4.596   1.878  1.1283 -0.1179  1.7469
 2928TIP3    H230420   0.928   4.475   1.867 -0.2407 -1.2713  2.8661
 2929TIP3   OH230421   6.209   0.039   7.074  0.2113 -0.0105 -0.5049
 2929TIP3    H130422   6.269   0.002   7.139 -1.3183 -1.1122  0.3632
 2929TIP3    H230423   6.227  -0.010   6.994 -1.7120 -2.7767  0.5992
 2930TIP3   OH230424   5.069   4.463   6.609  0.7034 -0.4304 -0.3531
 2930TIP3    H130425   4.980   4.465   6.645  1.3779  2.7109  1.4683
 2930TIP3    H230426   5.116   4.404   6.668  0.2301 -0.7522 -0.2870
 2931TIP3   OH230427   4.447   1.889   6.047  0.5959 -0.8332  0.3861
 2931TIP3    H130428   4.489   1.894   6.133  1.5073 -2.3331  0.0526
 2931TIP3    H230429   4.510   1.844   5.992 -0.3081 -0.5881 -0.8842
 2932TIP3   OH230430   3.974   1.451   6.935  0.5991  0.2013 -0.2284
 2932TIP3    H130431   3.896   1.395   6.941  0.4960  0.4405  0.9948
 2932TIP3    H230432   3.939   1.540   6.924  0.6477  0.4189  1.1933
 2933TIP3   OH230433   4.572   3.676   7.322  0.1726 -0.0949  0.3148
 2933TIP3    H130434   4.657   3.632   7.323 -0.7074 -1.9047 -0.6960
 2933TIP3    H230435   4.510   3.612   7.355 -1.0029  0.7620 -0.1505
 2934TIP3   OH230436   2.026   2.905   0.829  0.2946  0.9364  0.4278
 2934TIP3    H130437   1.937   2.876   0.849 -0.8250  1.9319 -2.5552
 2934TIP3    H230438   2.078   2.878   0.905 -2.5728  0.5695  2.4135
 2935TIP3   OH230439   0.951   7.120   0.453  0.1946  0.5881  0.5658
 2935TIP3    H130440   0.915   7.171   0.381 -0.5913  0.5442  0.9193
 2935TIP3    H230441   0.874   7.084   0.499  0.7074 -0.4103  0.6838
 2936TIP3   OH230442   1.053   4.098   6.358 -0.9717  0.4902 -1.2237
 2936TIP3    H130443   0.978   4.107   6.299 -0.0911  0.4179 -2.3848
 2936TIP3    H230444   1.039   4.165   6.425 -2.0878  0.4521 -1.4058
 2937TIP3   OH230445   3.568   2.328   7.972  0.5444 -0.1394  0.1121
 2937TIP3    H130446   3.570   2.292   8.060 -0.6592  0.9196  0.6108
 2937TIP3    H230447   3.660   2.345   7.950  0.8549 -0.4535  1.1417
 2938TIP3   OH230448   3.780   3.235   0.482 -0.0722 -0.5497  0.9373
 2938TIP3    H130449   3.760   3.214   0.573  0.5302 -1.8902  0.7925
 2938TIP3    H230450   3.707   3.199   0.432 -0.4840  0.3293  0.8861
 2939TIP3   OH230451   6.308   4.371   1.263 -0.1948  0.1296 -0.0919
 2939TIP3    H130452   6.262   4.296   1.226 -0.4390  0.0222  0.4162
 2939TIP3    H230453   6.321   4.430   1.189  1.4556 -1.1026 -0.8388
 2940TIP3   OH230454   3.849   0.009   1.287  0.4128 -0.2360  0.0143
 2940TIP3    H130455   3.932   0.004   1.335 -0.6918  1.5582  2.3210
 2940TIP3    H230456   3.802  -0.069   1.313  1.1186 -0.9603 -0.8336
 2941TIP3   OH230457   3.091   5.570   6.159  0.0218  0.2001 -0.0959
 2941TIP3    H130458   3.179   5.552   6.126  1.0073 -0.0691  2.4600
 2941TIP3    H230459   3.049   5.619   6.088  2.3035  0.5943 -1.2840
 2942TIP3   OH230460   4.338   1.735   0.851 -0.5052  0.4537  0.0114
 2942TIP3    H130461   4.337   1.670   0.921 -0.7166  0.0763 -0.3345
 2942TIP3    H230462   4.412   1.792   0.871  1.4416 -1.5174 -1.1344
 2943TIP3   OH230463   1.109   1.381   2.555  0.2900 -0.3404  0.1521
 2943TIP3    H130464   1.103   1.452   2.491 -0.9454 -0.2462  0.3467
 2943TIP3    H230465   1.170   1.318   2.516 -0.3175 -0.2103 -1.0592
 2944TIP3   OH230466   6.409   1.920   2.380 -0.2253 -0.9341  0.4441
 2944TIP3    H130467   6.503   1.921   2.364 -0.5853 -0.7597 -2.0246
 2944TIP3    H230468   6.378   1.840   2.338 -1.3291 -0.2985 -0.0046
 2945TIP3   OH230469   5.925   1.041   2.017  0.3869 -0.3118  0.2612
 2945TIP3    H130470   5.997   1.024   2.077 -0.1848 -0.2435  0.9877
 2945TIP3    H230471   5.901   1.133   2.033  0.9899  0.0590 -0.9155
 2946TIP3   OH230472   2.547   4.975   6.234  0.5022  0.2009  0.2373
 2946TIP3    H130473   2.541   4.880   6.221  0.9070  0.2857 -0.6819
 2946TIP3    H230474   2.606   5.005   6.165 -1.1812  1.3745 -0.7851
 2947TIP3   OH230475   6.723   6.402   7.426  0.6482 -0.4072  0.2397
 2947TIP3    H130476   6.811   6.383   7.457  1.1189  0.7395 -0.3256
 2947TIP3    H230477   6.671   6.410   7.506  0.7730 -2.2178  0.5528
 2948TIP3   OH230478   1.634   3.844   1.112  0.1948  0.6784  0.2684
 2948TIP3    H130479   1.716   3.823   1.155  0.4834 -0.5155 -0.8091
 2948TIP3    H230480   1.659   3.886   1.030 -0.2588  0.3161 -0.0641
 2949TIP3   OH230481   6.823   7.028   5.580 -0.0679 -0.3560  0.1630
 2949TIP3    H130482   6.905   7.076   5.595 -1.7052  2.2998  1.3523
 2949TIP3    H230483   6.813   6.973   5.658  0.5443 -0.6650  0.0302
 2950TIP3   OH230484   0.016   5.593   7.284  0.7591 -0.0200 -0.0728
 2950TIP3    H130485   0.106   5.586   7.252  0.4149 -0.0677 -1.0470
 2950TIP3    H230486  -0.024   5.508   7.264  0.2876  0.2539 -0.3145
 2951TIP3   OH230487   5.378   4.005   7.785  0.0604 -0.3408  0.0493
 2951TIP3    H130488   5.392   4.038   7.874  1.5966  0.8934 -0.6057
 2951TIP3    H230489   5.430   3.925   7.781  0.8174  0.1498 -0.0417
 2952TIP3   OH230490   5.714   3.316   0.483  0.5025 -0.3386  0.3370
 2952TIP3    H130491   5.795   3.271   0.507  1.0147  0.8503  0.9141
 2952TIP3    H230492   5.649   3.246   0.476  1.2485 -1.1592  1.2891
 2953TIP3   OH230493   2.140   5.152   1.080 -0.0899  0.4952 -0.4030
 2953TIP3    H130494   2.213   5.210   1.059  0.1792  0.6146  0.8042
 2953TIP3    H230495   2.086   5.152   1.000  0.6232  1.3045 -0.9052
 2954TIP3   OH230496   4.008   5.115   7.516 -0.2426  0.1359 -0.0135
 2954TIP3    H130497   3.989   5.155   7.431  0.9762  0.4171 -0.1793
 2954TIP3    H230498   3.983   5.181   7.580  0.2617  0.5314 -0.2209
 2955TIP3   OH230499   3.590   2.365   0.925  0.0340 -0.3475 -0.1688
 2955TIP3    H130500   3.532   2.326   0.861 -0.1861 -0.5958  0.1815
 2955TIP3    H230501   3.660   2.404   0.873 -0.5628  0.1602 -0.6062
 2956TIP3   OH230502   4.907   1.716   0.360 -0.6439  0.3979  0.1416
 2956TIP3    H130503   4.837   1.688   0.419  1.0807 -0.7504  1.7324
 2956TIP3    H230504   4.909   1.649   0.292 -2.0690  1.2669 -0.8099
 2957TIP3   OH230505   6.563   1.640   7.893  0.1327  0.0133  0.5334
 2957TIP3    H130506   6.621   1.646   7.969  2.6041 -0.9350 -1.1518
 2957TIP3    H230507   6.611   1.685   7.823  0.1046 -3.0168 -1.6103
 2958TIP3   OH230508   1.468   2.282   0.297 -0.5352  0.4175  0.1542
 2958TIP3    H130509   1.448   2.194   0.264 -0.7338  0.8653 -0.9476
 2958TIP3    H230510   1.430   2.283   0.385 -0.8898 -0.4689  0.0258
 2959TIP3   OH230511   3.329   2.952   1.381 -0.4914  0.4979  0.2391
 2959TIP3    H130512   3.297   2.913   1.299  0.9167  0.3126 -0.2497
 2959TIP3    H230513   3.293   2.896   1.450  0.3421 -0.8655 -0.3936
 2960TIP3   OH230514   2.997   1.091   6.548  0.0248  0.0572 -0.0018
 2960TIP3    H130515   3.053   1.025   6.588  0.8990 -0.7830 -2.4232
 2960TIP3    H230516   2.908   1.065   6.573  0.1942 -3.0356 -2.0173
 2961TIP3   OH230517   3.533   0.790   1.089 -0.3353 -0.0371 -0.4341
 2961TIP3    H130518   3.474   0.858   1.121 -0.0935  0.1735 -0.4235
 2961TIP3    H230519   3.528   0.720   1.154 -1.1426 -0.3500 -0.8193
 2962TIP3   OH230520   6.307   0.769   0.078  0.4318  0.0673 -0.0596
 2962TIP3    H130521   6.285   0.725   0.160  0.9121 -0.7971 -0.3831
 2962TIP3    H230522   6.401   0.785   0.084  0.0179  2.6668  0.8010
 2963TIP3   OH230523   2.770   6.531   6.373  0.3151 -0.0383  0.3807
 2963TIP3    H130524   2.763   6.625   6.355 -2.3201 -0.1577  0.3140
 2963TIP3    H230525   2.704   6.516   6.442  1.2832 -1.7130  0.9785
 2964TIP3   OH230526   4.005   1.663   7.916  0.1470  0.0203 -0.2190
 2964TIP3    H130527   3.943   1.721   7.962  1.2693  1.8833 -0.9292
 2964TIP3    H230528   3.998   1.688   7.824 -1.0552 -2.7044 -0.9512
 2965TIP3   OH230529   0.587   6.485   6.659  0.2411  0.0817 -0.0517
 2965TIP3    H130530   0.550   6.402   6.688 -1.0965  0.3935 -0.7951
 2965TIP3    H230531   0.633   6.519   6.735  0.2226 -1.0074  0.4621
 2966TIP3   OH230532   1.382   2.723   0.027  0.4775  0.6065  0.2763
 2966TIP3    H130533   1.378   2.630   0.050  0.7074 -0.0556 -2.0966
 2966TIP3    H230534   1.309   2.763   0.074 -0.9506 -1.1935 -0.3227
 2967TIP3   OH230535   5.920   2.681   6.444  0.2904  0.0629 -0.9394
 2967TIP3    H130536   5.863   2.608   6.467  1.1187 -0.3271 -0.0611
 2967TIP3    H230537   6.004   2.660   6.485  0.0621  2.3413  0.9635
 2968TIP3   OH230538   0.296   1.530   7.543 -0.0394 -0.3356  0.1392
 2968TIP3    H130539   0.253   1.605   7.584  1.0411  2.1749 -2.8780
 2968TIP3    H230540   0.245   1.515   7.463  1.7919 -0.4903 -1.0531
 2969TIP3   OH230541   5.902   1.452   8.066 -0.5429 -0.6756 -0.1310
 2969TIP3    H130542   5.831   1.432   8.004 -1.3013 -0.2312  0.5717
 2969TIP3    H230543   5.977   1.404   8.031 -0.6322  0.4578 -2.0245
 2970TIP3   OH230544   0.233   0.247   7.658  0.1851  0.4261  0.4129
 2970TIP3    H130545   0.285   0.305   7.603 -1.3727  0.8683 -0.6617
 2970TIP3    H230546   0.230   0.164   7.611  0.1855  0.2994  0.6329
 2971TIP3   OH230547   1.343   4.870   7.240 -0.6374  0.4261  0.2130
 2971TIP3    H130548   1.334   4.889   7.333  0.3328  0.6229  0.2778
 2971TIP3    H230549   1.313   4.780   7.231 -2.5879  1.0192  0.3731
 2972TIP3   OH230550   6.961   1.218   6.731  0.0320  0.1313 -0.8670
 2972TIP3    H130551   6.937   1.159   6.659  0.3376  0.1744 -1.0086
 2972TIP3    H230552   7.005   1.292   6.687 -0.0939  0.3267 -0.6665
 2973TIP3   OH230553   4.114   6.292   0.300 -0.0885  0.0711 -0.5420
 2973TIP3    H130554   4.173   6.217   0.314  0.6800 -0.1224 -3.9876
 2973TIP3    H230555   4.027   6.259   0.323  0.5574 -0.9669  0.5734
 2974TIP3   OH230556   1.392   4.525   8.131 -0.4136  0.3655 -0.2399
 2974TIP3    H130557   1.368   4.546   8.221 -0.6643  1.3534 -0.5251
 2974TIP3    H230558   1.414   4.609   8.092 -0.8725  0.0228 -1.2708
 2975TIP3   OH230559   6.526   4.537   1.617 -0.2320  0.2883 -0.1376
 2975TIP3    H130560   6.518   4.447   1.649  1.9922  0.3005  0.6548
 2975TIP3    H230561   6.560   4.528   1.528 -0.0031  0.3313 -0.0561
 2976TIP3   OH230562   4.038   1.754   0.650  0.0889 -0.7686  0.2956
 2976TIP3    H130563   4.113   1.800   0.688  0.1287 -0.3105 -0.3022
 2976TIP3    H230564   4.076   1.700   0.581  0.1383 -2.3287  1.4945
 2977TIP3   OH230565   3.641   3.739   7.995  0.5444  0.3238 -0.5785
 2977TIP3    H130566   3.574   3.706   7.935 -0.0211 -1.1624  0.7721
 2977TIP3    H230567   3.721   3.692   7.970  0.3519 -0.1594 -0.3003
 2978TIP3   OH230568   2.722   1.982   6.067 -0.3626  0.2466  0.2465
 2978TIP3    H130569   2.634   1.964   6.101 -0.7566 -1.2225 -1.4147
 2978TIP3    H230570   2.778   1.980   6.144 -1.6376  0.1843  1.2135
 2979TIP3   OH230571   5.209   5.947   7.701 -0.2264 -0.2514  0.1532
 2979TIP3    H130572   5.208   6.029   7.749  0.9105  0.1481 -0.4604
 2979TIP3    H230573   5.257   5.967   7.620  0.3946 -1.5888  0.1560
 2980TIP3   OH230574   1.709   2.600   7.485 -0.2906  0.0055 -0.2257
 2980TIP3    H130575   1.736   2.509   7.491 -0.4973  0.0484  2.5494
 2980TIP3    H230576   1.623   2.598   7.442  0.6830 -0.8250 -2.2482
 2981TIP3   OH230577   3.225   0.245   5.744  0.0649  0.2274  0.0033
 2981TIP3    H130578   3.302   0.261   5.689  0.3240 -0.5557  0.1195
 2981TIP3    H230579   3.219   0.321   5.801 -0.2909  1.1281 -1.1979
 2982TIP3   OH230580   4.587   7.016   1.271 -0.3217 -0.3767 -0.2178
 2982TIP3    H130581   4.521   7.056   1.328  0.9054  0.0835  0.9459
 2982TIP3    H230582   4.627   6.948   1.325  0.9626  0.1635 -0.4513
 2983TIP3   OH230583   0.172   5.461   5.517 -0.5303  0.1639  0.5572
 2983TIP3    H130584   0.157   5.551   5.545  0.7365  0.5114  0.1851
 2983TIP3    H230585   0.253   5.435   5.562  1.0343  0.4064 -1.9364
 2984TIP3   OH230586   0.047   3.656   6.321 -0.5099 -0.0155 -0.0011
 2984TIP3    H130587   0.035   3.683   6.231  2.8545  0.3458 -0.4558
 2984TIP3    H230588   0.059   3.738   6.370  1.3965 -0.2893  0.0618
 2985TIP3   OH230589   1.071   6.743   0.077 -0.1027 -0.0759 -0.5222
 2985TIP3    H130590   1.119   6.666   0.109  0.2286  0.8502  1.3687
 2985TIP3    H230591   1.000   6.756   0.140  0.4362  1.7097 -0.2089
 2986TIP3   OH230592   3.215   6.514   7.953  0.0034  0.2336  0.0812
 2986TIP3    H130593   3.161   6.579   7.997  0.8920  1.1285 -0.1165
 2986TIP3    H230594   3.157   6.472   7.890 -0.7260  0.4286  0.6199
 2987TIP3   OH230595   2.540   3.891   0.563  0.0795 -0.2187 -0.1263
 2987TIP3    H130596   2.584   3.852   0.639  1.2741  0.6135 -0.3641
 2987TIP3    H230597   2.469   3.830   0.543  0.2445 -0.8704  1.1523
 2988TIP3   OH230598   0.767   1.611   1.924 -0.3357  0.2462  0.4047
 2988TIP3    H130599   0.797   1.543   1.985  0.7468 -0.1162 -0.5053
 2988TIP3    H230600   0.775   1.692   1.973 -1.0391 -0.2007  1.2914
 2989TIP3   OH230601   4.948   0.620   6.521 -0.4900  0.0572  0.0886
 2989TIP3    H130602   4.890   0.604   6.595 -1.0387 -0.8043 -0.5073
 2989TIP3    H230603   4.952   0.536   6.475 -0.0804  0.5510 -0.8071
 2990TIP3   OH230604   4.236   2.430   7.919 -0.8126  0.2539 -0.5477
 2990TIP3    H130605   4.244   2.392   8.006  5.9198  0.2897 -0.6666
 2990TIP3    H230606   4.234   2.354   7.860 -2.4723  0.2737 -0.5838
 2991TIP3   OH230607   6.266   4.554   6.970 -0.4288 -0.5513 -0.2056
 2991TIP3    H130608   6.296   4.590   7.054 -0.8465  0.6392 -0.5468
 2991TIP3    H230609   6.181   4.595   6.955 -0.8641 -1.5977 -0.6967
 2992TIP3   OH230610   0.893   3.483   6.238 -0.0059 -0.2872  0.2662
 2992TIP3    H130611   0.894   3.432   6.157  0.3504 -1.5731  1.0455
 2992TIP3    H230612   0.810   3.531   6.235  1.0286  1.5170 -1.9009
 2993TIP3   OH230613   0.587   0.142   0.734  0.0125  0.1884  0.4150
 2993TIP3    H130614   0.560   0.103   0.651  0.8409  2.7279 -1.1850
 2993TIP3    H230615   0.514   0.199   0.759  0.5462  0.9232  0.3449
 2994TIP3   OH230616   3.353   2.688   7.878  0.2934 -0.0341 -0.6430
 2994TIP3    H130617   3.291   2.622   7.909  0.3859 -0.1671 -0.7409
 2994TIP3    H230618   3.429   2.680   7.935 -0.9238  2.1607  1.4821
 2995TIP3   OH230619   0.444   2.370   7.511  0.1827  0.6448 -0.1164
 2995TIP3    H130620   0.350   2.353   7.510  0.1311  0.7218  1.2984
 2995TIP3    H230621   0.484   2.284   7.527  0.2983  0.7491  0.1685
 2996TIP3   OH230622   6.599   7.110   1.456  0.6544 -0.1271  0.2761
 2996TIP3    H130623   6.600   7.141   1.547 -3.1096  1.4199 -0.0187
 2996TIP3    H230624   6.569   7.019   1.463 -0.9579  0.3925  0.5995
 2997TIP3   OH230625   7.095   3.507   6.917 -0.6815 -1.0650  0.1913
 2997TIP3    H130626   7.162   3.566   6.951 -0.8312 -1.2719  0.8599
 2997TIP3    H230627   7.095   3.433   6.977 -2.3745 -0.4933  0.9542
 2998TIP3   OH230628   1.743   6.829   7.513  0.0659  0.1455  0.1322
 2998TIP3    H130629   1.715   6.756   7.569  0.7531 -0.7384 -0.6506
 2998TIP3    H230630   1.685   6.901   7.537 -0.5327 -0.6155  1.0272
 2999TIP3   OH230631   2.412   4.793   1.493  0.2560  0.3992  0.0087
 2999TIP3    H130632   2.327   4.779   1.533 -0.3006  1.6600 -0.6761
 2999TIP3    H230633   2.463   4.841   1.558 -0.0739  0.9729 -0.1566
 3000TIP3   OH230634   3.855   0.911   7.298  0.3412 -0.7594  0.1394
 3000TIP3    H130635   3.895   0.992   7.329 -0.3946 -0.7942  1.2668
 3000TIP3    H230636   3.890   0.844   7.356 -1.3751 -0.7712  1.2463
 3001TIP3   OH230637   3.526   5.970   0.502  0.5420 -0.3498  0.4544
 3001TIP3    H130638   3.618   5.961   0.475  0.1119  0.1816 -1.2707
 3001TIP3    H230639   3.477   5.916   0.441 -0.4501  0.6328  0.3402
 3002TIP3   OH230640   5.452   4.172   7.997  0.1094  0.3858 -0.3369
 3002TIP3    H130641   5.391   4.245   7.983 -1.2920 -0.3082  1.6962
 3002TIP3    H230642   5.442   4.150   8.090  1.0120 -1.9540 -0.7314
 3003TIP3   OH230643   2.465   1.105   1.092  0.2967  0.2725 -0.1306
 3003TIP3    H130644   2.487   1.028   1.039 -1.8687  0.4413 -1.4562
 3003TIP3    H230645   2.466   1.178   1.029  1.5052  1.2187  0.9324
 3004TIP3   OH230646   2.026   1.258   0.134  0.0500  0.2952 -0.5232
 3004TIP3    H130647   2.089   1.201   0.178 -0.1610 -1.2942 -2.1426
 3004TIP3    H230648   2.022   1.336   0.189  1.2498 -0.7492  1.1596
 3005TIP3   OH230649   5.339   2.485   1.007 -0.0185  0.4685  0.3981
 3005TIP3    H130650   5.323   2.449   0.920  1.7294  1.0804 -0.2194
 3005TIP3    H230651   5.345   2.409   1.065 -0.1080  0.0046 -0.2016
 3006TIP3   OH230652   3.879   5.089   5.865 -0.2692 -0.5990  0.4244
 3006TIP3    H130653   3.925   5.167   5.896  1.1341 -0.4694 -1.7942
 3006TIP3    H230654   3.788   5.116   5.859  0.0928  0.6650  0.3215
 3007TIP3   OH230655   0.923   2.858   0.467  0.0235  0.5418 -0.0511
 3007TIP3    H130656   0.851   2.828   0.523  1.3113 -0.6262  1.0775
 3007TIP3    H230657   0.957   2.778   0.427 -1.1845  1.3969 -3.0154
 3008TIP3   OH230658   2.986   1.495   7.047  0.0632 -0.3789 -0.3540
 3008TIP3    H130659   3.047   1.532   7.110 -0.3412 -0.0614 -0.1422
 3008TIP3    H230660   3.026   1.510   6.961  0.6063 -0.7940 -0.1832
 3009TIP3   OH230661   3.432   3.430   5.944  0.0828 -0.3957  0.4520
 3009TIP3    H130662   3.422   3.361   6.010  1.2755 -1.3654 -0.3342
 3009TIP3    H230663   3.504   3.400   5.889  0.3796  1.3185 -0.1482
 3010TIP3   OH230664   2.182   2.578   7.474 -0.2175 -0.7236 -0.1880
 3010TIP3    H130665   2.135   2.581   7.391  1.3785  0.2758 -1.0858
 3010TIP3    H230666   2.129   2.631   7.534 -2.6586 -3.3415  0.2086
 3011TIP3   OH230667   1.732   1.311   0.998 -0.1760  0.1737  0.2872
 3011TIP3    H130668   1.644   1.347   1.005 -0.9907 -1.5612 -0.5636
 3011TIP3    H230669   1.738   1.248   1.070  0.4110  0.3294  0.3820
 3012TIP3   OH230670   5.136   0.811   6.566  0.2869 -0.4742 -0.1551
 3012TIP3    H130671   5.098   0.884   6.615  0.9524 -0.4806  0.3876
 3012TIP3    H230672   5.061   0.759   6.539 -0.1616  0.1186 -0.0794
 3013TIP3   OH230673   4.180   6.928   0.111 -0.5606  0.0471 -0.5729
 3013TIP3    H130674   4.260   6.947   0.162 -0.1363 -0.9746 -0.8447
 3013TIP3    H230675   4.184   6.834   0.095 -1.6584  0.0511 -0.8880
 3014TIP3   OH230676   5.798   4.598   7.347  0.3502 -0.0779  0.8078
 3014TIP3    H130677   5.890   4.586   7.322  0.5937 -0.1325  1.6880
 3014TIP3    H230678   5.784   4.535   7.418 -0.8721 -1.3159 -0.4517
 3015TIP3   OH230679   5.419   3.557   6.523 -0.0930 -0.6700 -0.2232
 3015TIP3    H130680   5.415   3.550   6.427  1.5764 -0.1153 -0.3617
 3015TIP3    H230681   5.467   3.638   6.539  0.5950 -1.3042  1.0673
 3016TIP3   OH230682   5.294   4.888   1.037  0.5383 -0.0910 -0.2769
 3016TIP3    H130683   5.256   4.864   0.953  1.2372 -0.4247 -0.5078
 3016TIP3    H230684   5.365   4.948   1.016  0.1701  0.5091  0.1464
 3017TIP3   OH230685   2.254   3.917   0.656  0.0067  0.3393  0.0317
 3017TIP3    H130686   2.314   3.988   0.676  0.8006 -0.3699  0.2129
 3017TIP3    H230687   2.191   3.918   0.728  1.4200 -0.6512  1.3184
 3018TIP3   OH230688   2.361   0.897   1.232 -0.4348 -0.2798 -0.3716
 3018TIP3    H130689   2.419   0.974   1.241 -2.0565  1.0344 -0.6443
 3018TIP3    H230690   2.361   0.857   1.319 -0.7010  0.9072  0.1948
 3019TIP3   OH230691   4.969   2.632   0.011 -0.0390 -1.4058 -0.0375
 3019TIP3    H130692   5.004   2.666   0.094  2.2783 -2.2339 -0.6000
 3019TIP3    H230693   5.047   2.617  -0.043 -1.5405  1.1228 -3.2211
 3020TIP3   OH230694   5.992   5.810   0.282 -0.2888  0.0793  0.3862
 3020TIP3    H130695   6.010   5.787   0.373 -0.8263  0.0423  0.4830
 3020TIP3    H230696   6.013   5.903   0.276  0.7910 -0.1579  0.2756
 3021TIP3   OH230697   5.040   6.946   6.730 -0.3050 -0.8846  0.2158
 3021TIP3    H130698   5.025   6.888   6.805  0.3315 -0.4477  0.6912
 3021TIP3    H230699   5.130   6.927   6.703 -0.6168 -1.2283 -0.6103
 3022TIP3   OH230700   6.012   4.220   7.868 -0.4748 -0.5229 -0.6091
 3022TIP3    H130701   6.012   4.197   7.961 -0.1567  0.5132 -0.3485
 3022TIP3    H230702   6.104   4.217   7.842 -0.3206  1.1931 -0.3678
 3023TIP3   OH230703   3.608   0.804   6.925 -0.2852  0.0409 -0.0829
 3023TIP3    H130704   3.612   0.865   6.999  3.5380 -0.2895  0.1971
 3023TIP3    H230705   3.609   0.861   6.847 -0.2545  0.3697  0.1553
 3024TIP3   OH230706   2.575   1.568   2.252 -0.0986 -0.1160  0.2769
 3024TIP3    H130707   2.656   1.604   2.287 -0.1264  0.5226 -0.2943
 3024TIP3    H230708   2.603   1.510   2.181 -0.1656  0.7709 -0.4963
 3025TIP3   OH230709   1.932   2.515   7.681 -0.3060 -0.1568  0.0516
 3025TIP3    H130710   1.986   2.593   7.678 -0.9246  0.2899  0.2331
 3025TIP3    H230711   1.842   2.547   7.669 -0.8057 -0.5557  2.1442
 3026TIP3   OH230712   2.130   4.887   0.436 -0.2087 -0.3963 -0.4506
 3026TIP3    H130713   2.050   4.918   0.480 -0.7569  0.3108 -1.8669
 3026TIP3    H230714   2.169   4.825   0.497 -2.2104 -1.2726  0.0198
 3027TIP3   OH230715   2.238   5.719   0.553  0.1296  0.4616 -0.2551
 3027TIP3    H130716   2.299   5.738   0.623  0.7652 -3.7365  0.5911
 3027TIP3    H230717   2.291   5.720   0.473  0.5090  0.3754 -0.0036
 3028TIP3   OH230718   0.408   1.395   0.302 -0.3956  0.1250 -0.1354
 3028TIP3    H130719   0.325   1.403   0.348 -1.8570  2.6790 -2.8570
 3028TIP3    H230720   0.389   1.335   0.229  0.5497 -0.2959 -0.0495
 3029TIP3   OH230721   6.844   3.676   7.632 -0.1634 -0.4692 -0.6307
 3029TIP3    H130722   6.873   3.749   7.577  0.3302 -0.3902 -0.2668
 3029TIP3    H230723   6.781   3.629   7.577 -2.1812  1.4689 -0.0964
 3030TIP3   OH230724   5.876   3.777   7.415  0.3890 -0.8997 -0.5603
 3030TIP3    H130725   5.899   3.870   7.414 -0.0938 -0.7712  0.0936
 3030TIP3    H230726   5.857   3.757   7.323  0.7286 -0.4148 -0.7432
 3031TIP3   OH230727   0.314   0.062   1.665  0.1843  0.6709 -0.3484
 3031TIP3    H130728   0.299   0.064   1.570  1.3110 -0.2973 -0.5598
 3031TIP3    H230729   0.408   0.075   1.674 -0.0100  1.4897  0.6950
 3032TIP3   OH230730   4.930   3.676   7.960  0.6629  0.3822 -0.4410
 3032TIP3    H130731   4.887   3.630   7.888  0.5947 -0.7716  0.2988
 3032TIP3    H230732   4.969   3.606   8.013 -0.6570  1.0342  1.5213
 3033TIP3   OH230733   2.986   0.707   6.071  0.3899  0.1188  0.0938
 3033TIP3    H130734   2.937   0.729   6.150 -0.2212 -0.1803 -0.1941
 3033TIP3    H230735   2.924   0.722   5.999  1.2370  1.3238 -0.4158
 3034TIP3   OH230736   0.472   6.018   1.028 -0.6334  0.3204  0.0276
 3034TIP3    H130737   0.526   5.971   1.091  0.7528  1.7820 -0.0210
 3034TIP3    H230738   0.426   6.084   1.079 -1.1446  0.1372 -0.1857
 3035TIP3   OH230739   5.266   1.517   7.868  0.1057  0.6317 -0.3686
 3035TIP3    H130740   5.237   1.445   7.812  2.2588 -2.4415  2.1415
 3035TIP3    H230741   5.353   1.540   7.834  0.1072  0.9271 -0.1611
 3036TIP3   OH230742   2.764   1.101   7.426  0.2398  0.2429 -0.0209
 3036TIP3    H130743   2.765   1.119   7.332 -0.0825 -0.9215 -0.2545
 3036TIP3    H230744   2.679   1.060   7.442  0.9765 -1.1286  0.4665
 3037TIP3   OH230745   6.951   3.873   7.042  0.4126  0.5723  0.1025
 3037TIP3    H130746   6.869   3.824   7.035  0.8469 -0.2508  0.6664
 3037TIP3    H230747   6.949   3.933   6.967 -0.4653  0.2087 -0.1822
 3038TIP3   OH230748   1.679   2.050   0.290 -0.5697  0.7776  0.1456
 3038TIP3    H130749   1.722   2.122   0.337  0.6108  0.2823 -0.1528
 3038TIP3    H230750   1.678   2.079   0.199  2.9649 -0.8969 -0.5954
 3039TIP3   OH230751   5.300   3.992   0.556  0.2453 -0.3128 -0.1606
 3039TIP3    H130752   5.281   4.039   0.637  0.2831  0.7863 -0.7648
 3039TIP3    H230753   5.295   3.899   0.580  0.4722 -0.0097  1.1381
 3040TIP3   OH230754   5.736   4.078   7.382  0.1521  0.3443  0.3527
 3040TIP3    H130755   5.754   4.111   7.470 -0.5938 -0.3434  0.7685
 3040TIP3    H230756   5.820   4.042   7.353  0.6385  1.3667  0.4104
 3041TIP3   OH230757   4.357   2.254   1.128 -0.3267  0.6241 -0.8301
 3041TIP3    H130758   4.284   2.207   1.170 -1.3072  2.2234 -0.6347
 3041TIP3    H230759   4.358   2.221   1.038 -1.6795  0.9717 -0.9939
 3042TIP3   OH230760   3.508   1.850   7.180 -0.0442  0.2751 -0.4507
 3042TIP3    H130761   3.500   1.812   7.092  1.2346 -0.8248 -0.1245
 3042TIP3    H230762   3.469   1.937   7.172 -1.7021 -0.5260 -1.6068
 3043TIP3   OH230763   0.566   3.728   1.337 -0.4510 -0.6858  0.0519
 3043TIP3    H130764   0.660   3.725   1.356 -0.0895 -3.6679 -1.6655
 3043TIP3    H230765   0.526   3.672   1.405 -0.3734 -2.9682 -1.6759
 3044TIP3   OH230766   3.910   4.524   0.984 -0.0443  0.6980 -0.5415
 3044TIP3    H130767   3.867   4.487   1.061  2.1155  1.9698  1.4091
 3044TIP3    H230768   3.841   4.573   0.940 -1.1433  0.7714  1.1539
 3045TIP3   OH230769   5.143   1.351   0.734  0.4719 -0.3077 -0.8127
 3045TIP3    H130770   5.134   1.331   0.641 -0.6209  2.0730 -1.2907
 3045TIP3    H230771   5.054   1.342   0.769  0.6420  0.0735 -0.2731
 3046TIP3   OH230772   3.299   5.635   1.460 -0.2447  0.1020  0.7739
 3046TIP3    H130773   3.267   5.597   1.542  1.1223 -0.3484  1.1322
 3046TIP3    H230774   3.287   5.729   1.470 -0.4254  0.0202  1.3407
 3047TIP3   OH230775   1.950   4.180   5.830 -0.0207  0.1668 -0.3823
 3047TIP3    H130776   1.984   4.153   5.745  1.2148  0.0149  0.1286
 3047TIP3    H230777   1.952   4.100   5.883 -1.0269  0.2024 -0.2823
 3048TIP3   OH230778   3.773   3.467   1.997 -0.2512  0.3926 -0.3340
 3048TIP3    H130779   3.698   3.479   2.054 -0.6012  0.4578 -0.8057
 3048TIP3    H230780   3.742   3.492   1.910 -0.6059 -2.4677 -1.1314
 3049TIP3   OH230781   2.668   2.538   6.481  0.3039 -0.0297 -0.2744
 3049TIP3    H130782   2.576   2.564   6.477 -0.9424 -3.8055 -0.4102
 3049TIP3    H230783   2.701   2.553   6.393 -0.4942  0.3579 -0.5176
 3050TIP3   OH230784   5.517   2.831   6.495 -0.3865 -0.0553 -0.5036
 3050TIP3    H130785   5.528   2.765   6.426  0.0456  0.2928 -0.7747
 3050TIP3    H230786   5.431   2.868   6.478 -1.0803 -1.2505  0.2718
 3051TIP3   OH230787   3.916   1.926   0.859 -0.3771  0.1275 -0.2213
 3051TIP3    H130788   3.934   1.839   0.823 -0.9655 -0.1245  0.0691
 3051TIP3    H230789   3.848   1.962   0.802  0.1908  0.5876 -0.6138
 3052TIP3   OH230790   1.368   3.293   6.196 -0.5556 -0.3199  0.7285
 3052TIP3    H130791   1.447   3.261   6.239 -0.2514  1.3936  1.5471
 3052TIP3    H230792   1.394   3.307   6.105 -0.4713 -1.5029  0.5477
 3053TIP3   OH230793   6.147   3.510   0.676  0.1120  0.0427 -0.0514
 3053TIP3    H130794   6.053   3.507   0.692  0.2287 -2.7548  0.5605
 3053TIP3    H230795   6.182   3.562   0.749 -0.9407  1.4251 -0.4856
 3054TIP3   OH230796   0.286   5.284   0.803 -0.6700 -0.2794 -0.4928
 3054TIP3    H130797   0.232   5.228   0.748  1.5043 -1.6666 -1.3169
 3054TIP3    H230798   0.376   5.266   0.776  0.2955  1.3726  1.3340
 3055TIP3   OH230799   0.472   5.310   7.962 -0.3090 -0.2240  0.1938
 3055TIP3    H130800   0.446   5.333   7.873  1.5624  0.4541 -0.2266
 3055TIP3    H230801   0.419   5.368   8.018  0.4514  1.3523 -0.6378
 3056TIP3   OH230802   4.129   2.212   0.258  0.7901 -0.4483  0.4340
 3056TIP3    H130803   4.045   2.256   0.276 -0.8595 -2.8181 -0.8648
 3056TIP3    H230804   4.152   2.242   0.170  0.2832 -1.1820  0.0340
 3057TIP3   OH230805   1.416   5.071   6.819  0.1287  0.2590 -0.0080
 3057TIP3    H130806   1.323   5.055   6.829  0.2586  0.4484  2.0411
 3057TIP3    H230807   1.423   5.166   6.813  0.2253  0.2990  0.6440
 3058TIP3   OH230808   5.963   2.224   5.658  0.0015 -0.2169 -0.0335
 3058TIP3    H130809   5.897   2.201   5.592 -0.4663  0.8601  0.0310
 3058TIP3    H230810   6.039   2.171   5.635 -0.0089  0.4221 -1.7133
 3059TIP3   OH230811   2.590   3.655   6.735 -0.7180 -0.2152  0.7365
 3059TIP3    H130812   2.651   3.717   6.695  0.8819 -1.3604  1.2697
 3059TIP3    H230813   2.589   3.581   6.674  0.3120 -1.1928  1.8393
 3060TIP3   OH230814   5.014   3.551   6.389  0.0380 -0.3252  0.2732
 3060TIP3    H130815   5.056   3.503   6.460  1.4273  0.6556  0.1387
 3060TIP3    H230816   5.066   3.630   6.378 -0.4486 -0.2019 -1.5046
 3061TIP3   OH230817   1.089   4.506   6.216  0.0887 -0.1750 -0.6918
 3061TIP3    H130818   1.147   4.476   6.147  2.0353  1.4510  0.1420
 3061TIP3    H230819   1.120   4.461   6.295 -0.8371 -0.5116 -0.5073
 3062TIP3   OH230820   6.387   2.269   1.682  0.3801  0.4829 -0.0568
 3062TIP3    H130821   6.355   2.339   1.625 -0.0651 -1.4056 -2.3318
 3062TIP3    H230822   6.481   2.265   1.665  0.4625  0.7746  0.3424
 3063TIP3   OH230823   4.629   1.766   7.065 -0.2611 -0.1911  0.7395
 3063TIP3    H130824   4.545   1.793   7.103  1.2373  4.7238  1.1932
 3063TIP3    H230825   4.694   1.794   7.130  1.9086 -2.7742 -0.1412
 3064TIP3   OH230826   4.616   1.599   2.015  0.2141  0.2381  0.6514
 3064TIP3    H130827   4.553   1.554   1.958  1.1432 -0.5326  0.2086
 3064TIP3    H230828   4.570   1.677   2.044  0.0823  1.2968 -2.0804
 3065TIP3   OH230829   4.669   3.571   5.887  0.0954  0.3404  0.1600
 3065TIP3    H130830   4.748   3.582   5.835  0.3152  1.3447  0.6811
 3065TIP3    H230831   4.607   3.529   5.828  0.7676  0.2336 -0.4866
 3066TIP3   OH230832   5.397   2.835   0.746 -0.3488 -0.4372 -0.0948
 3066TIP3    H130833   5.442   2.918   0.730 -0.3182 -0.3293  0.5262
 3066TIP3    H230834   5.409   2.785   0.666 -0.5622  0.2473 -0.5660
 3067TIP3   OH230835   5.972   0.130   2.272 -0.1958  0.2230 -0.1049
 3067TIP3    H130836   5.896   0.123   2.329  0.6908  0.1330  1.1174
 3067TIP3    H230837   5.952   0.202   2.213 -1.1645  0.2989  0.3002
 3068TIP3   OH230838   3.923   6.267   6.574  0.3938  0.1724  0.2243
 3068TIP3    H130839   3.883   6.184   6.548 -0.2833  0.7496 -0.6533
 3068TIP3    H230840   3.921   6.266   6.669 -0.4529 -0.4270  0.2123
 3069TIP3   OH230841   2.821   5.080   7.606  0.3045  0.0903 -0.3406
 3069TIP3    H130842   2.752   5.132   7.646  2.5723  2.4145  0.8730
 3069TIP3    H230843   2.897   5.094   7.663  1.8370 -2.2096 -1.6750
 3070TIP3   OH230844   2.363   4.462   7.943  0.1614 -0.2938  0.2481
 3070TIP3    H130845   2.428   4.393   7.956  2.1793  1.2943 -0.8209
 3070TIP3    H230846   2.370   4.516   8.022  1.3194  0.7140 -0.4908
 3071TIP3   OH230847   1.757   2.423   1.461  0.2344 -0.0396 -0.0387
 3071TIP3    H130848   1.727   2.459   1.378  2.6286 -1.1284 -1.4735
 3071TIP3    H230849   1.812   2.491   1.499  1.0417 -0.4124 -0.5177
 3072TIP3   OH230850   1.080   5.289   5.722  0.1789  0.4790 -0.2037
 3072TIP3    H130851   1.042   5.204   5.700  3.0954 -0.7978 -0.8602
 3072TIP3    H230852   1.091   5.333   5.638 -1.4178  1.6016  0.1449
 3073TIP3   OH230853   0.054   5.011   7.205 -0.0770 -0.0621  0.0051
 3073TIP3    H130854  -0.031   5.045   7.180 -0.4640  0.1827  1.5412
 3073TIP3    H230855   0.117   5.059   7.151 -0.7234  1.8594  0.8772
 3074TIP3   OH230856   0.516   5.998   0.763  0.4904 -0.5226  0.3646
 3074TIP3    H130857   0.536   5.996   0.857 -0.1940  0.1305  0.5332
 3074TIP3    H230858   0.527   6.090   0.739  1.1590 -0.7731 -0.3151
 3075TIP3   OH230859   0.861   4.552   1.586 -0.3423  0.3367 -0.0850
 3075TIP3    H130860   0.826   4.495   1.654  0.6038 -0.5276 -0.2925
 3075TIP3    H230861   0.876   4.494   1.511 -0.9211  1.1788 -0.8840
 3076TIP3   OH230862   6.572   1.271   6.986  0.2792 -0.0778 -0.5936
 3076TIP3    H130863   6.666   1.288   6.976  0.5787 -2.3194 -2.4194
 3076TIP3    H230864   6.530   1.344   6.941  1.2089 -0.0107 -1.3934
 3077TIP3   OH230865   2.685   0.865   7.162  0.5514 -0.1786 -0.4894
 3077TIP3    H130866   2.685   0.961   7.164 -2.1347 -0.1053  0.7267
 3077TIP3    H230867   2.688   0.843   7.069 -0.7846  1.1989 -0.8987
 3078TIP3   OH230868   6.733   6.746   0.599  0.2547  0.0616 -0.0065
 3078TIP3    H130869   6.777   6.757   0.515 -0.7370  1.9514 -0.3303
 3078TIP3    H230870   6.666   6.679   0.582  1.2152 -0.8627 -0.2221
 3079TIP3   OH230871   5.468   4.051   7.026  0.6210 -0.2384 -0.0286
 3079TIP3    H130872   5.403   4.006   7.079  0.1554 -2.3910 -2.2379
 3079TIP3    H230873   5.489   3.989   6.956  2.6643  1.6523 -1.2280
 3080TIP3   OH230874   6.694   5.385   7.550 -0.1120 -0.6421 -0.0475
 3080TIP3    H130875   6.739   5.301   7.556  1.0595 -0.0603 -0.3261
 3080TIP3    H230876   6.627   5.382   7.619  2.1651 -0.5116  2.3472
 3081TIP3   OH230877   1.575   3.025   1.359 -0.0095  0.3824  0.6741
 3081TIP3    H130878   1.621   3.007   1.276  1.2225 -0.1774  1.4390
 3081TIP3    H230879   1.490   2.983   1.348  0.5549 -0.6664  0.1008
 3082TIP3   OH230880   0.009   1.038   1.537 -0.0427  0.6713 -0.3665
 3082TIP3    H130881  -0.054   1.059   1.606  0.4927 -2.1142  1.1327
 3082TIP3    H230882  -0.044   1.016   1.461 -0.6802  2.5251 -0.5128
 3083TIP3   OH230883   4.092   1.313   1.350  0.1174  0.1469  0.6570
 3083TIP3    H130884   4.102   1.380   1.418 -2.0349  0.9620  0.2480
 3083TIP3    H230885   4.170   1.259   1.358  1.3383  1.9635  1.8401
 3084TIP3   OH230886   0.402   2.609   7.351 -0.2473  0.4338  1.1216
 3084TIP3    H130887   0.449   2.558   7.417 -2.0930 -1.2171  1.2593
 3084TIP3    H230888   0.467   2.627   7.284  0.7454 -1.3003  1.5421
 3085TIP3   OH230889   5.747   1.574   1.152 -0.0363  0.2061 -0.8571
 3085TIP3    H130890   5.657   1.551   1.129  0.0820 -0.9327 -0.2726
 3085TIP3    H230891   5.758   1.541   1.241  0.8778  0.5496 -0.8370
 3086TIP3   OH230892   5.297   2.227   6.522  0.2626  0.5103 -0.6341
 3086TIP3    H130893   5.208   2.197   6.503  0.0393  2.3678 -3.0417
 3086TIP3    H230894   5.294   2.257   6.613 -1.1777 -0.6589 -0.2551
 3087TIP3   OH230895   6.639   1.985   1.541  0.0035 -0.0099  0.4860
 3087TIP3    H130896   6.708   2.030   1.590  0.2864  0.4870 -0.3466
 3087TIP3    H230897   6.682   1.908   1.505  0.1183  0.2637  0.0247
 3088TIP3   OH230898   5.218   0.485   6.852 -0.1884  0.1706  0.0009
 3088TIP3    H130899   5.192   0.462   6.763  0.4278  0.0911 -0.1630
 3088TIP3    H230900   5.299   0.437   6.866 -0.6272 -0.3491  0.8505
 3089TIP3   OH230901   4.551   2.174   5.787 -0.1526  0.5526  0.3489
 3089TIP3    H130902   4.629   2.160   5.733  0.2661  1.0148  0.8230
 3089TIP3    H230903   4.526   2.086   5.817  0.4326  0.4484  0.5326
 3090TIP3   OH230904   5.454   2.584   6.897  0.3332 -0.0450  0.4261
 3090TIP3    H130905   5.473   2.656   6.957 -1.1479  1.5675 -0.9375
 3090TIP3    H230906   5.529   2.581   6.838  1.1435 -0.7193  1.4521
 3091TIP3   OH230907   0.539   1.586   7.061  0.1668  0.1935 -0.1337
 3091TIP3    H130908   0.541   1.549   6.973  1.0669 -2.0018  0.7442
 3091TIP3    H230909   0.630   1.583   7.091  0.2293  2.7459  0.2168
 3092TIP3   OH230910   3.194   6.659   6.669 -0.4379 -0.7950  0.2864
 3092TIP3    H130911   3.145   6.609   6.605 -1.1255 -1.1550  1.0725
 3092TIP3    H230912   3.173   6.618   6.753 -0.1883  0.1615  0.8330
 3093TIP3   OH230913   4.542   2.582   7.242 -0.2768  0.4528  0.3522
 3093TIP3    H130914   4.625   2.536   7.231 -0.3082  0.3990  0.3403
 3093TIP3    H230915   4.567   2.674   7.252 -0.2450  0.4888 -0.0722
 3094TIP3   OH230916   2.564   4.847   6.832  0.3318 -0.2324  0.1671
 3094TIP3    H130917   2.595   4.868   6.744  1.6631 -0.8182  0.4763
 3094TIP3    H230918   2.489   4.905   6.846  1.4556  1.4480 -0.5236
 3095TIP3   OH230919   6.398   5.481   0.470 -0.0310 -0.3094 -0.1578
 3095TIP3    H130920   6.365   5.536   0.540  1.6374 -0.0639  0.4761
 3095TIP3    H230921   6.492   5.501   0.466  0.0369 -0.7951 -2.0195
 3096TIP3   OH230922   2.193   4.874   0.856 -0.4115  0.4082 -0.5658
 3096TIP3    H130923   2.160   4.874   0.946 -0.1797 -2.0265 -0.4000
 3096TIP3    H230924   2.252   4.949   0.852 -2.7894  2.4807  0.3167
 3097TIP3   OH230925   3.088   5.423   8.082 -0.3887  0.1961 -0.5983
 3097TIP3    H130926   3.011   5.373   8.110 -0.7460  0.6433 -0.7827
 3097TIP3    H230927   3.084   5.504   8.132 -1.2297  1.1660 -2.1550
 3098TIP3   OH230928   1.830   1.561   1.588 -0.6028  0.8424  0.6723
 3098TIP3    H130929   1.798   1.484   1.542  3.4198 -0.7696  0.1833
 3098TIP3    H230930   1.845   1.531   1.678  0.8236  1.0972  0.5317
 3099TIP3   OH230931   0.001   0.842   7.058 -0.0327 -0.1201  0.1640
 3099TIP3    H130932   0.006   0.905   6.986  0.7355  0.3128  0.5894
 3099TIP3    H230933  -0.048   0.888   7.127 -1.7626 -0.9314 -0.4643
 3100TIP3   OH230934   4.641   2.165   0.823  0.6379 -0.1059  0.1011
 3100TIP3    H130935   4.671   2.080   0.791 -0.4971 -1.3803  2.2844
 3100TIP3    H230936   4.710   2.194   0.882  1.1001  0.6208 -0.7609
 3101TIP3   OH230937   6.083   5.686   5.773 -0.2183  0.0254 -0.6079
 3101TIP3    H130938   6.129   5.729   5.845 -0.5985 -1.2661  0.4661
 3101TIP3    H230939   6.090   5.746   5.700  0.4636  1.2479  0.4239
 3102TIP3   OH230940   6.104   1.564   7.398 -0.2011  0.4878  0.1751
 3102TIP3    H130941   6.129   1.492   7.455 -0.2629  2.1193  2.3638
 3102TIP3    H230942   6.021   1.535   7.359  0.9766 -1.6004 -0.9511
 3103TIP3   OH230943   2.851   5.346   1.074  0.5312 -0.1809 -0.2708
 3103TIP3    H130944   2.793   5.412   1.035 -0.7359 -0.2901  1.2873
 3103TIP3    H230945   2.806   5.263   1.058  1.1507 -0.4702 -0.5429
 3104TIP3   OH230946   0.034   5.262   6.748 -0.0763 -0.5623  0.8603
 3104TIP3    H130947  -0.031   5.232   6.684  0.5003 -0.7049  0.3367
 3104TIP3    H230948   0.002   5.347   6.776  0.8072  0.5569 -1.3134
 3105TIP3   OH230949   4.434   6.595   0.635 -0.5935  0.4013 -0.4201
 3105TIP3    H130950   4.465   6.536   0.566  0.7756  0.1504  0.3749
 3105TIP3    H230951   4.492   6.578   0.710 -0.9799  1.8473  0.2556
 3106TIP3   OH230952   0.571   6.521   7.384 -0.0594  0.2089 -0.3167
 3106TIP3    H130953   0.528   6.452   7.333 -1.3840  1.2258 -0.6292
 3106TIP3    H230954   0.547   6.502   7.475  0.0467 -0.0632 -0.3456
 3107TIP3   OH230955   3.903   0.260   7.494  0.3280 -0.5684 -0.1394
 3107TIP3    H130956   3.859   0.330   7.544  0.8353  1.0778 -1.8737
 3107TIP3    H230957   3.944   0.206   7.561 -1.1378  0.0481  1.3438
 3108TIP3   OH230958   0.770   2.602   7.410 -0.1794 -0.2764 -0.1343
 3108TIP3    H130959   0.749   2.695   7.399  0.4108 -0.1611 -0.3191
 3108TIP3    H230960   0.751   2.585   7.502 -1.6268 -0.3326 -0.4077
 3109TIP3   OH230961   6.584   1.699   0.697 -0.3684  0.3015  0.6469
 3109TIP3    H130962   6.488   1.700   0.704 -0.3381 -1.5159  1.9692
 3109TIP3    H230963   6.601   1.715   0.604 -2.0301 -0.8470  0.1011
 3110TIP3   OH230964   6.954   2.534   0.321 -1.1993 -0.4865 -0.0848
 3110TIP3    H130965   6.945   2.604   0.256 -1.1345 -0.1480  0.2660
 3110TIP3    H230966   6.874   2.539   0.373 -0.2657  0.7570  1.3124
 3111TIP3   OH230967   1.611   1.763   2.457 -0.0245  0.5750  0.2337
 3111TIP3    H130968   1.676   1.705   2.496  0.4716  0.6601 -0.4497
 3111TIP3    H230969   1.527   1.720   2.472  0.5393 -2.4041 -3.6467
 3112TIP3   OH230970   7.034   6.409   6.924 -0.6590  0.2231  0.2613
 3112TIP3    H130971   7.047   6.422   6.830 -1.3687  0.3581  0.1766
 3112TIP3    H230972   7.081   6.328   6.944  0.2645  0.6717 -0.0290
 3113TIP3   OH230973   1.171   2.229   1.199  0.2278 -0.0847  0.0186
 3113TIP3    H130974   1.177   2.265   1.287  1.3670  1.4469 -0.6348
 3113TIP3    H230975   1.229   2.152   1.201  0.4435  0.0857  0.5285
 3114TIP3   OH230976   4.611   6.538   6.644 -0.0046  0.0354 -0.1144
 3114TIP3    H130977   4.537   6.593   6.615  0.6192  0.8958 -0.1275
 3114TIP3    H230978   4.685   6.599   6.649  1.4245 -1.2659 -2.8310
 3115TIP3   OH230979   6.785   6.251   6.752  0.0245 -0.6442  0.3580
 3115TIP3    H130980   6.746   6.214   6.831  0.9491 -0.1222  1.0966
 3115TIP3    H230981   6.879   6.241   6.765  0.2563  0.7649  0.0094
 3116TIP3   OH230982   0.940   5.253   1.779 -0.0071  0.0308 -0.1060
 3116TIP3    H130983   0.897   5.230   1.861  0.4278 -0.8475 -0.1140
 3116TIP3    H230984   0.872   5.299   1.729 -1.5773 -2.8833 -0.8425
 3117TIP3   OH230985   2.751   0.635   2.154  0.0880  0.1283  0.4553
 3117TIP3    H130986   2.813   0.709   2.153 -1.4369  1.4553  0.0418
 3117TIP3    H230987   2.785   0.575   2.087  2.0790 -0.2241  1.6993
 3118TIP3   OH230988   3.239   0.825   7.157 -0.4676 -0.0643  0.3890
 3118TIP3    H130989   3.223   0.912   7.193 -0.4987  0.0117  0.1927
 3118TIP3    H230990   3.159   0.804   7.108 -0.3978 -0.1388  0.3068
 3119TIP3   OH230991   5.529   0.882   7.149 -0.0815  0.0808  0.3889
 3119TIP3    H130992   5.563   0.891   7.060 -3.4508  0.4978 -1.0339
 3119TIP3    H230993   5.542   0.790   7.171 -1.2015 -0.5895 -1.5214
 3120TIP3   OH230994   2.345   0.356   0.488  0.1908  0.1680  0.1836
 3120TIP3    H130995   2.380   0.441   0.461 -1.3191  0.5141 -0.7951
 3120TIP3    H230996   2.253   0.373   0.508  0.8921 -0.2726  4.7842
 3121TIP3   OH230997   1.398   2.405   1.300  0.0329 -0.1641 -0.2858
 3121TIP3    H130998   1.397   2.380   1.208  1.6045  0.2593 -0.4502
 3121TIP3    H230999   1.466   2.472   1.306 -1.1771  1.0271  0.8876
 3122TIP3   OH231000   2.278   5.101   8.099 -0.2846  0.1588  0.1455
 3122TIP3    H131001   2.351   5.110   8.161 -0.7828  0.1063  0.7560
 3122TIP3    H231002   2.238   5.188   8.098  0.1438  0.3505 -0.6482
 3123TIP3   OH231003   0.810   4.943   7.160  0.3262 -0.4621  0.2155
 3123TIP3    H131004   0.904   4.942   7.178  0.2862 -0.3562  0.4381
 3123TIP3    H231005   0.800   4.894   7.078  0.5228 -0.8823  0.4391
 3124TIP3   OH231006   0.685   5.192   8.109  0.5405 -0.1106  0.4618
 3124TIP3    H131007   0.684   5.231   8.196  2.2224  2.0956 -0.3980
 3124TIP3    H231008   0.609   5.230   8.064 -0.7351 -1.7777  1.0943
 3125TIP3   OH231009   4.764   4.160   7.826 -0.6292 -0.2290 -0.3611
 3125TIP3    H131010   4.735   4.187   7.913  0.0878  1.4053 -0.6007
 3125TIP3    H231011   4.744   4.066   7.823  0.9649 -0.7651  2.2340
 3126TIP3   OH231012   5.420   1.530   5.908 -0.2589 -0.8893 -0.5387
 3126TIP3    H131013   5.487   1.462   5.912  0.3953 -0.1955  1.1547
 3126TIP3    H231014   5.434   1.573   5.824  1.2483 -0.9266 -0.3253
 3127TIP3   OH231015   4.839   3.293   5.690 -0.0537  0.4981 -0.0463
 3127TIP3    H131016   4.891   3.246   5.755  0.4375  0.2695 -0.5974
 3127TIP3    H231017   4.765   3.235   5.672  0.5455 -0.0718 -0.7150
 3128TIP3   OH231018   0.253   2.891   7.645  0.3004  0.5374 -0.0480
 3128TIP3    H131019   0.206   2.974   7.635  1.6555  1.2538 -0.8656
 3128TIP3    H231020   0.248   2.872   7.739  0.0924  1.6270  0.1810
 3129TIP3   OH231021   4.960   3.266   1.295 -0.5009  0.1338 -0.1741
 3129TIP3    H131022   5.051   3.252   1.321 -0.2848  0.9203 -0.4632
 3129TIP3    H231023   4.912   3.271   1.378 -0.6972 -2.6678 -0.0481
 3130TIP3   OH231024   5.330   0.009   0.925 -0.0336  0.3917 -0.4878
 3130TIP3    H131025   5.361  -0.025   0.841 -0.6100  0.9516 -0.9451
 3130TIP3    H231026   5.370  -0.047   0.991  1.3826  0.6717 -1.0755
 3131TIP3   OH231027   6.553   1.517   7.331  0.6776  0.2460  0.4303
 3131TIP3    H131028   6.612   1.550   7.263 -0.3528 -0.3323 -0.7986
 3131TIP3    H231029   6.501   1.594   7.357 -1.5236 -0.1929 -2.2217
 3132TIP3   OH231030   0.028   4.219   0.220  0.0394 -0.1985  0.2212
 3132TIP3    H131031  -0.012   4.294   0.177 -2.3333 -1.0490  0.8189
 3132TIP3    H231032   0.005   4.229   0.313  0.9933 -0.8835  0.5466
 3133TIP3   OH231033   7.070   3.470   1.698  0.4256  0.3139  0.0919
 3133TIP3    H131034   7.152   3.506   1.733  1.5561 -0.1813 -1.9065
 3133TIP3    H231035   7.018   3.547   1.676  0.9871  0.6750 -0.0091
 3134TIP3   OH231036   2.049   4.481   6.333 -0.3442 -0.1952  0.2573
 3134TIP3    H131037   2.139   4.475   6.299 -1.2798  0.0743 -2.5800
 3134TIP3    H231038   2.015   4.562   6.295 -1.8390 -0.3710  1.1580
 3135TIP3   OH231039   3.799   2.441   0.088 -0.3897  0.1796  0.4780
 3135TIP3    H131040   3.846   2.441   0.171  0.4420 -0.1172  0.0162
 3135TIP3    H231041   3.856   2.394   0.028  0.7021  3.3324 -1.2025
 3136TIP3   OH231042   6.174   0.166   1.932 -0.2200 -0.4731  0.4162
 3136TIP3    H131043   6.221   0.220   1.995 -0.0273 -1.9483  1.6095
 3136TIP3    H231044   6.082   0.186   1.947 -0.0820  1.8075 -1.3493
 3137TIP3   OH231045   3.561   5.815   6.518 -0.1050 -0.0262 -0.9064
 3137TIP3    H131046   3.574   5.856   6.433 -1.2687 -0.1210 -1.1441
 3137TIP3    H231047   3.521   5.730   6.499 -1.3939  0.4038 -0.2390
 3138TIP3   OH231048   0.531   4.817   6.216 -0.5007  0.5710  0.3211
 3138TIP3    H131049   0.540   4.765   6.136 -0.8886 -0.5162  0.9761
 3138TIP3    H231050   0.617   4.857   6.227 -0.0345 -0.3305  0.0741
 3139TIP3   OH231051   5.332   1.412   6.563  0.2835  0.0621 -0.4444
 3139TIP3    H131052   5.419   1.372   6.565  1.1338  1.8093  1.7137
 3139TIP3    H231053   5.347   1.502   6.590 -2.3373  0.1347  1.0656
 3140TIP3   OH231054   2.484   6.465   6.396 -0.2419  0.4546  0.2353
 3140TIP3    H131055   2.495   6.416   6.315 -0.6383  0.1393  0.3644
 3140TIP3    H231056   2.475   6.556   6.369 -0.5713  0.3267 -0.0916
 3141TIP3   OH231057   6.382   6.967   6.407 -0.1262  0.3599  0.1250
 3141TIP3    H131058   6.336   7.019   6.342  0.7678  1.5230  0.3942
 3141TIP3    H231059   6.409   6.888   6.360 -0.3937  0.7131 -0.6350
 3142TIP3   OH231060   3.654   6.530   6.251 -0.4046  0.3986 -0.0574
 3142TIP3    H131061   3.624   6.459   6.194 -0.1782  0.6236 -0.4656
 3142TIP3    H231062   3.713   6.488   6.314 -1.3077  0.0089  0.5407
 3143TIP3   OH231063   0.284   3.300   0.954 -0.1969 -0.1154  0.4299
 3143TIP3    H131064   0.263   3.364   1.022 -0.7211 -0.8649  0.9911
 3143TIP3    H231065   0.317   3.353   0.881  0.4412  0.7078  1.2753
 3144TIP3   OH231066   3.970   3.065   7.449 -0.1827  0.2963  0.7535
 3144TIP3    H131067   3.957   3.157   7.428  1.4221  0.7349  1.5189
 3144TIP3    H231068   4.062   3.048   7.428 -0.8229 -1.5820 -0.8662
 3145TIP3   OH231069   7.110   3.931   7.263  0.8816 -0.1318 -0.5633
 3145TIP3    H131070   7.202   3.909   7.247  1.0831  1.0023 -1.0764
 3145TIP3    H231071   7.068   3.917   7.178  0.3134 -1.7610 -0.0611
 3146TIP3   OH231072   4.481   1.116   7.254  0.9588  0.2221 -0.0508
 3146TIP3    H131073   4.514   1.102   7.165  1.8091  0.0813  0.2812
 3146TIP3    H231074   4.462   1.028   7.287  4.0131 -0.0904  1.1619
 3147TIP3   OH231075   1.308   2.416   6.973  0.0760  0.2041 -0.0455
 3147TIP3    H131076   1.281   2.376   7.055  0.2388  0.2068  0.0103
 3147TIP3    H231077   1.296   2.510   6.986  1.1673  0.3002  0.3803
 3148TIP3   OH231078   2.682   5.403   6.440 -0.6143  0.0610 -0.0393
 3148TIP3    H131079   2.758   5.368   6.487  0.5455 -1.0857 -2.5396
 3148TIP3    H231080   2.617   5.333   6.444  0.9323 -1.8177 -3.2381
 3149TIP3   OH231081   4.052   0.895   6.794  0.3177 -0.5422  0.4641
 3149TIP3    H131082   4.003   0.849   6.862  0.2196  0.3870  1.0372
 3149TIP3    H231083   4.024   0.986   6.801  1.5167 -0.1398  0.2648
 3150TIP3   OH231084   5.146   0.151   1.598 -0.2676  0.0554  0.4827
 3150TIP3    H131085   5.070   0.111   1.641 -0.2086 -1.3683 -0.6599
 3150TIP3    H231086   5.220   0.130   1.656 -0.2259 -1.6413 -0.1272
 3151TIP3   OH231087   2.057   5.720   0.194 -0.4153 -0.0242 -0.5388
 3151TIP3    H131088   2.079   5.643   0.247  0.2941  0.4808 -0.0684
 3151TIP3    H231089   2.031   5.786   0.259  0.3924  0.5796 -0.8073
 3152TIP3   OH231090   3.735   1.693   6.734 -0.1010 -0.5152 -0.3006
 3152TIP3    H131091   3.778   1.609   6.715  0.9492 -0.1502  0.3813
 3152TIP3    H231092   3.686   1.677   6.815 -0.4241 -0.6343 -0.5140
 3153TIP3   OH231093   3.169   2.187   0.592  0.1435 -0.0396 -0.5815
 3153TIP3    H131094   3.179   2.092   0.588  0.4525  0.0139 -1.1955
 3153TIP3    H231095   3.185   2.217   0.503 -1.0837  0.4900 -0.6473
 3154TIP3   OH231096   4.383   6.850   0.317  0.2851 -0.7129  0.2125
 3154TIP3    H131097   4.460   6.848   0.374 -0.5657 -0.2998  1.4167
 3154TIP3    H231098   4.352   6.760   0.318  1.9543 -1.3934 -2.0407
 3155TIP3   OH231099   0.214   4.358   0.697 -0.6282  0.0850 -0.2488
 3155TIP3    H131100   0.205   4.298   0.771  1.5262  0.0717  0.0814
 3155TIP3    H231101   0.163   4.435   0.722 -1.4514 -0.6566  0.4026
 3156TIP3   OH231102   5.111   4.875   0.510 -0.5043 -0.2944 -0.8874
 3156TIP3    H131103   5.100   4.808   0.442  0.4792  0.2823 -1.6367
 3156TIP3    H231104   5.205   4.876   0.528 -0.7788 -0.6191  0.6924
 3157TIP3   OH231105   0.762   3.778   0.416 -0.1242 -0.3515 -0.1115
 3157TIP3    H131106   0.673   3.776   0.451 -0.3507  1.7086 -0.4363
 3157TIP3    H231107   0.815   3.739   0.485 -0.9591  0.8646  1.3012
 3158TIP3   OH231108   3.416   4.008   7.933  0.5597  0.0149  0.8677
 3158TIP3    H131109   3.368   3.939   7.978  1.9498 -0.5816  1.4660
 3158TIP3    H231110   3.435   3.971   7.847  1.8578 -0.6248  1.4085
 3159TIP3   OH231111   1.876   3.752   1.316 -0.0844  0.2173 -0.2544
 3159TIP3    H131112   1.969   3.736   1.330  0.1145  0.3734 -1.3612
 3159TIP3    H231113   1.834   3.719   1.396  0.8263 -0.6426 -0.1178
 3160TIP3   OH231114   0.112   6.619   0.512  0.7063 -0.8863  0.2565
 3160TIP3    H131115   0.136   6.703   0.473  1.1371 -1.4802 -0.7986
 3160TIP3    H231116   0.192   6.567   0.507  0.4253 -1.3854  0.8545
 3161TIP3   OH231117   1.345   1.571   7.021 -0.1223  0.6674 -0.2587
 3161TIP3    H131118   1.270   1.574   7.080 -0.2498 -0.0029 -0.3870
 3161TIP3    H231119   1.328   1.639   6.956  1.2910  3.4152  1.9704
 3162TIP3   OH231120   0.855   5.489   7.440 -0.5934  0.0272 -0.0987
 3162TIP3    H131121   0.925   5.535   7.485 -0.6281 -0.7195  0.7482
 3162TIP3    H231122   0.843   5.537   7.358  0.1386  0.8230  0.2509
 3163TIP3   OH231123   5.625   3.491   6.864 -0.2269  0.3496  0.8548
 3163TIP3    H131124   5.602   3.398   6.857  1.2360 -0.0708  1.2394
 3163TIP3    H231125   5.543   3.537   6.850 -0.7169 -0.9423 -0.9322
 3164TIP3   OH231126   0.143   2.740   7.926 -0.3142  0.4301  0.3214
 3164TIP3    H131127   0.185   2.827   7.924 -0.2696  0.3997 -0.2604
 3164TIP3    H231128   0.213   2.680   7.950  0.0740  0.3382 -0.9584
 3165TIP3   OH231129   6.990   1.965   6.558 -0.1687 -0.5834  0.4711
 3165TIP3    H131130   7.018   1.887   6.605  0.5196  1.3065  3.4712
 3165TIP3    H231131   7.060   1.982   6.495 -1.2862 -3.3784 -1.7512
 3166TIP3   OH231132   5.444   2.896   6.808 -0.3149 -0.0974 -0.3471
 3166TIP3    H131133   5.528   2.861   6.837  0.1155  0.1947 -1.1833
 3166TIP3    H231134   5.406   2.826   6.754 -0.3424 -0.0158 -0.4341
 3167TIP3   OH231135   6.972   1.727   5.954 -0.0099 -0.4193 -0.4885
 3167TIP3    H131136   7.029   1.797   5.922 -1.3635  1.2061  0.5061
 3167TIP3    H231137   6.992   1.653   5.896  1.7991  0.6056 -1.2921
 3168TIP3   OH231138   4.250   5.796   2.010 -1.1209  0.3804 -0.2524
 3168TIP3    H131139   4.221   5.815   2.099 -0.3530  0.2649  0.0308
 3168TIP3    H231140   4.244   5.701   2.002 -0.8420  0.3552 -0.1928
 3169TIP3   OH231141   1.061   0.412   1.558  0.0609  0.2721 -0.1789
 3169TIP3    H131142   1.140   0.434   1.607  0.6133  2.2903 -1.8274
 3169TIP3    H231143   0.991   0.417   1.623  0.7087  3.1571  0.4345
 3170TIP3   OH231144   1.798   4.401   1.470 -0.1360  0.2613  0.1195
 3170TIP3    H131145   1.807   4.455   1.549 -0.7137  0.4713  0.0447
 3170TIP3    H231146   1.705   4.376   1.469  0.2577 -1.3324  0.5472
 3171TIP3   OH231147   2.775   0.610   7.281 -0.7348 -0.1482 -0.0106
 3171TIP3    H131148   2.754   0.698   7.250  0.2760  0.6463  1.4445
 3171TIP3    H231149   2.870   0.607   7.282 -0.7622 -1.1944  0.1418
 3172TIP3   OH231150   0.140   1.383   0.358  0.4008  0.2862 -0.0867
 3172TIP3    H131151   0.107   1.458   0.409 -0.3761  0.3785 -0.7044
 3172TIP3    H231152   0.104   1.396   0.270  0.2743 -0.8115 -0.2081
 3173TIP3   OH231153   3.315   2.169   1.283 -0.6207 -0.0892  0.2330
 3173TIP3    H131154   3.236   2.223   1.283 -1.0360 -0.6460 -1.5418
 3173TIP3    H231155   3.311   2.121   1.366 -3.0188 -1.3112 -0.4961
 3174TIP3   OH231156   2.945   5.958   1.210  0.0934  0.5564 -0.2269
 3174TIP3    H131157   2.928   5.882   1.154 -0.1963  1.0262 -0.7747
 3174TIP3    H231158   2.978   5.919   1.292  0.8575 -0.1076 -0.8348
 3175TIP3   OH231159   4.378   5.156   6.488 -0.0751  0.0182  0.2746
 3175TIP3    H131160   4.419   5.090   6.544 -0.9447 -0.6500  0.1479
 3175TIP3    H231161   4.358   5.228   6.547  0.8270  0.1543  0.4309
 3176TIP3   OH231162   6.463   2.222   5.697  0.2631 -0.3686  0.9687
 3176TIP3    H131163   6.392   2.248   5.638 -0.3491  0.1623  1.9019
 3176TIP3    H231164   6.420   2.216   5.783  0.7829 -2.6047  1.1310
 3177TIP3   OH231165   3.274   5.822   6.892  0.0573  0.1250  0.5046
 3177TIP3    H131166   3.224   5.876   6.953 -1.4091 -0.3626 -0.2085
 3177TIP3    H231167   3.330   5.884   6.846  0.4095  0.6371  1.5874
 3178TIP3   OH231168   2.534   2.472   0.309  0.4740  0.0147 -0.2459
 3178TIP3    H131169   2.586   2.451   0.386  0.2617  1.9421  0.4611
 3178TIP3    H231170   2.562   2.560   0.283 -0.7610  0.1470 -1.2620
 3179TIP3   OH231171   3.005   5.628   1.187  0.0840 -0.4936  0.0250
 3179TIP3    H131172   2.972   5.563   1.251  0.1242 -1.6299 -1.0699
 3179TIP3    H231173   2.935   5.635   1.123  0.3520  0.0881 -0.2056
 3180TIP3   OH231174   3.608   1.224   0.130  0.5355 -0.6285  0.7500
 3180TIP3    H131175   3.519   1.231   0.165  0.2840 -0.3263  0.0679
 3180TIP3    H231176   3.605   1.148   0.073  0.4116  0.0155 -0.1241
 3181TIP3   OH231177   1.513   1.492   0.656 -0.0256  0.6724 -0.0195
 3181TIP3    H131178   1.498   1.565   0.596 -1.5036 -0.2061 -0.7775
 3181TIP3    H231179   1.510   1.531   0.743 -2.2446  1.3474 -0.3368
 3182TIP3   OH231180   2.988   6.730   7.352  0.4132 -0.0396  0.3281
 3182TIP3    H131181   2.993   6.747   7.446  1.6677  1.0853  0.0839
 3182TIP3    H231182   3.028   6.644   7.341 -0.0054 -0.3078  0.8331
 3183TIP3   OH231183   1.463   3.238   5.775  0.5120  0.2087 -0.2903
 3183TIP3    H131184   1.531   3.194   5.826 -1.9464 -0.4238  2.7600
 3183TIP3    H231185   1.395   3.171   5.763 -1.0734  1.6997 -0.1159
 3184TIP3   OH231186   4.231   5.555   7.404 -1.0393  0.1845  0.3660
 3184TIP3    H131187   4.162   5.591   7.349 -0.4384  0.5089 -0.1948
 3184TIP3    H231188   4.202   5.572   7.494 -1.9116 -0.1251  0.1535
 3185TIP3   OH231189   4.918   2.918   0.150 -0.0882  0.1619 -0.1898
 3185TIP3    H131190   4.911   2.898   0.244  2.4663 -0.3760 -0.0473
 3185TIP3    H231191   4.893   2.837   0.106  2.5989 -0.9755  0.2002
 3186TIP3   OH231192   2.786   3.424   7.220  0.5488 -0.0788 -0.5060
 3186TIP3    H131193   2.720   3.374   7.267  1.2731 -1.5636 -0.9958
 3186TIP3    H231194   2.805   3.499   7.276 -0.5292 -0.3717  0.2775
 3187TIP3   OH231195   4.666   1.963   7.450  0.2520 -0.0157 -0.1548
 3187TIP3    H131196   4.667   1.949   7.356  0.6745  0.8417 -0.2813
 3187TIP3    H231197   4.752   1.999   7.471  0.9856 -2.1646  0.8892
 3188TIP3   OH231198   3.326   1.492   2.156  0.0259 -0.4967 -0.0075
 3188TIP3    H131199   3.334   1.559   2.223 -0.1834 -0.4818  0.0020
 3188TIP3    H231200   3.403   1.505   2.099  0.6490 -1.0288  0.6868
 3189TIP3   OH231201   1.009   4.263   1.743 -0.0430  0.1112  0.3996
 3189TIP3    H131202   1.006   4.168   1.728  1.3532 -0.1541  1.5950
 3189TIP3    H231203   1.068   4.274   1.817 -0.4087  1.9152  0.4688
 3190TIP3   OH231204   1.913   6.023   1.796 -0.6344  0.2041  0.5531
 3190TIP3    H131205   1.905   5.943   1.848  0.4141  1.5868  3.0143
 3190TIP3    H231206   1.823   6.057   1.791 -0.8708 -0.3768  0.7213
 3191TIP3   OH231207   6.684   4.148   1.329  0.0257 -0.7376  0.2513
 3191TIP3    H131208   6.705   4.064   1.288  0.6397 -0.8754  0.8204
 3191TIP3    H231209   6.735   4.148   1.410  0.1148  0.2381  0.2056
 3192TIP3   OH231210   3.138   1.070   7.200  0.2543  0.4526  0.1772
 3192TIP3    H131211   3.066   1.132   7.191  2.0751  2.8158  0.8137
 3192TIP3    H231212   3.217   1.125   7.199  2.1335 -2.0649 -1.3254
 3193TIP3   OH231213   5.276   3.661   1.825 -0.7594 -0.4927  0.3347
 3193TIP3    H131214   5.279   3.757   1.825 -1.4850 -0.4466 -0.8353
 3193TIP3    H231215   5.251   3.638   1.735  1.8962 -1.8692 -0.1546
 3194TIP3   OH231216   1.015   2.249   1.905  0.0211  0.1850  0.2050
 3194TIP3    H131217   0.957   2.211   1.971 -0.5493  0.7981  0.0674
 3194TIP3    H231218   1.079   2.180   1.886 -0.6054 -0.4665  0.4285
 3195TIP3   OH231219   4.733   0.886   7.660 -0.0235 -0.5234 -0.6050
 3195TIP3    H131220   4.724   0.798   7.623 -0.4040 -0.0737 -1.6256
 3195TIP3    H231221   4.647   0.905   7.698 -0.0360 -0.4729 -0.6588
 3196TIP3   OH231222   5.881   6.161   1.382  0.2730  0.3064 -0.0830
 3196TIP3    H131223   5.871   6.207   1.465  0.5154 -1.3278  0.8849
 3196TIP3    H231224   5.798   6.114   1.370 -0.2265  1.4529 -1.3847
 3197TIP3   OH231225   1.299   6.808   7.751  0.3144 -0.7766  0.1805
 3197TIP3    H131226   1.244   6.782   7.826  0.4613 -3.7277 -0.6133
 3197TIP3    H231227   1.255   6.770   7.675  0.8396  1.1072 -1.1388
 3198TIP3   OH231228   0.905   5.469   0.111 -0.1610 -0.1924 -0.0053
 3198TIP3    H131229   0.892   5.553   0.066  0.1072 -0.4517 -0.5751
 3198TIP3    H231230   0.817   5.440   0.133 -0.3344 -0.3247 -0.8562
 3199TIP3   OH231231   3.007   3.491   7.851  0.3011  0.0929  0.2700
 3199TIP3    H131232   2.954   3.432   7.798  0.7595 -0.1767  0.1091
 3199TIP3    H231233   2.971   3.481   7.940  0.3912 -0.4446  0.2488
 3200TIP3   OH231234   3.606   2.962   7.338 -0.4653  0.3785  0.4326
 3200TIP3    H131235   3.618   3.037   7.396  0.3939  1.5341 -1.1729
 3200TIP3    H231236   3.512   2.955   7.327 -0.5307  1.4751  0.2726
 3201TIP3   OH231237   6.347   3.508   0.425  0.0036  0.2473  0.4315
 3201TIP3    H131238   6.387   3.594   0.417 -1.0411  0.7608  0.5616
 3201TIP3    H231239   6.304   3.509   0.511  0.5176 -0.6412  0.7175
 3202TIP3   OH231240   3.501   3.973   1.354  0.0635  0.3409 -0.1838
 3202TIP3    H131241   3.495   3.877   1.350 -3.3134  0.4123  0.2975
 3202TIP3    H231242   3.571   3.995   1.293 -0.0751 -2.3556 -1.4666
 3203TIP3   OH231243   4.494   5.550   7.839 -0.3851  0.1728  0.1870
 3203TIP3    H131244   4.499   5.467   7.792 -1.4231 -1.8189  3.3083
 3203TIP3    H231245   4.574   5.597   7.813 -0.2802 -1.2736 -2.4637
 3204TIP3   OH231246   3.300   2.140   0.042 -0.4442  0.0929  0.3784
 3204TIP3    H131247   3.294   2.044   0.037 -0.4244  0.1095  0.0438
 3204TIP3    H231248   3.391   2.159   0.017  0.0994  0.0751  2.1812
 3205TIP3   OH231249   1.301   3.090   7.497  0.1937  0.8116 -0.1876
 3205TIP3    H131250   1.380   3.106   7.549  0.7657 -0.5244 -0.6184
 3205TIP3    H231251   1.304   3.157   7.429  1.8585 -0.2105 -1.1866
 3206TIP3   OH231252   3.148   4.223   7.472  0.0155 -0.0100  0.1929
 3206TIP3    H131253   3.112   4.198   7.558  0.9090  0.9578  0.8712
 3206TIP3    H231254   3.242   4.231   7.488  0.2417 -0.2047 -0.9927
 3207TIP3   OH231255   2.923   1.322   1.500 -0.0175  1.2136 -0.0506
 3207TIP3    H131256   2.835   1.351   1.522 -1.2206  0.4618 -3.2703
 3207TIP3    H231257   2.910   1.235   1.461  1.8210  1.9078 -2.4496
 3208TIP3   OH231258   1.303   6.584   8.024 -0.2625 -0.5415  0.3182
 3208TIP3    H131259   1.294   6.524   7.950  0.4137 -0.6276  0.2981
 3208TIP3    H231260   1.256   6.541   8.095  1.6052 -1.9391  0.7809
 3209TIP3   OH231261   6.155   6.365   5.838  0.0489 -0.4235 -0.1593
 3209TIP3    H131262   6.075   6.346   5.888 -1.2906  0.2251 -1.9419
 3209TIP3    H231263   6.176   6.281   5.796  1.3236 -1.0379  1.5903
 3210TIP3   OH231264   0.309   0.832   6.902 -0.3518 -0.0462 -0.3131
 3210TIP3    H131265   0.297   0.903   6.839 -0.6588 -0.2654 -0.5030
 3210TIP3    H231266   0.308   0.753   6.849  0.5386 -0.1635 -0.1683
 3211TIP3   OH231267   4.745   0.579   7.789 -0.3438 -0.2813 -0.3630
 3211TIP3    H131268   4.664   0.593   7.837 -0.6415 -0.0591 -0.9230
 3211TIP3    H231269   4.814   0.614   7.846 -0.5035 -1.4926  0.6209
 3212TIP3   OH231270   6.386   2.418   0.311 -0.2289 -0.6824 -0.3373
 3212TIP3    H131271   6.410   2.388   0.223 -0.4127  1.1615 -1.0468
 3212TIP3    H231272   6.411   2.345   0.369  2.6272 -0.7862 -1.5454
 3213TIP3   OH231273   2.294   1.702   6.202  0.1698  0.1371  0.0486
 3213TIP3    H131274   2.246   1.755   6.138  0.5761  1.2224  0.6358
 3213TIP3    H231275   2.232   1.633   6.227  0.3399 -0.9710 -2.2870
 3214TIP3   OH231276   1.891   0.383   5.855 -0.1409 -0.0269  0.1789
 3214TIP3    H131277   1.842   0.455   5.814  0.6000  0.5534  0.3027
 3214TIP3    H231278   1.963   0.426   5.901 -1.5058 -0.5198  3.0361
 3215TIP3   OH231279   3.981   4.286   8.027  0.1227 -0.4769 -0.4680
 3215TIP3    H131280   4.071   4.314   8.045 -0.1104 -1.2231  2.3282
 3215TIP3    H231281   3.986   4.191   8.022 -0.7414 -0.7035  1.8546
 3216TIP3   OH231282   3.251   6.667   5.811  0.0744  0.0210  0.3434
 3216TIP3    H131283   3.212   6.663   5.724  0.9453 -0.6170 -0.0325
 3216TIP3    H231284   3.198   6.606   5.863  1.3198 -1.8955 -0.4978
 3217TIP3   OH231285   5.149   3.059   6.213 -0.0923  0.1434 -0.4334
 3217TIP3    H131286   5.242   3.072   6.231  0.2881 -0.6916 -1.6441
 3217TIP3    H231287   5.144   3.053   6.117 -1.1434 -1.4466 -0.3106
 3218TIP3   OH231288   1.809   4.622   7.410  0.3142  0.0102  0.1015
 3218TIP3    H131289   1.765   4.655   7.332 -0.2053  1.6600  1.0373
 3218TIP3    H231290   1.738   4.591   7.466  0.5929 -0.0983  0.4001
 3219TIP3   OH231291   6.102   3.425   7.870  0.4060  0.6126  0.5492
 3219TIP3    H131292   6.101   3.492   7.939  2.1199  0.0671  1.1583
 3219TIP3    H231293   6.125   3.344   7.915  1.5501  0.2409 -0.6319
 3220TIP3   OH231294   3.642   0.075   7.311  0.2745  0.3097  0.1074
 3220TIP3    H131295   3.569   0.013   7.307 -0.7523  1.5375 -1.6899
 3220TIP3    H231296   3.704   0.043   7.244  1.7387 -1.0428  1.9949
 3221TIP3   OH231297   2.052   0.739   0.876 -0.3942 -0.2564  0.2590
 3221TIP3    H131298   2.047   0.826   0.837 -2.7459  0.2294  1.4089
 3221TIP3    H231299   2.103   0.751   0.956  0.7532 -0.3296 -0.4504
 3222TIP3   OH231300   0.608   2.508   0.770  0.7052 -0.3778 -0.2726
 3222TIP3    H131301   0.578   2.444   0.705 -1.1998 -0.0406  0.2259
 3222TIP3    H231302   0.617   2.458   0.851  0.2525 -0.2265 -0.1283
 3223TIP3   OH231303   6.431   3.344   7.263 -0.3586 -0.1291  0.2707
 3223TIP3    H131304   6.388   3.272   7.216 -0.2561  0.6337 -1.0586
 3223TIP3    H231305   6.504   3.368   7.206  1.7088 -1.1797  2.2978
 3224TIP3   OH231306   6.913   3.302   0.524 -0.0078 -0.1342  0.2145
 3224TIP3    H131307   6.863   3.245   0.466 -0.8699  0.2163  0.5847
 3224TIP3    H231308   6.904   3.262   0.610 -0.2455  0.3062  0.3983
 3225TIP3   OH231309   2.153   6.061   1.969  0.1897 -0.2017  0.3902
 3225TIP3    H131310   2.076   6.017   1.933  0.0190  1.1726 -0.9786
 3225TIP3    H231311   2.197   5.993   2.020 -0.0273 -2.0069 -1.6843
 3226TIP3   OH231312   1.322   3.256   0.488  0.7352  0.0886 -0.0325
 3226TIP3    H131313   1.356   3.175   0.451  0.5442  0.7536 -1.7753
 3226TIP3    H231314   1.301   3.310   0.411 -0.6189  1.1740  1.0516
 3227TIP3   OH231315   5.349   3.371   1.841  0.0260  0.9691 -0.1301
 3227TIP3    H131316   5.261   3.402   1.820 -0.1391  0.1174 -0.7749
 3227TIP3    H231317   5.355   3.378   1.936 -1.3715 -0.5042  0.1191
 3228TIP3   OH231318   1.151   6.102   0.385  0.1450  0.0996 -0.2292
 3228TIP3    H131319   1.246   6.113   0.393  0.2869 -0.5194 -1.0359
 3228TIP3    H231320   1.121   6.183   0.345  0.2049  0.6765  0.8494
 3229TIP3   OH231321   4.361   5.314   7.518 -0.1091  0.1192 -0.3275
 3229TIP3    H131322   4.313   5.387   7.477  0.8916  1.6415  1.1002
 3229TIP3    H231323   4.321   5.305   7.604  1.6728  0.9837  0.6415
 3230TIP3   OH231324   5.262   4.395   7.790 -0.0041 -0.2862  0.6416
 3230TIP3    H131325   5.255   4.488   7.771 -1.3039 -0.0093  2.2712
 3230TIP3    H231326   5.185   4.376   7.844  1.4208 -1.8203  2.2207
 3231TIP3   OH231327   2.805   0.965   6.718 -0.6673 -0.0045  0.1896
 3231TIP3    H131328   2.797   0.885   6.770 -0.9958 -0.2818 -0.2801
 3231TIP3    H231329   2.715   0.993   6.704 -0.5840  0.0193 -0.3021
 3232TIP3   OH231330   6.746   2.351   6.776  0.4057 -0.1002 -0.0475
 3232TIP3    H131331   6.828   2.392   6.749  0.4547 -1.6421 -2.4591
 3232TIP3    H231332   6.729   2.284   6.710 -0.8769 -2.4068  2.4318
 3233TIP3   OH231333   5.096   4.623   6.935  0.6924 -0.1783  0.4906
 3233TIP3    H131334   5.075   4.531   6.951  0.0027 -0.0760  0.2111
 3233TIP3    H231335   5.081   4.635   6.841 -1.1512  0.6870  0.8539
 3234TIP3   OH231336   1.897   1.784   8.046  0.0662 -0.3109 -0.1299
 3234TIP3    H131337   1.909   1.879   8.049 -1.4704 -0.1285  1.3567
 3234TIP3    H231338   1.849   1.768   7.964 -0.1902  0.2580 -0.0954
 3235TIP3   OH231339   6.534   6.537   0.544  0.0297  0.0819  0.2482
 3235TIP3    H131340   6.582   6.505   0.621 -0.3803  0.3812  0.6316
 3235TIP3    H231341   6.470   6.468   0.526  1.5732 -1.0536 -1.2012
 3236TIP3   OH231342   6.259   3.927   0.774  0.1606  0.1553  0.4581
 3236TIP3    H131343   6.197   3.882   0.717 -0.5897  1.2330  0.3883
 3236TIP3    H231344   6.248   3.884   0.859 -0.3524  0.0227  0.3324
 3237TIP3   OH231345   4.732   0.115   7.659  0.0174 -0.2448  0.1072
 3237TIP3    H131346   4.755   0.207   7.642 -2.0525  0.4772  0.8098
 3237TIP3    H231347   4.695   0.084   7.576 -1.3951  0.3191  0.4929
 3238TIP3   OH231348   4.602   2.807   7.621 -0.1736 -0.1061  0.4109
 3238TIP3    H131349   4.546   2.824   7.697  0.7900 -1.0480  1.3587
 3238TIP3    H231350   4.609   2.712   7.617  1.0334 -0.0149  0.0595
 3239TIP3   OH231351   1.040   2.693   0.896  0.1056  0.3493 -0.0736
 3239TIP3    H131352   1.005   2.734   0.975  0.3908  0.8344 -0.1950
 3239TIP3    H231353   1.122   2.653   0.924  0.0949  0.3268 -0.0744
 3240TIP3   OH231354   3.247   3.470   1.302 -0.0052 -0.1896  0.0928
 3240TIP3    H131355   3.169   3.510   1.339  1.8934  2.2900  1.6727
 3240TIP3    H231356   3.279   3.412   1.371  0.8797  0.7298  0.4798
 3241TIP3   OH231357   2.057   0.336   0.469  0.1553 -0.3244 -0.5206
 3241TIP3    H131358   2.038   0.255   0.421  1.3457 -0.3681 -0.9397
 3241TIP3    H231359   1.970   0.369   0.495 -0.3971 -1.2450 -1.1375
 3242TIP3   OH231360   5.215   4.700   6.373 -0.6132  0.1798 -0.0962
 3242TIP3    H131361   5.202   4.680   6.280 -2.5932 -1.4907  0.4473
 3242TIP3    H231362   5.244   4.617   6.410 -0.6168  0.6200  0.8983
 3243TIP3   OH231363   3.795   6.496   6.500  0.0037 -0.1105 -0.2433
 3243TIP3    H131364   3.851   6.430   6.542 -0.3048 -0.8922 -1.0200
 3243TIP3    H231365   3.819   6.579   6.542  3.0461 -0.0905 -1.7046
 3244TIP3   OH231366   5.925   4.404   1.180 -0.3057 -0.0294 -0.3392
 3244TIP3    H131367   5.973   4.323   1.199  0.5435  0.5132 -0.1407
 3244TIP3    H231368   5.835   4.384   1.204 -0.0024 -0.7305  0.2583
 3245TIP3   OH231369   0.516   2.088   0.166  0.3697  0.9327  0.3357
 3245TIP3    H131370   0.507   2.182   0.156 -0.2240  0.6721 -2.8230
 3245TIP3    H231371   0.598   2.067   0.120  0.2398 -0.1238  0.5624
 3246TIP3   OH231372   5.804   3.730   7.142 -0.4752  0.5114  0.0857
 3246TIP3    H131373   5.807   3.754   7.050 -2.1176 -1.6607 -0.6087
 3246TIP3    H231374   5.714   3.749   7.169 -0.9741 -1.8639  0.2847
 3247TIP3   OH231375   4.914   6.248   7.812 -0.3181  0.6701 -0.2071
 3247TIP3    H131376   4.995   6.213   7.849 -1.1940 -0.9337  0.3037
 3247TIP3    H231377   4.880   6.307   7.879  0.1312  0.8980 -0.1761
 3248TIP3   OH231378   4.591   6.690   7.013 -0.0368  0.5140  0.4386
 3248TIP3    H131379   4.628   6.771   6.979 -0.9057  0.4821 -0.6525
 3248TIP3    H231380   4.666   6.631   7.022  0.5830  1.3673  1.1133
 3249TIP3   OH231381   2.179   2.366   2.168  0.2099 -0.6379  0.0344
 3249TIP3    H131382   2.154   2.406   2.085 -1.1201  0.6852  1.0312
 3249TIP3    H231383   2.119   2.292   2.179  0.0654 -0.5187  0.0444
 3250TIP3   OH231384   6.877   6.961   1.511  0.1791 -0.1550 -0.2771
 3250TIP3    H131385   6.853   6.927   1.598 -0.3822  1.9091  0.4292
 3250TIP3    H231386   6.805   7.020   1.488  0.5107 -0.3862 -1.9979
 3251TIP3   OH231387   6.619   6.503   6.401 -0.7945 -0.3761  0.3494
 3251TIP3    H131388   6.631   6.591   6.437  1.2899 -0.1073 -0.8417
 3251TIP3    H231389   6.532   6.506   6.360 -1.1945  0.7860  1.2335
 3252TIP3   OH231390   4.945   0.846   0.264 -0.6803 -0.3195  0.8363
 3252TIP3    H131391   4.980   0.757   0.261 -0.7953 -0.5523  3.5642
 3252TIP3    H231392   5.017   0.898   0.300 -0.5370  0.7844 -0.9444
 3253TIP3   OH231393   2.702   3.544   1.689 -0.4838 -0.1071 -0.3447
 3253TIP3    H131394   2.732   3.549   1.780  0.1252  0.9503 -0.5881
 3253TIP3    H231395   2.682   3.451   1.675 -1.7133 -0.1127  1.2093
 3254TIP3   OH231396   2.376   2.193   0.698  0.5207  0.2679  0.7096
 3254TIP3    H131397   2.318   2.169   0.626  1.2456  1.3212 -0.2656
 3254TIP3    H231398   2.442   2.124   0.699  1.4820  1.1039 -0.7971
 3255TIP3   OH231399   3.881   6.076   0.097 -0.4599  0.4864 -0.3388
 3255TIP3    H131400   3.878   6.002   0.036 -1.0962 -0.6571  1.0220
 3255TIP3    H231401   3.955   6.056   0.155 -0.0447  1.4072 -0.5328
 3256TIP3   OH231402   1.474   3.941   6.122 -0.3105  0.1757  0.3880
 3256TIP3    H131403   1.387   3.900   6.122 -0.1505 -0.2505 -1.3897
 3256TIP3    H231404   1.461   4.026   6.162 -1.0703 -0.7638  2.2683
 3257TIP3   OH231405   1.656   3.339   6.127 -0.0046 -0.2121  0.5744
 3257TIP3    H131406   1.604   3.344   6.047 -0.9661 -2.8511  0.9202
 3257TIP3    H231407   1.746   3.330   6.098 -0.2880 -0.6015 -0.2064
 3258TIP3   OH231408   6.285   2.053   0.024  0.2170 -0.8967 -0.1692
 3258TIP3    H131409   6.205   2.099   0.050  0.0092 -0.9513 -0.6950
 3258TIP3    H231410   6.331   2.036   0.107 -0.1434 -0.5543  0.1067
 3259TIP3   OH231411   5.290   5.612   0.890  0.1843  0.3570 -0.1110
 3259TIP3    H131412   5.218   5.557   0.919  0.1327  0.7885  0.6003
 3259TIP3    H231413   5.334   5.561   0.822 -0.9728  0.2249 -0.7772
 3260TIP3   OH231414   3.470   6.901   0.796  0.3901 -0.3487 -0.1663
 3260TIP3    H131415   3.417   6.877   0.719  0.0301  1.0765 -0.4134
 3260TIP3    H231416   3.532   6.966   0.762 -1.0119  1.7640  1.0387
 3261TIP3   OH231417   1.454   3.784   2.289 -0.3550  0.6890 -0.5641
 3261TIP3    H131418   1.423   3.768   2.378 -1.2451  0.4406 -0.9112
 3261TIP3    H231419   1.506   3.707   2.267  0.3264  0.9941 -0.0748
 3262TIP3   OH231420   0.731   0.454   6.502 -0.0757 -0.5362  0.4595
 3262TIP3    H131421   0.638   0.455   6.521 -0.0783  0.7435  0.4342
 3262TIP3    H231422   0.772   0.495   6.577  0.2519  0.9219 -0.4721
 3263TIP3   OH231423   1.941   6.636   6.088  0.0827 -0.4225  0.2071
 3263TIP3    H131424   1.857   6.634   6.041  0.3243  0.3395 -0.2753
 3263TIP3    H231425   1.999   6.688   6.032  1.1182 -1.5835  0.1693
 3264TIP3   OH231426   0.687   5.827   0.343 -0.3740 -0.0972 -0.0526
 3264TIP3    H131427   0.682   5.732   0.356  1.5773 -0.5519 -2.0708
 3264TIP3    H231428   0.724   5.860   0.425 -3.1160 -0.7036  1.5628
 3265TIP3   OH231429   1.760   5.445   0.657 -0.0124 -0.0749 -0.3412
 3265TIP3    H131430   1.842   5.493   0.648 -0.7954  1.1405 -1.2360
 3265TIP3    H231431   1.702   5.503   0.706 -0.7619 -0.3535 -0.8631
 3266TIP3   OH231432   0.709   0.251   7.288 -0.2164  0.4742 -0.3903
 3266TIP3    H131433   0.656   0.219   7.214  1.1269  0.0051 -1.1850
 3266TIP3    H231434   0.800   0.242   7.258  0.3452  0.7350  1.1471
 3267TIP3   OH231435   4.396   4.559   1.664  0.2740 -0.5040 -0.0560
 3267TIP3    H131436   4.328   4.550   1.731  1.2347 -0.7859  0.9007
 3267TIP3    H231437   4.432   4.646   1.677  0.5546 -0.6105 -0.1144
 3268TIP3   OH231438   2.926   4.608   0.130  0.0184  0.0730  0.4630
 3268TIP3    H131439   2.846   4.630   0.082 -0.3625 -0.5689  0.7925
 3268TIP3    H231440   2.923   4.661   0.209 -1.4514 -1.8854  1.7998
 3269TIP3   OH231441   3.942   5.430   0.784 -0.1874  0.9077  0.2383
 3269TIP3    H131442   4.015   5.492   0.778  2.6783 -2.1437  0.2176
 3269TIP3    H231443   3.927   5.403   0.693  0.7295 -0.5333  0.4730
 3270TIP3   OH231444   6.943   0.035   7.466 -0.3404  0.0257 -0.2625
 3270TIP3    H131445   6.893  -0.046   7.471 -1.6075  0.7233 -1.1559
 3270TIP3    H231446   6.982   0.034   7.379  0.2016  0.0668 -0.0234
 3271TIP3   OH231447   4.489   4.104   1.254 -0.2782 -0.2083 -0.7797
 3271TIP3    H131448   4.528   4.192   1.256 -0.8283  0.0548 -1.3855
 3271TIP3    H231449   4.557   4.047   1.290 -0.8448  0.8220  2.1767
 3272TIP3   OH231450   5.667   3.751   1.120 -0.4474  0.0128 -0.1775
 3272TIP3    H131451   5.604   3.689   1.156 -1.1729  1.5128  1.2966
 3272TIP3    H231452   5.649   3.833   1.166 -0.4087  1.7157 -2.9769
 3273TIP3   OH231453   4.061   3.960   6.788  0.1226 -0.4954 -0.0400
 3273TIP3    H131454   4.128   4.017   6.824 -0.1678  1.6236 -2.5696
 3273TIP3    H231455   4.107   3.907   6.723 -0.4743  0.5343 -1.3475
 3274TIP3   OH231456   3.866   3.735   0.105 -0.5049  0.2692 -0.1383
 3274TIP3    H131457   3.878   3.796   0.032 -0.7886 -0.8662 -1.1612
 3274TIP3    H231458   3.776   3.748   0.133 -0.3558  0.8006  0.1204
 3275TIP3   OH231459   4.246   1.983   7.434 -0.0615  0.0292 -0.6869
 3275TIP3    H131460   4.155   1.960   7.416 -0.5996  0.5129  1.1485
 3275TIP3    H231461   4.279   1.908   7.484  0.0831  0.4644 -0.1097
 3276TIP3   OH231462   5.773   3.392   7.764  0.0275  0.7567 -0.2249
 3276TIP3    H131463   5.847   3.338   7.737 -1.0963 -0.8457 -0.2951
 3276TIP3    H231464   5.798   3.481   7.742  3.0765  0.6931  2.1975
 3277TIP3   OH231465   2.155   4.889   7.940 -0.4147 -0.0227  0.3327
 3277TIP3    H131466   2.095   4.937   7.883 -0.2418 -0.6729 -0.4231
 3277TIP3    H231467   2.194   4.956   7.997  2.4647  1.4028 -2.9602
 3278TIP3   OH231468   0.552   2.044   7.893 -0.4160  0.2888  1.0062
 3278TIP3    H131469   0.626   2.103   7.909  0.1269 -0.6881  2.3197
 3278TIP3    H231470   0.481   2.101   7.866  0.0662  1.5721  2.2939
 3279TIP3   OH231471   4.559   4.827   1.678  0.2973 -0.0075  0.5544
 3279TIP3    H131472   4.521   4.853   1.762  2.9393 -0.3956  1.9730
 3279TIP3    H231473   4.630   4.889   1.664  0.2239 -0.2756 -1.1772
 3280TIP3   OH231474   6.398   2.287   0.726 -0.2864  0.3029 -0.0427
 3280TIP3    H131475   6.489   2.307   0.706 -0.8152  0.3946 -2.7787
 3280TIP3    H231476   6.401   2.202   0.769  1.0794  0.0533 -0.5791
 3281TIP3   OH231477   7.076   0.545   7.042  0.1240  0.0479  0.0836
 3281TIP3    H131478   7.116   0.529   6.957 -1.7373  1.2147 -1.0729
 3281TIP3    H231479   7.069   0.640   7.049 -1.8060 -0.0809  0.4946
 3282TIP3   OH231480   1.672   4.181   6.277 -0.1757 -0.0190 -0.2104
 3282TIP3    H131481   1.677   4.089   6.254 -0.9900 -0.1681  0.1692
 3282TIP3    H231482   1.606   4.217   6.217  0.5119  0.4269 -0.7025
 3283TIP3   OH231483   2.069   0.591   1.997 -0.2856  0.2527 -0.0414
 3283TIP3    H131484   2.068   0.504   2.037 -0.0656 -0.0296 -0.6333
 3283TIP3    H231485   2.137   0.639   2.046  0.4286 -0.2907 -0.4878
 3284TIP3   OH231486   6.272   4.936   6.934 -0.4725  0.0585 -0.0818
 3284TIP3    H131487   6.255   4.987   7.013 -1.4439  0.6585 -0.6488
 3284TIP3    H231488   6.342   4.875   6.958 -1.9839 -1.0457  1.7925
 3285TIP3   OH231489   4.830   5.955   0.363  0.4717 -0.0335 -0.4703
 3285TIP3    H131490   4.871   6.013   0.298  2.6274 -0.8708  0.0549
 3285TIP3    H231491   4.903   5.913   0.407 -1.0001 -2.1777  0.0769
 3286TIP3   OH231492   5.880   5.647   8.034  0.0183  0.2927  0.3057
 3286TIP3    H131493   5.881   5.566   7.983  0.0033  1.1109 -1.0453
 3286TIP3    H231494   5.899   5.619   8.124  2.9323 -0.8974 -0.5600
 3287TIP3   OH231495   6.088   3.842   7.849 -1.0052 -0.0531 -0.6824
 3287TIP3    H131496   6.109   3.908   7.915  0.1049  0.1280 -1.1855
 3287TIP3    H231497   6.036   3.777   7.895  0.4938 -0.3821  0.6042
 3288TIP3   OH231498   3.351   5.673   7.449 -0.7055  0.8238  0.0849
 3288TIP3    H131499   3.366   5.701   7.358 -1.9243  1.0809 -0.0543
 3288TIP3    H231500   3.358   5.753   7.500  1.4308  0.4650  0.4395
 3289TIP3   OH231501   4.755   0.950   0.674  0.2200  0.0656  0.1184
 3289TIP3    H131502   4.663   0.923   0.677  0.1071  0.5013  0.8839
 3289TIP3    H231503   4.801   0.876   0.635 -0.8234  0.9257 -3.0385
 3290TIP3   OH231504   3.435   1.059   0.297 -0.1196  0.0633 -0.1400
 3290TIP3    H131505   3.515   1.013   0.320  0.6201  0.7837 -1.1723
 3290TIP3    H231506   3.365   1.008   0.337  0.8120 -0.8899  0.3094
 3291TIP3   OH231507   0.982   5.427   1.052  0.1328  0.0298 -0.4605
 3291TIP3    H131508   0.942   5.341   1.066  2.9508 -1.4008 -0.6288
 3291TIP3    H231509   0.933   5.486   1.110  0.0428 -2.2654  1.9583
 3292TIP3   OH231510   2.146   3.958   0.123  0.5224  0.1722  0.1792
 3292TIP3    H131511   2.208   3.945   0.051  0.4996  0.7486  0.0572
 3292TIP3    H231512   2.191   4.018   0.183  1.0515 -1.2130  1.2525
 3293TIP3   OH231513   3.408   4.339   0.246 -0.8280  0.4079  0.6033
 3293TIP3    H131514   3.337   4.381   0.197 -1.8728 -0.1254  1.6240
 3293TIP3    H231515   3.434   4.265   0.191 -0.1589  1.3507 -0.3862
 3294TIP3   OH231516   1.848   1.413   0.280 -0.2793  0.2005 -0.1125
 3294TIP3    H131517   1.839   1.455   0.194  1.9781 -1.3515 -1.2328
 3294TIP3    H231518   1.801   1.330   0.270  0.0154  0.0012  0.1468
 3295TIP3   OH231519   1.956   3.836   7.526 -0.0322 -0.2117 -0.2522
 3295TIP3    H131520   1.994   3.863   7.443 -1.0424  0.9293 -0.3516
 3295TIP3    H231521   1.933   3.744   7.513 -0.2993 -0.0067 -1.2707
 3296TIP3   OH231522   6.809   1.119   5.933  0.3320  0.2263  0.1064
 3296TIP3    H131523   6.765   1.035   5.950  0.1401  0.2750 -0.1416
 3296TIP3    H231524   6.758   1.182   5.983 -1.7547  0.7724 -2.4703
 3297TIP3   OH231525   6.405   5.966   7.078 -0.0344  0.2211 -0.4086
 3297TIP3    H131526   6.386   6.052   7.040  0.3644 -0.6446 -2.7274
 3297TIP3    H231527   6.323   5.940   7.120 -0.2913  1.5386 -0.0529
 3298TIP3   OH231528   5.378   5.904   7.247  0.5886 -0.6399  0.2186
 3298TIP3    H131529   5.289   5.937   7.233  0.5323 -0.5233  0.8081
 3298TIP3    H231530   5.429   5.941   7.176  0.1491 -0.7786 -0.1807
 3299TIP3   OH231531   6.871   5.170   0.694  0.2133 -0.2461 -0.2669
 3299TIP3    H131532   6.803   5.238   0.685 -1.0386 -1.4515 -0.1765
 3299TIP3    H231533   6.903   5.181   0.784 -0.9271 -0.6184  0.2002
 3300TIP3   OH231534   4.933   2.049   7.182  0.3447 -0.5153 -0.0831
 3300TIP3    H131535   4.892   1.966   7.206  1.6257 -1.2406 -0.3155
 3300TIP3    H231536   5.027   2.030   7.182  0.6651  0.9699 -0.0274
 3301TIP3   OH231537   3.447   3.674   7.207  0.0886  0.6484 -0.2874
 3301TIP3    H131538   3.373   3.662   7.147 -0.0672 -0.7637  0.1520
 3301TIP3    H231539   3.498   3.593   7.198  0.2397  0.5501  1.2341
 3302TIP3   OH231540   0.771   1.766   0.330  0.4801 -0.0082 -0.0677
 3302TIP3    H131541   0.776   1.673   0.352 -2.0322  0.0141  0.9141
 3302TIP3    H231542   0.732   1.807   0.407  2.9743  2.2000  0.1714
 3303TIP3   OH231543   1.536   5.574   7.301  0.1210 -0.4494 -0.2144
 3303TIP3    H131544   1.613   5.620   7.270 -0.2418 -0.5867 -1.3387
 3303TIP3    H231545   1.535   5.491   7.253 -0.9269 -0.2828 -0.5079
 3304TIP3   OH231546   2.914   4.884   6.351  0.3824 -0.9146 -0.3777
 3304TIP3    H131547   2.970   4.927   6.416 -0.7174 -0.3281  0.2015
 3304TIP3    H231548   2.906   4.948   6.280 -1.2912 -0.0970  0.5045
 3305TIP3   OH231549   3.991   0.928   6.197 -0.3212  0.5409 -0.0473
 3305TIP3    H131550   3.990   1.003   6.258 -0.7398  1.7188 -1.4478
 3305TIP3    H231551   4.071   0.941   6.145 -0.9636  0.6387 -1.0325
 3306TIP3   OH231552   4.690   1.230   0.646  0.1207 -0.1553  0.1055
 3306TIP3    H131553   4.745   1.160   0.682  0.2168 -0.4448 -0.6034
 3306TIP3    H231554   4.655   1.195   0.564 -0.9999  0.0808  0.4573
 3307TIP3   OH231555   3.030   1.490   1.903  0.0422  0.1167  0.4254
 3307TIP3    H131556   2.973   1.491   1.826  0.2842 -0.1670  0.2396
 3307TIP3    H231557   3.081   1.571   1.896 -1.3539  1.1236  1.3748
 3308TIP3   OH231558   1.209   5.131   7.870 -0.6751  0.5825  0.4666
 3308TIP3    H131559   1.257   5.056   7.835  1.2864  2.9487 -2.4541
 3308TIP3    H231560   1.277   5.188   7.908 -1.7920  1.8247  0.6843
 3309TIP3   OH231561   1.555   5.775   6.381  0.6049 -0.0893 -0.0664
 3309TIP3    H131562   1.478   5.721   6.361  0.1831  0.2963  0.4595
 3309TIP3    H231563   1.573   5.822   6.300 -1.5979  2.0927  0.5716
 3310TIP3   OH231564   4.912   7.020   7.710  0.1069 -0.4841  0.4594
 3310TIP3    H131565   4.966   7.068   7.646 -0.0500 -0.1824  0.5550
 3310TIP3    H231566   4.843   7.081   7.734  1.0332 -0.0131  2.0908
 3311TIP3   OH231567   4.117   5.540   1.702  0.5361  0.3601 -0.2754
 3311TIP3    H131568   4.164   5.481   1.643  2.7269  1.1446  0.5568
 3311TIP3    H231569   4.161   5.624   1.690 -0.7888  1.1792  0.4741
 3312TIP3   OH231570   1.655   2.715   8.097  0.0241 -0.1777  0.4013
 3312TIP3    H131571   1.677   2.696   8.005  0.6402 -0.1913  0.5472
 3312TIP3    H231572   1.563   2.739   8.095  0.1818  0.4027 -0.3058
 3313TIP3   OH231573   3.770   5.928   6.954 -0.2984  0.4279 -0.5111
 3313TIP3    H131574   3.739   5.867   6.886  0.4762 -0.2536 -0.2740
 3313TIP3    H231575   3.849   5.886   6.988 -0.2635  1.1387  0.2914
 3314TIP3   OH231576   2.790   5.456   7.042 -0.1162  0.5011 -0.2814
 3314TIP3    H131577   2.749   5.486   6.961  0.1997  0.4928 -0.4446
 3314TIP3    H231578   2.875   5.500   7.045  0.9161 -1.3177 -1.1611
 3315TIP3   OH231579   0.581   0.061   0.075 -0.3246 -0.1991 -0.2577
 3315TIP3    H131580   0.622   0.077   0.160  1.0317 -2.2465 -0.4657
 3315TIP3    H231581   0.493   0.029   0.097  0.0449 -0.8075  0.3980
 3316TIP3   OH231582   2.309   4.748   6.933 -0.1938  0.4480  0.1328
 3316TIP3    H131583   2.385   4.771   6.879 -0.6769  1.3706 -0.1596
 3316TIP3    H231584   2.255   4.826   6.933  0.1439  0.7581  2.5856
 3317TIP3   OH231585   1.089   6.225   1.069 -0.1484  0.2226 -0.4681
 3317TIP3    H131586   1.178   6.260   1.072  0.6637 -1.4959 -2.6574
 3317TIP3    H231587   1.081   6.173   1.149  0.8105  0.3632 -0.2660
 3318TIP3   OH231588   3.471   3.850   6.549 -0.2023 -0.2193  0.0547
 3318TIP3    H131589   3.379   3.875   6.563 -0.4121 -0.0554 -1.4681
 3318TIP3    H231590   3.487   3.870   6.457  1.7552  0.9826  0.6058
 3319TIP3   OH231591   1.426   1.027   1.762  0.1816  0.8309  0.6879
 3319TIP3    H131592   1.447   0.954   1.821 -1.8022  0.1882  0.6858
 3319TIP3    H231593   1.331   1.021   1.750  0.0384  3.1291  0.2716
 3320TIP3   OH231594   1.756   0.251   6.719  0.2082 -0.1137  0.1810
 3320TIP3    H131595   1.684   0.218   6.774 -0.3287  1.5876  0.5831
 3320TIP3    H231596   1.721   0.251   6.630  1.1498 -3.0722 -0.2801
 3321TIP3   OH231597   2.361   5.890   5.617  0.2004  0.0715 -0.0644
 3321TIP3    H131598   2.412   5.966   5.588  2.0096 -0.5848  1.2623
 3321TIP3    H231599   2.427   5.827   5.648 -1.3096 -1.6570 -0.2033
 3322TIP3   OH231600   3.751   3.653   7.187 -0.7381 -0.5204 -0.0618
 3322TIP3    H131601   3.711   3.717   7.130  1.6724  1.5977  0.4263
 3322TIP3    H231602   3.810   3.603   7.130  0.3148  0.3773  0.2182
 3323TIP3   OH231603   5.964   5.546   1.759 -0.3675 -0.0278  0.7475
 3323TIP3    H131604   6.041   5.494   1.739  0.0335  0.7704  0.1565
 3323TIP3    H231605   5.956   5.606   1.685 -0.9074  0.6473  1.3421
 3324TIP3   OH231606   3.405   3.695   7.813 -0.3848 -0.6033 -0.4785
 3324TIP3    H131607   3.368   3.614   7.779 -0.2822 -0.5205 -0.7918
 3324TIP3    H231608   3.422   3.748   7.735  1.6086 -1.1481 -0.4756
 3325TIP3   OH231609   5.054   1.400   7.184  0.2941 -0.5086 -0.3268
 3325TIP3    H131610   4.983   1.401   7.248  0.3272  1.3481 -0.2595
 3325TIP3    H231611   5.010   1.415   7.100  0.5966  1.2918 -0.2149
 3326TIP3   OH231612   1.800   5.878   6.952 -0.5646  0.2159  0.5961
 3326TIP3    H131613   1.846   5.838   6.878  0.2646 -0.2143  1.3200
 3326TIP3    H231614   1.724   5.822   6.967 -1.6893  1.2434 -0.9665
 3327TIP3   OH231615   0.495   3.257   8.017  0.5886 -0.2775  0.2556
 3327TIP3    H131616   0.430   3.264   7.947  2.9531  1.1725 -1.9667
 3327TIP3    H231617   0.455   3.197   8.080 -2.4401 -0.2567 -1.4292
 3328TIP3   OH231618   1.952   1.210   7.086  0.0222 -0.0619  0.3798
 3328TIP3    H131619   1.944   1.305   7.091  0.7019  0.0009  0.3195
 3328TIP3    H231620   2.027   1.195   7.030 -0.6432 -0.6552 -0.3713
 3329TIP3   OH231621   6.989   1.553   1.333 -0.1322  1.0698  0.6375
 3329TIP3    H131622   6.894   1.550   1.323 -0.0471  1.0744 -0.3422
 3329TIP3    H231623   7.022   1.523   1.248  0.7905 -2.7128  2.1583
 3330TIP3   OH231624   3.237   1.688   0.313 -0.7613  0.1261  0.4338
 3330TIP3    H131625   3.208   1.647   0.232 -1.4588 -1.9377  1.6511
 3330TIP3    H231626   3.156   1.714   0.358 -0.3707  1.7903  0.2712
 3331TIP3   OH231627   5.471   1.652   6.641 -0.6603 -0.4981 -0.3302
 3331TIP3    H131628   5.511   1.679   6.723  1.7819  0.9246 -1.8666
 3331TIP3    H231629   5.411   1.723   6.619  0.4964  0.3125 -0.9271
 3332TIP3   OH231630   1.423   5.897   8.116 -0.0869  0.5001  0.1326
 3332TIP3    H131631   1.391   5.876   8.203 -0.7458  0.5993 -0.0826
 3332TIP3    H231632   1.448   5.812   8.078 -1.8941  0.1563 -0.4006
 3333TIP3   OH231633   6.540   0.474   0.118  0.4776 -0.2366 -0.4866
 3333TIP3    H131634   6.531   0.406   0.050 -0.1572 -0.4833 -0.1693
 3333TIP3    H231635   6.630   0.504   0.110  0.4548 -0.3725 -1.3390
 3334TIP3   OH231636   5.817   6.830   7.078  0.1977  0.0980  0.4070
 3334TIP3    H131637   5.723   6.846   7.088  0.1202  0.9802 -1.4513
 3334TIP3    H231638   5.858   6.908   7.116  0.0644  0.9020 -1.0139
 3335TIP3   OH231639   3.968   6.865   1.798  0.2285  0.0058 -0.5608
 3335TIP3    H131640   3.934   6.880   1.710  0.0673 -1.6983 -0.8261
 3335TIP3    H231641   4.043   6.808   1.786  2.4660  2.6057  0.1571
 3336TIP3   OH231642   5.783   1.574   6.788 -0.7166  0.0440 -0.1814
 3336TIP3    H131643   5.859   1.617   6.749  0.3177 -1.0004  0.6267
 3336TIP3    H231644   5.746   1.522   6.716 -0.3297  0.1039 -0.4276
 3337TIP3   OH231645   1.575   6.218   7.666  0.0733 -0.1217  0.6260
 3337TIP3    H131646   1.598   6.310   7.653  1.5625 -0.4578  0.6994
 3337TIP3    H231647   1.650   6.170   7.632 -1.7861 -1.4445 -1.9625
 3338TIP3   OH231648   5.702   6.748   7.653 -0.2960 -0.6647  0.2827
 3338TIP3    H131649   5.788   6.789   7.660 -0.5378 -0.0305 -0.3533
 3338TIP3    H231650   5.675   6.764   7.563 -0.9180 -1.1840  0.3723
 3339TIP3   OH231651   6.105   1.830   2.226 -0.1886  0.0765  0.3031
 3339TIP3    H131652   6.089   1.801   2.316  0.1737 -2.8919 -0.4603
 3339TIP3    H231653   6.200   1.821   2.215  0.0957  2.5618  0.2112
 3340TIP3   OH231654   0.662   0.736   2.056 -0.2429 -0.3954  0.0825
 3340TIP3    H131655   0.660   0.745   1.960 -2.1741  2.9491  0.2666
 3340TIP3    H231656   0.721   0.805   2.085 -0.6941 -0.5142  1.3333
 3341TIP3   OH231657   0.325   0.074   6.752  0.0355  0.3110 -0.4040
 3341TIP3    H131658   0.333   0.033   6.666  0.0588 -2.8748  0.9837
 3341TIP3    H231659   0.233   0.101   6.758  0.5190  2.7016 -2.1947
 3342TIP3   OH231660   5.508   2.073   0.560  0.0330  0.1571  0.0586
 3342TIP3    H131661   5.445   2.104   0.496 -0.3361 -0.0087  0.3371
 3342TIP3    H231662   5.481   2.112   0.643 -0.9267 -1.4986  0.5768
 3343TIP3   OH231663   2.111   3.890   0.428 -0.4357  0.5037 -0.2041
 3343TIP3    H131664   2.162   3.921   0.353 -1.4537 -1.0469 -1.5942
 3343TIP3    H231665   2.172   3.895   0.502  1.2274  0.2619 -1.4946
 3344TIP3   OH231666   5.198   4.761   1.690 -0.0919 -0.0023  0.1131
 3344TIP3    H131667   5.262   4.714   1.743 -1.7490  0.4597  2.7505
 3344TIP3    H231668   5.192   4.848   1.732 -2.6309 -0.1545  0.2314
 3345TIP3   OH231669   3.992   1.498   0.969 -0.3638 -0.2901 -0.0667
 3345TIP3    H131670   3.941   1.542   0.901  0.8397  0.3108 -0.5974
 3345TIP3    H231671   4.040   1.429   0.923  2.5092  1.7605 -0.4059
 3346TIP3   OH231672   1.147   5.356   0.704  0.3835  0.0716  0.4894
 3346TIP3    H131673   1.114   5.330   0.617  0.0507 -0.2111  0.6958
 3346TIP3    H231674   1.105   5.295   0.764  1.5844 -0.5562  0.7299
 3347TIP3   OH231675   5.315   4.443   5.643  0.1355 -0.1716 -0.4419
 3347TIP3    H131676   5.329   4.348   5.652 -0.9271 -0.3573 -0.7074
 3347TIP3    H231677   5.354   4.480   5.723 -0.4326 -0.9334  0.2037
 3348TIP3   OH231678   0.536   0.866   7.682  0.4764 -0.3358 -0.2002
 3348TIP3    H131679   0.519   0.776   7.707 -0.3242 -0.3402 -0.7225
 3348TIP3    H231680   0.522   0.868   7.587 -0.4181  0.5174 -0.0707
 3349TIP3   OH231681   2.616   5.506   0.052  0.2004  0.1124  0.2084
 3349TIP3    H131682   2.653   5.533  -0.032 -0.1435 -0.3727 -0.1039
 3349TIP3    H231683   2.679   5.442   0.086 -0.6777 -1.2982 -0.6812
 3350TIP3   OH231684   1.544   2.913   6.363  0.5811 -0.4543 -0.1241
 3350TIP3    H131685   1.548   3.007   6.345 -0.2638 -0.2206  0.7789
 3350TIP3    H231686   1.514   2.908   6.454  0.0436 -1.6053 -0.3481
 3351TIP3   OH231687   3.607   6.193   0.651 -0.2113 -0.0294 -0.3639
 3351TIP3    H131688   3.569   6.110   0.624 -3.7259  1.1298  0.5233
 3351TIP3    H231689   3.573   6.257   0.588 -1.0950  1.3051  1.3529
 3352TIP3   OH231690   1.352   2.860   2.362 -0.1180 -0.7663 -0.2539
 3352TIP3    H131691   1.406   2.784   2.341  0.9696 -0.2199  0.4794
 3352TIP3    H231692   1.415   2.931   2.376 -1.0768  0.0968 -0.2178
 3353TIP3   OH231693   6.653   4.518   7.122  0.2011 -0.0495  0.0245
 3353TIP3    H131694   6.591   4.555   7.184  0.8951  2.0211 -0.4653
 3353TIP3    H231695   6.605   4.445   7.082 -1.6589  1.0317  0.1684
 3354TIP3   OH231696   2.458   2.731   0.279 -0.0257  0.4137  0.0781
 3354TIP3    H131697   2.422   2.768   0.199 -1.2097  0.4054  0.5840
 3354TIP3    H231698   2.382   2.697   0.326  0.5203  1.1910  1.5957
 3355TIP3   OH231699   5.190   6.046   0.584  0.2423 -0.3596 -0.1412
 3355TIP3    H131700   5.282   6.041   0.610  0.1727 -1.2107 -0.0147
 3355TIP3    H231701   5.191   6.091   0.500  0.6813  0.4478  0.2778
 3356TIP3   OH231702   3.737   1.725   1.597  0.6713  0.0513  0.3920
 3356TIP3    H131703   3.784   1.738   1.514  0.7727 -1.6898  0.1540
 3356TIP3    H231704   3.805   1.734   1.664  0.8412  0.1060  0.2137
 3357TIP3   OH231705   4.140   1.520   1.546 -0.3920  0.0885  0.0514
 3357TIP3    H131706   4.183   1.543   1.629 -2.6679  1.5532  0.9324
 3357TIP3    H231707   4.099   1.602   1.518  1.1529 -0.0955 -3.1501
 3358TIP3   OH231708   0.560   5.689   7.950 -0.6416  0.2201  0.0305
 3358TIP3    H131709   0.575   5.738   7.869 -0.5695  1.7700  0.9325
 3358TIP3    H231710   0.612   5.609   7.940  1.2150  1.4213 -0.5495
 3359TIP3   OH231711   1.128   0.778   6.518  0.1541  0.1098 -0.0226
 3359TIP3    H131712   1.146   0.705   6.577 -1.0486  0.1348  0.4040
 3359TIP3    H231713   1.145   0.856   6.571  1.0612  0.1538 -0.3591
 3360TIP3   OH231714   1.687   1.043   1.400  0.3396  0.0647 -0.0191
 3360TIP3    H131715   1.776   1.051   1.364 -0.0777  0.4041 -1.0099
 3360TIP3    H231716   1.672   0.949   1.406  0.4422 -0.0078 -0.7126
 3361TIP3   OH231717   3.569   0.654   0.182 -0.5418 -0.6610 -0.4600
 3361TIP3    H131718   3.567   0.677   0.275  0.4358 -0.4645 -0.4762
 3361TIP3    H231719   3.481   0.672   0.151 -0.6266  0.1457  0.2199
 3362TIP3   OH231720   2.232   1.993   6.878  0.0169 -0.1098  0.3247
 3362TIP3    H131721   2.201   2.075   6.916 -0.2263 -1.0047  2.1322
 3362TIP3    H231722   2.326   1.995   6.890  0.2463  0.6653 -1.2680
 3363TIP3   OH231723   3.470   6.130   7.391 -0.2336  0.4534  0.0696
 3363TIP3    H131724   3.503   6.193   7.327 -1.4107  0.3605 -0.6470
 3363TIP3    H231725   3.377   6.121   7.371 -0.9735  1.4227  2.6016
 3364TIP3   OH231726   5.671   6.903   0.887  0.2396  0.4576 -0.5888
 3364TIP3    H131727   5.580   6.889   0.863  0.1776  0.4124 -0.3238
 3364TIP3    H231728   5.679   6.868   0.976  0.5375  0.3738 -0.6469
 3365TIP3   OH231729   5.901   5.371   1.191  0.9772 -0.3636  0.3240
 3365TIP3    H131730   5.854   5.394   1.271 -0.9741  0.9894 -1.1198
 3365TIP3    H231731   5.926   5.455   1.152  0.5761 -0.9072 -1.2004
 3366TIP3   OH231732   5.191   5.012   0.135  0.2634 -0.2100  0.2182
 3366TIP3    H131733   5.165   5.104   0.144  1.7818  0.2435  0.3752
 3366TIP3    H231734   5.279   5.009   0.174  0.9966 -1.3373 -1.4138
 3367TIP3   OH231735   5.667   5.327   7.094  0.0189 -0.5870 -0.4166
 3367TIP3    H131736   5.740   5.314   7.155  0.8431  0.9409 -1.0029
 3367TIP3    H231737   5.640   5.239   7.069  2.0143 -1.2109 -0.5452
 3368TIP3   OH231738   3.974   6.951   7.012 -0.5607 -0.4060  0.3994
 3368TIP3    H131739   4.000   6.917   7.098  2.0177  1.5128  0.5274
 3368TIP3    H231740   3.941   7.040   7.031 -1.3316 -0.4877 -0.4789
 3369TIP3   OH231741   2.038   0.300   1.903 -0.3478  0.0165 -0.5557
 3369TIP3    H131742   2.123   0.330   1.935  0.1272  0.9921 -2.5758
 3369TIP3    H231743   2.053   0.209   1.877  0.0273  0.0994 -0.6390
 3370TIP3   OH231744   0.328   5.569   0.901  0.8233 -0.1464  0.2377
 3370TIP3    H131745   0.326   5.475   0.885 -0.4213 -0.1537  0.3816
 3370TIP3    H231746   0.378   5.579   0.982  2.2399 -0.5489 -0.5489
 3371TIP3   OH231747   3.442   2.275   6.392  0.1057  0.0344 -0.1475
 3371TIP3    H131748   3.408   2.231   6.469 -0.1762  0.0313 -0.2707
 3371TIP3    H231749   3.502   2.212   6.352  0.6261  0.2187  0.3332
 3372TIP3   OH231750   4.504   6.612   7.835  0.2111  0.2425 -0.1830
 3372TIP3    H131751   4.574   6.669   7.801  0.2984 -0.4904 -1.3089
 3372TIP3    H231752   4.514   6.531   7.785  0.3342 -0.9133  1.6519
 3373TIP3   OH231753   1.291   0.284   1.826 -0.5287 -0.0444 -0.4256
 3373TIP3    H131754   1.218   0.337   1.856  0.9348  1.0517  1.4705
 3373TIP3    H231755   1.360   0.301   1.890  1.2781 -1.2903 -1.9401
 3374TIP3   OH231756   1.012   5.865   6.966  0.2254 -0.2786 -0.4423
 3374TIP3    H131757   1.042   5.832   6.881  2.4158  1.7302 -0.5705
 3374TIP3    H231758   0.982   5.954   6.947  0.8978  0.2536  0.8797
 3375TIP3   OH231759   3.199   2.240   1.844  0.6507  0.2577 -0.3681
 3375TIP3    H131760   3.129   2.305   1.854  0.1636 -0.5422  2.1354
 3375TIP3    H231761   3.200   2.220   1.750 -0.6879  2.2076 -0.8620
 3376TIP3   OH231762   5.174   0.396   1.436 -0.2432  0.7200 -0.1511
 3376TIP3    H131763   5.090   0.401   1.390  0.6386 -0.6930 -2.0975
 3376TIP3    H231764   5.158   0.334   1.508 -0.8158  0.2090 -0.7017
 3377TIP3   OH231765   2.612   4.866   0.055 -0.0233  0.5000  0.2013
 3377TIP3    H131766   2.653   4.896   0.135  1.2257 -0.0313 -0.2148
 3377TIP3    H231767   2.605   4.944   0.000  1.4863  0.4228 -0.1459
 3378TIP3   OH231768   0.918   1.302   6.276  0.0437  0.1893 -0.1919
 3378TIP3    H131769   0.893   1.210   6.272  0.3540  0.0382  0.8818
 3378TIP3    H231770   0.982   1.312   6.206 -1.2605  0.0250 -1.4418
 3379TIP3   OH231771   7.073   0.825   8.088  0.3403 -0.5818  0.5436
 3379TIP3    H131772   7.059   0.908   8.041  1.1540  0.7664  2.5351
 3379TIP3    H231773   7.103   0.764   8.021  2.2865  1.4728 -0.5908
 3380TIP3   OH231774   6.601   5.285   1.626  0.2397  0.0391 -0.1192
 3380TIP3    H131775   6.525   5.271   1.684 -0.1246 -0.9747 -0.8024
 3380TIP3    H231776   6.631   5.373   1.646 -2.6590  1.4722 -1.5927
 3381TIP3   OH231777   1.691   1.824   7.821  0.4506 -0.1993 -0.5582
 3381TIP3    H131778   1.648   1.746   7.786  1.1246 -0.6992 -0.2922
 3381TIP3    H231779   1.625   1.893   7.815 -0.5897 -1.0832  0.3846
 3382TIP3   OH231780   5.416   0.319   6.765 -0.1281 -0.1818 -0.3033
 3382TIP3    H131781   5.477   0.385   6.799 -1.6153 -0.1434  2.6278
 3382TIP3    H231782   5.426   0.244   6.825  0.0921 -1.8912 -2.3718
 3383TIP3   OH231783   5.776   0.288   1.194 -0.5007 -0.3976 -0.0199
 3383TIP3    H131784   5.750   0.253   1.109  0.3284 -1.1317  0.0195
 3383TIP3    H231785   5.758   0.382   1.188 -0.8608 -0.5164 -0.8469
 3384TIP3   OH231786   2.695   4.709   1.002 -0.4500  0.7983  0.2016
 3384TIP3    H131787   2.619   4.732   1.055 -0.5627  1.5678 -0.2816
 3384TIP3    H231788   2.702   4.613   1.010 -1.0280  0.8057  0.8305
 3385TIP3   OH231789   2.765   4.625   2.490  1.0988 -0.2837 -0.0445
 3385TIP3    H131790   2.816   4.543   2.495  2.0784  0.2893 -0.3454
 3385TIP3    H231791   2.720   4.620   2.406  0.1110 -1.0845  0.4973
 3386TIP3   OH231792   1.435   2.151   7.494  0.0390  0.0676 -0.2557
 3386TIP3    H131793   1.394   2.096   7.427  0.2733  1.5210 -1.6374
 3386TIP3    H231794   1.366   2.209   7.524  0.3564  0.5668 -0.4801
 3387TIP3   OH231795   2.410   6.087   6.982 -0.4118  0.0912 -0.3313
 3387TIP3    H131796   2.383   6.036   6.906 -0.7849  0.0091 -0.1485
 3387TIP3    H231797   2.500   6.113   6.964 -0.4261 -0.1180 -0.6984
 3388TIP3   OH231798   3.083   1.781   0.943 -1.1586 -0.3093  0.5582
 3388TIP3    H131799   3.118   1.739   0.864 -0.4941  0.8796  0.2056
 3388TIP3    H231800   3.148   1.762   1.010  1.2687  3.3295 -0.4663
 3389TIP3   OH231801   0.197   2.000   0.729 -0.5817 -0.4113  0.1327
 3389TIP3    H131802   0.199   2.018   0.635 -1.1465  0.1837  0.2286
 3389TIP3    H231803   0.143   2.070   0.766 -0.4952 -0.7292  0.8819
 3390TIP3   OH231804   2.140   1.110   6.665  0.2069  0.1484 -0.2421
 3390TIP3    H131805   2.107   1.197   6.643  3.0450  1.2440 -0.6915
 3390TIP3    H231806   2.228   1.109   6.628  0.8585 -2.3302  1.1736
 3391TIP3   OH231807   2.261   4.700   0.581  0.1025  0.1146 -0.1079
 3391TIP3    H131808   2.287   4.737   0.666 -2.4691 -0.1311  0.8824
 3391TIP3    H231809   2.284   4.607   0.587  0.9998  0.3231 -0.1756
 3392TIP3   OH231810   2.486   2.912   6.755  0.5034 -0.2172  0.0035
 3392TIP3    H131811   2.553   2.900   6.823 -0.0680 -0.5343  0.5220
 3392TIP3    H231812   2.432   2.834   6.761 -0.9970  0.8376  0.8370
 3393TIP3   OH231813   1.587   1.640   0.266 -0.1333 -0.7813  0.4937
 3393TIP3    H131814   1.540   1.562   0.238 -0.4325 -0.2007 -0.7011
 3393TIP3    H231815   1.656   1.652   0.201 -1.2591  0.9754 -0.4592
 3394TIP3   OH231816   3.743   4.905   6.938  0.2181 -0.1373  0.3610
 3394TIP3    H131817   3.689   4.970   6.984 -1.0435  0.7218 -2.1775
 3394TIP3    H231818   3.707   4.821   6.966 -1.3467  0.3904  0.0371
 3395TIP3   OH231819   1.272   0.484   7.810  0.1614  0.1294 -0.0794
 3395TIP3    H131820   1.300   0.394   7.798 -3.6313 -1.1080 -0.8081
 3395TIP3    H231821   1.176   0.481   7.806 -0.1472  4.1967 -0.1880
 3396TIP3   OH231822   0.886   0.111   7.587 -0.3390  0.3813  0.3635
 3396TIP3    H131823   0.978   0.124   7.564  0.4368 -0.6961  2.5355
 3396TIP3    H231824   0.840   0.185   7.548  1.3876  0.7843 -1.0177
 3397TIP3   OH231825   3.980   0.543   7.817 -0.6295 -0.3062  0.2209
 3397TIP3    H131826   4.015   0.579   7.898  0.3207 -1.5094  0.3883
 3397TIP3    H231827   3.894   0.583   7.807  0.0967  1.4721  0.7035
 3398TIP3   OH231828   2.239   1.358   7.772  0.1019 -0.7382  0.1402
 3398TIP3    H131829   2.186   1.422   7.820  0.4848 -0.5634  0.3404
 3398TIP3    H231830   2.305   1.329   7.836 -0.0413 -1.2995  0.0360
 3399TIP3   OH231831   6.564   5.896   1.374 -0.2310 -0.0884 -0.2968
 3399TIP3    H131832   6.538   5.871   1.463 -0.7436 -0.5139 -0.5540
 3399TIP3    H231833   6.546   5.817   1.322 -2.1399  0.8785 -1.1945
 3400TIP3   OH231834   1.030   6.325   6.341 -0.3558  0.0644 -0.1889
 3400TIP3    H131835   0.954   6.277   6.308 -0.0205  0.2494 -1.2389
 3400TIP3    H231836   0.993   6.405   6.379 -0.8616 -0.7225  1.0643
 3401TIP3   OH231837   4.393   3.820   0.329 -0.7785 -0.3465  0.5718
 3401TIP3    H131838   4.472   3.771   0.352 -0.9191 -0.4569  0.8299
 3401TIP3    H231839   4.381   3.882   0.401  0.3113  1.2124 -0.5264
 3402TIP3   OH231840   1.954   1.893   7.649 -0.0760 -0.2844 -0.2751
 3402TIP3    H131841   1.903   1.925   7.574 -2.1179 -1.2337  0.6404
 3402TIP3    H231842   1.920   1.942   7.724  0.4449 -0.8500  0.3417
 3403TIP3   OH231843   4.014   5.761   6.373  0.5520 -0.2668 -0.1747
 3403TIP3    H131844   4.034   5.832   6.434  0.0453  0.3557 -0.7212
 3403TIP3    H231845   4.090   5.757   6.315  0.9878 -0.7908  0.4254
 3404TIP3   OH231846   6.398   4.154   7.022  0.0935 -0.2428 -0.0967
 3404TIP3    H131847   6.420   4.094   6.951  0.2657 -0.3980  0.0860
 3404TIP3    H231848   6.308   4.181   7.004  0.5490  0.6826 -1.0495
 3405TIP3   OH231849   4.030   4.878   5.827  0.3934  0.2085  0.0412
 3405TIP3    H131850   3.945   4.920   5.840 -0.2947 -0.6210 -1.5141
 3405TIP3    H231851   4.092   4.951   5.825 -0.5694  1.0353 -1.0600
 3406TIP3   OH231852   0.352   5.680   1.158 -0.3295  0.2584  0.4338
 3406TIP3    H131853   0.424   5.711   1.213  0.1148  1.5829 -0.8380
 3406TIP3    H231854   0.284   5.655   1.221  0.5797  0.6487  1.6163
 3407TIP3   OH231855   4.832   2.202   0.238  0.7413  0.1552 -0.2799
 3407TIP3    H131856   4.849   2.224   0.329  0.7059 -3.6393  0.7994
 3407TIP3    H231857   4.917   2.208   0.195  1.2577 -0.4213  0.6246
 3408TIP3   OH231858   1.456   0.755   6.658  0.4543 -0.6693  0.3716
 3408TIP3    H131859   1.396   0.754   6.733  0.3638 -2.2026  0.3076
 3408TIP3    H231860   1.398   0.749   6.582  0.5868  0.1019  0.2084
 3409TIP3   OH231861   0.429   0.619   0.882 -0.0042  0.6474  0.4609
 3409TIP3    H131862   0.341   0.656   0.879 -1.0658 -1.7548 -0.3595
 3409TIP3    H231863   0.432   0.573   0.966  0.4326  0.6156  0.4290
 3410TIP3   OH231864   0.061   3.709   0.623  0.2505  0.4551  0.2521
 3410TIP3    H131865  -0.024   3.687   0.586  0.2519  0.5826  0.1710
 3410TIP3    H231866   0.124   3.657   0.573  0.4510  2.0743 -1.2833
 3411TIP3   OH231867   4.133   0.963   7.190  0.1256 -0.5942  1.1094
 3411TIP3    H131868   4.203   1.019   7.155  0.4400 -1.1237  0.8888
 3411TIP3    H231869   4.116   0.999   7.277  1.4522 -1.1354  1.6129
 3412TIP3   OH231870   1.257   5.540   6.685  0.7426 -0.5617  0.2046
 3412TIP3    H131871   1.232   5.546   6.593 -1.7075 -0.4725  0.7966
 3412TIP3    H231872   1.352   5.530   6.684  0.8652  0.2628 -2.2798
 3413TIP3   OH231873   2.474   5.794   7.014 -0.3517  0.4714 -0.1710
 3413TIP3    H131874   2.440   5.808   6.925 -0.6233 -1.0768 -0.3348
 3413TIP3    H231875   2.564   5.825   7.010  0.2069 -1.1629 -1.5029
 3414TIP3   OH231876   6.076   6.657   0.018  0.5206  0.4065  0.4133
 3414TIP3    H131877   6.040   6.745   0.027  1.1034  0.6826  0.1157
 3414TIP3    H231878   6.123   6.658  -0.065  2.1163  0.4023  1.2648
 3415TIP3   OH231879   0.356   5.872   0.569  0.2588 -0.4177  0.3826
 3415TIP3    H131880   0.358   5.907   0.658  1.0509 -1.3449  0.7553
 3415TIP3    H231881   0.265   5.881   0.541 -0.0886 -0.4851  1.4520
 3416TIP3   OH231882   4.466   2.031   0.062 -0.5812 -0.1394  0.5509
 3416TIP3    H131883   4.560   2.032   0.081 -0.1931 -1.9677 -0.9813
 3416TIP3    H231884   4.430   1.966   0.122 -0.6621 -0.3030  0.3264
 3417TIP3   OH231885   1.487   3.449   5.957  0.1287 -0.1765 -0.1220
 3417TIP3    H131886   1.513   3.532   5.918 -0.2172  0.2594  0.5576
 3417TIP3    H231887   1.453   3.398   5.883  1.2053 -0.0826 -0.7071
 3418TIP3   OH231888   5.995   4.684   6.936  0.0429 -0.2942 -0.4550
 3418TIP3    H131889   6.019   4.724   6.853  0.2152 -1.8123 -1.1671
 3418TIP3    H231890   5.901   4.700   6.944 -0.0095 -0.3016 -1.0351
 3419TIP3   OH231891   1.250   3.170   0.030 -0.3546  0.7418  0.4871
 3419TIP3    H131892   1.205   3.246  -0.008 -2.4905 -0.4081  0.5166
 3419TIP3    H231893   1.266   3.194   0.121  1.3762  2.0907 -0.1186
 3420TIP3   OH231894   1.408   3.027   6.036 -0.1191 -0.4388  0.5091
 3420TIP3    H131895   1.486   2.971   6.030 -0.4581 -0.7694 -1.8663
 3420TIP3    H231896   1.374   3.029   5.947 -0.9180  2.4586  0.7879
 3421TIP3   OH231897   5.103   1.947   0.379 -0.1589  0.1458 -0.9684
 3421TIP3    H131898   5.058   1.866   0.355  1.0306 -0.9763  0.4322
 3421TIP3    H231899   5.140   1.978   0.296  0.0040 -1.1451 -1.4114
 3422TIP3   OH231900   1.490   3.670   6.972  0.3445  0.0069  0.1247
 3422TIP3    H131901   1.534   3.744   6.930  1.5301 -0.3306  0.7449
 3422TIP3    H231902   1.439   3.709   7.042  2.0361  0.1564  1.3385
 3423TIP3   OH231903   3.607   5.526   2.383 -0.1165 -0.3994  0.1617
 3423TIP3    H131904   3.518   5.504   2.411  1.0908 -3.3497  2.2900
 3423TIP3    H231905   3.620   5.476   2.303  0.5283 -2.6300  1.5565
 3424TIP3   OH231906   2.295   4.427   0.240 -0.3873  0.5679 -0.4491
 3424TIP3    H131907   2.306   4.521   0.226  0.9776  0.5255  0.1414
 3424TIP3    H231908   2.362   4.387   0.184 -1.3756 -0.1028 -1.1821
 3425TIP3   OH231909   1.280   6.000   6.173 -0.4997  0.0853  0.1962
 3425TIP3    H131910   1.342   6.038   6.235 -0.0636 -1.1670  0.5568
 3425TIP3    H231911   1.220   6.072   6.152  1.4254  1.5093 -0.6610
 3426TIP3   OH231912   2.259   4.220   7.604 -0.2342  0.1076 -0.1573
 3426TIP3    H131913   2.287   4.279   7.534  0.4899  0.7442  0.6454
 3426TIP3    H231914   2.186   4.266   7.646  0.2624  0.4000  0.4024
 3427TIP3   OH231915   0.112   2.279   6.266  0.4325  0.1216 -0.0842
 3427TIP3    H131916   0.123   2.303   6.174  2.3033 -1.4078 -0.3455
 3427TIP3    H231917   0.186   2.320   6.310  0.5175 -0.5582  0.4178
 3428TIP3   OH231918   0.641   4.580   6.828 -0.0047 -0.4591 -0.0635
 3428TIP3    H131919   0.613   4.557   6.916 -0.7409 -0.1963 -0.2192
 3428TIP3    H231920   0.655   4.496   6.785  1.2436 -0.5882  0.5672
 3429TIP3   OH231921   3.453   5.765   1.688 -0.1100  1.2253 -0.3212
 3429TIP3    H131922   3.470   5.685   1.638  0.4800  0.8243  0.4953
 3429TIP3    H231923   3.486   5.836   1.633  2.5203  0.6314  0.3615
 3430TIP3   OH231924   3.553   6.451   5.694 -1.0119  0.3103 -0.1438
 3430TIP3    H131925   3.557   6.538   5.733 -0.2511 -0.1353  0.8176
 3430TIP3    H231926   3.501   6.463   5.614 -2.3372  1.3226  0.8185
 3431TIP3   OH231927   4.573   6.844   8.039 -0.4559  0.5035  0.1120
 3431TIP3    H131928   4.484   6.816   8.019 -1.7070  1.9352  3.0383
 3431TIP3    H231929   4.612   6.769   8.083 -0.0955 -0.1948 -1.3431
 3432TIP3   OH231930   0.785   3.113   1.307  0.1084  0.2086  0.6529
 3432TIP3    H131931   0.769   3.031   1.354 -1.8016  2.0676  3.5572
 3432TIP3    H231932   0.706   3.128   1.256 -0.1379  0.8828  1.2173
 3433TIP3   OH231933   2.797   6.111   7.544 -0.0456  0.0699  0.1689
 3433TIP3    H131934   2.815   6.180   7.608  0.5634  0.7941 -0.7465
 3433TIP3    H231935   2.727   6.059   7.583  1.5005 -0.6166  2.2320
 3434TIP3   OH231936   4.034   0.900   1.337  0.1428  0.2278 -0.5100
 3434TIP3    H131937   4.088   0.856   1.402 -0.8680  0.1605  0.3138
 3434TIP3    H231938   3.960   0.840   1.322 -0.3130  0.8335 -0.7282
 3435TIP3   OH231939   1.580   3.984   6.641 -0.1685  0.0889  0.5118
 3435TIP3    H131940   1.520   3.958   6.572  0.0602  1.0174 -0.0507
 3435TIP3    H231941   1.628   4.059   6.605 -1.4211  1.8900  2.3592
 3436TIP3   OH231942   6.960   6.867   6.942  0.4440 -0.0107 -0.3773
 3436TIP3    H131943   7.011   6.829   6.870 -0.9959 -1.2872 -0.7607
 3436TIP3    H231944   6.872   6.833   6.930 -0.2646  1.2398  0.9379
 3437TIP3   OH231945   5.585   5.350   1.016 -0.3716 -0.4538 -0.1291
 3437TIP3    H131946   5.492   5.328   1.021 -0.9593  1.9474  1.7672
 3437TIP3    H231947   5.627   5.295   1.082 -0.7176 -0.4821  0.0685
 3438TIP3   OH231948   1.044   0.811   8.060 -0.1046  0.2381 -0.1871
 3438TIP3    H131949   1.079   0.895   8.090 -0.6419  0.2314  0.4751
 3438TIP3    H231950   1.121   0.763   8.029  0.5612  0.0657  1.6285
 3439TIP3   OH231951   2.777   0.158   2.052  0.4580 -0.3821 -0.0542
 3439TIP3    H131952   2.743   0.104   1.981  1.1747  2.7057 -2.9540
 3439TIP3    H231953   2.700   0.176   2.107 -0.9421 -0.0309 -2.0165
 3440TIP3   OH231954   4.986   5.107   7.921  0.1137 -0.5711 -0.1360
 3440TIP3    H131955   4.958   5.150   8.002 -2.3482 -0.3058 -1.0502
 3440TIP3    H231956   4.934   5.027   7.917 -0.0033 -0.4456 -1.5694
 3441TIP3   OH231957   3.520   6.440   6.777 -0.1036  0.1396  0.1686
 3441TIP3    H131958   3.584   6.503   6.809 -0.4178  0.8100 -0.4900
 3441TIP3    H231959   3.512   6.459   6.684 -1.4832  0.2805  0.2848
 3442TIP3   OH231960   3.540   0.398   6.020 -0.4638  0.4222  0.3390
 3442TIP3    H131961   3.453   0.364   6.044 -0.2248  0.0985  0.7672
 3442TIP3    H231962   3.558   0.360   5.934 -0.5256  0.0686  0.4803
 3443TIP3   OH231963   5.886   2.335   6.776 -0.3145  0.2258  0.3248
 3443TIP3    H131964   5.891   2.245   6.742 -0.1749 -0.1790  1.3777
 3443TIP3    H231965   5.850   2.386   6.704 -3.3092 -1.2119  0.6488
 3444TIP3   OH231966   5.686   5.334   1.841  0.1872 -0.5858  0.2175
 3444TIP3    H131967   5.625   5.332   1.915 -0.3246 -0.1398 -0.1821
 3444TIP3    H231968   5.720   5.423   1.839 -0.3442 -0.3910 -0.5088
 3445TIP3   OH231969   5.115   0.506   8.123 -0.3013  0.1518 -0.0285
 3445TIP3    H131970   5.139   0.558   8.200 -0.5444 -0.0591  0.1871
 3445TIP3    H231971   5.157   0.421   8.137 -1.3412 -0.3012  0.4616
 3446TIP3   OH231972   3.399   4.043   7.078  0.0400  0.1980 -0.0736
 3446TIP3    H131973   3.490   4.046   7.107 -0.1823  1.3170  0.5955
 3446TIP3    H231974   3.356   3.982   7.138 -0.3754  2.3585  1.9911
 3447TIP3   OH231975   4.368   0.860   6.760 -0.0771 -0.2584 -0.1772
 3447TIP3    H131976   4.289   0.890   6.806  0.4442  0.0091  0.5749
 3447TIP3    H231977   4.365   0.905   6.676 -0.3878  0.2745  0.1126
 3448TIP3   OH231978   3.167   4.164   2.051  0.1205  0.3474  0.1837
 3448TIP3    H131979   3.139   4.227   2.117  0.2797  1.7651 -1.0520
 3448TIP3    H231980   3.263   4.161   2.060  0.0485 -0.3810  0.8003
 3449TIP3   OH231981   1.090   6.130   6.859  0.2175  0.4780 -0.3253
 3449TIP3    H131982   1.050   6.101   6.778  1.6914 -0.6707 -0.6729
 3449TIP3    H231983   1.115   6.221   6.842 -0.0654  0.4502 -0.9207
 3450TIP3   OH231984   6.477   5.858   1.647  0.2884  0.2499 -0.0520
 3450TIP3    H131985   6.463   5.943   1.688 -1.5384  0.3201 -0.7338
 3450TIP3    H231986   6.419   5.798   1.694 -0.2994 -0.0792 -1.1553
 3451TIP3   OH231987   4.200   7.041   1.159 -0.4995 -0.0507  0.1333
 3451TIP3    H131988   4.108   7.017   1.171  0.1132 -3.3835 -0.6719
 3451TIP3    H231989   4.204   7.078   1.071 -1.2104  1.3200  0.6468
 3452TIP3   OH231990   3.880   5.047   1.193  0.4974 -0.5820  0.0040
 3452TIP3    H131991   3.801   5.044   1.140 -1.0702 -0.9582  2.1903
 3452TIP3    H231992   3.848   5.062   1.282  2.8176 -1.6516  1.1144
 3453TIP3   OH231993   0.501   2.963   7.837  0.4394  0.1315 -0.0301
 3453TIP3    H131994   0.556   2.948   7.915 -0.3613  0.7764  0.6835
 3453TIP3    H231995   0.443   3.035   7.863  1.7376  2.0283 -2.0442
 3454TIP3   OH231996   0.807   2.950   6.894  0.2384  0.2956 -0.4826
 3454TIP3    H131997   0.814   3.044   6.877  0.9238  0.3687  0.1607
 3454TIP3    H231998   0.730   2.941   6.950  1.0948  0.6768  0.8027
 3455TIP3   OH231999   1.429   4.482   7.106 -0.0703  0.1154  0.1198
 3455TIP3    H132000   1.347   4.437   7.088 -0.7436  1.3225  0.0968
 3455TIP3    H232001   1.457   4.517   7.021 -0.1477  0.7061  0.3338
 3456TIP3   OH232002   4.410   1.362   6.515 -0.1030  0.3903 -0.0211
 3456TIP3    H132003   4.422   1.452   6.485  1.1247  0.3967  0.4523
 3456TIP3    H232004   4.437   1.309   6.440  1.1440  0.4181  0.3900
 3457TIP3   OH232005   6.561   5.544   6.798  0.5286 -0.0151 -0.2954
 3457TIP3    H132006   6.546   5.477   6.865 -0.0678  1.3079  0.9239
 3457TIP3    H232007   6.474   5.569   6.769  0.7740 -0.3096 -1.3338
 3458TIP3   OH232008   1.630   0.780   1.433 -0.3686  0.3007 -0.5197
 3458TIP3    H132009   1.618   0.709   1.370 -0.4317 -0.6282  0.5060
 3458TIP3    H232010   1.692   0.745   1.497  1.0385  1.8484 -0.9678
 3459TIP3   OH232011   1.549   4.344   1.481 -0.3104  0.1082 -0.0261
 3459TIP3    H132012   1.489   4.271   1.495  0.7842 -0.7317  0.3471
 3459TIP3    H232013   1.501   4.403   1.423 -0.5245 -1.7235 -1.7849
 3460TIP3   OH232014   7.114   6.760   1.512  0.1933 -0.4217 -0.5647
 3460TIP3    H132015   7.067   6.809   1.446 -1.1591 -1.7558 -0.6401
 3460TIP3    H232016   7.048   6.706   1.555  1.4742 -1.6022  0.0304
 3461TIP3   OH232017   6.197   4.060   8.054  0.2999  0.3414 -0.4790
 3461TIP3    H132018   6.278   4.099   8.020  1.3333  0.3268  1.7667
 3461TIP3    H232019   6.175   4.114   8.130 -0.2856 -1.2704  0.5413
 3462TIP3   OH232020   0.784   5.913   1.022 -0.4337 -0.0733 -0.2434
 3462TIP3    H132021   0.808   5.924   1.114  0.4543 -1.1200 -0.3301
 3462TIP3    H232022   0.810   5.996   0.981 -0.8424  0.4008  0.4396
 3463TIP3   OH232023   0.131   4.569   2.476  0.1369 -0.3222  0.1079
 3463TIP3    H132024   0.203   4.529   2.427  0.6717  0.3071  0.3643
 3463TIP3    H232025   0.168   4.651   2.510 -0.4451 -0.4013  0.9523
 3464TIP3   OH232026   3.011   4.976   7.171  0.5607 -0.2543 -0.1980
 3464TIP3    H132027   3.028   4.888   7.205 -1.8398 -0.7864 -0.2260
 3464TIP3    H232028   3.047   5.035   7.237  2.2239 -1.2078 -0.1889
 3465TIP3   OH232029   2.502   3.213   0.686 -0.0208 -0.4668  0.0272
 3465TIP3    H132030   2.534   3.142   0.631 -0.1347 -0.5262  0.0376
 3465TIP3    H232031   2.425   3.177   0.730  0.3708 -0.5862  0.6239
 3466TIP3   OH232032   0.788   4.997   1.712 -0.3550 -0.2625 -1.2556
 3466TIP3    H132033   0.791   5.077   1.763 -0.6145 -0.2631 -1.2373
 3466TIP3    H232034   0.768   4.928   1.776  1.4617 -0.5948 -0.9892
 3467TIP3   OH232035   3.262   6.311   7.546 -1.1229 -0.0220  0.7191
 3467TIP3    H132036   3.316   6.234   7.565 -1.7173 -0.6817 -0.1783
 3467TIP3    H232037   3.178   6.274   7.519 -0.3842  0.7614 -3.1539
 3468TIP3   OH232038   1.134   6.678   6.166 -0.1012  0.3799  0.2033
 3468TIP3    H132039   1.136   6.598   6.112  0.4217 -0.4370  1.3796
 3468TIP3    H232040   1.170   6.746   6.109  0.0645 -0.3701 -0.6159
 3469TIP3   OH232041   0.361   3.008   0.666  0.1665  0.0693  0.1972
 3469TIP3    H132042   0.445   3.000   0.711  0.0217  0.8455  0.6121
 3469TIP3    H232043   0.302   2.952   0.715  0.4206 -0.4205 -0.0503
 3470TIP3   OH232044   5.536   2.762   5.430 -0.1711  0.8660  0.1941
 3470TIP3    H132045   5.554   2.781   5.522 -1.1585 -0.8494  0.7700
 3470TIP3    H232046   5.500   2.844   5.396 -3.1569  0.5514  2.2720
 3471TIP3   OH232047   0.396   2.761   7.101 -0.0431  0.2067 -0.3733
 3471TIP3    H132048   0.474   2.707   7.102 -1.8786 -2.6708 -0.5391
 3471TIP3    H232049   0.368   2.762   7.009 -0.2510  1.1794 -0.3156
 3472TIP3   OH232050   2.134   5.481   1.159  0.0341  0.4161 -0.0513
 3472TIP3    H132051   2.093   5.439   1.235 -0.5824  0.8578 -0.1295
 3472TIP3    H232052   2.117   5.421   1.087  1.7025 -0.6164  0.3727
 3473TIP3   OH232053   5.346   7.122   6.660  0.5252 -0.2030  0.0855
 3473TIP3    H132054   5.389   7.207   6.656  0.4948 -0.1987 -0.1769
 3473TIP3    H232055   5.280   7.125   6.591  1.2848 -0.8570 -0.6965
 3474TIP3   OH232056   2.261   3.090   1.026  0.0464 -0.0064  0.1866
 3474TIP3    H132057   2.253   3.168   0.971  0.2272  2.0154  2.8303
 3474TIP3    H232058   2.355   3.082   1.044 -0.1398  0.3377  1.4317
 3475TIP3   OH232059   7.015   6.186   6.441 -0.3108  0.0695  0.1344
 3475TIP3    H132060   6.956   6.170   6.368  0.6647 -0.1074 -0.6241
 3475TIP3    H232061   7.014   6.105   6.492 -0.6623  0.0479  0.0973
 3476TIP3   OH232062   5.045   6.368   7.123  0.5756 -0.2387  0.3916
 3476TIP3    H132063   5.122   6.387   7.069  1.3303 -1.1096  1.1027
 3476TIP3    H232064   5.070   6.397   7.211 -0.7722  1.4953  0.2452
 3477TIP3   OH232065   5.421   5.552   1.796 -0.3732  0.1906  0.3026
 3477TIP3    H132066   5.440   5.622   1.733 -1.1673 -0.6314 -0.8905
 3477TIP3    H232067   5.331   5.526   1.776 -0.5638 -0.2449  1.6534
 3478TIP3   OH232068   6.616   2.315   2.181  0.4003  0.4256 -0.6612
 3478TIP3    H132069   6.581   2.275   2.261 -1.5040  0.2041 -1.5456
 3478TIP3    H232070   6.710   2.326   2.199  0.2855 -0.8940  1.0643
 3479TIP3   OH232071   5.214   0.006   6.409  0.5133 -0.0262  0.4250
 3479TIP3    H132072   5.182  -0.081   6.383  0.6731  0.3297 -1.0685
 3479TIP3    H232073   5.135   0.059   6.417  0.5351  0.2443 -0.9045
 3480TIP3   OH232074   2.840   5.398   2.297 -0.0192  0.2454 -0.3876
 3480TIP3    H132075   2.879   5.442   2.373 -1.9733 -0.4224  1.0894
 3480TIP3    H232076   2.904   5.410   2.227  1.7051  1.2025  1.2564
 3481TIP3   OH232077   5.281   2.971   7.063 -0.0906  0.2584 -0.2926
 3481TIP3    H132078   5.319   2.933   6.983 -0.8999  0.0085 -0.5704
 3481TIP3    H232079   5.198   2.925   7.074 -0.3818  0.8937  0.2258
 3482TIP3   OH232080   0.195   4.652   7.635  0.1553  0.0861  0.1198
 3482TIP3    H132081   0.180   4.746   7.646  4.5568  1.2301 -1.6951
 3482TIP3    H232082   0.146   4.612   7.707 -0.5082  3.8894  2.0599
 3483TIP3   OH232083   2.912   1.044   1.753  0.1056 -0.1492 -0.4693
 3483TIP3    H132084   2.870   1.068   1.835  0.6285  0.6533 -0.4259
 3483TIP3    H232085   2.989   1.101   1.748 -0.5788  0.7097 -2.1041
 3484TIP3   OH232086   2.734   0.759   0.718 -0.4636 -0.1157 -0.6633
 3484TIP3    H132087   2.810   0.813   0.736 -0.2337  0.1851 -2.3551
 3484TIP3    H232088   2.703   0.730   0.804  0.5910  1.0687  0.1381
 3485TIP3   OH232089   0.053   1.776   1.187 -0.3659 -0.4212 -0.2607
 3485TIP3    H132090   0.019   1.735   1.107 -0.8380 -1.3262  0.3781
 3485TIP3    H232091   0.143   1.744   1.194 -0.5030 -0.7886 -0.1454
 3486TIP3   OH232092   6.962   3.045   7.259  0.2348  0.1434 -0.2988
 3486TIP3    H132093   6.980   2.986   7.332 -1.8262  1.2245  1.1773
 3486TIP3    H232094   6.983   3.132   7.292 -1.8086  0.7802 -0.5490
 3487TIP3   OH232095   5.493   4.667   6.500 -0.3141  0.1525  0.3202
 3487TIP3    H132096   5.523   4.648   6.589 -1.7455 -0.4554  0.7048
 3487TIP3    H232097   5.522   4.757   6.484 -1.2450  0.7811  1.9648
 3488TIP3   OH232098   6.981   5.589   0.465 -0.4927 -0.5671 -0.2318
 3488TIP3    H132099   7.031   5.640   0.402  1.7177  0.0515  1.8944
 3488TIP3    H232100   7.038   5.516   0.489 -0.6831 -0.0714  1.9568
 3489TIP3   OH232101   5.985   2.199   5.962 -0.4810 -0.5364  0.1221
 3489TIP3    H132102   5.943   2.114   5.948  1.2624 -1.7902  1.9268
 3489TIP3    H232103   5.995   2.236   5.874 -1.2950 -2.1936 -0.6984
 3490TIP3   OH232104   4.728   0.965   6.305 -0.5359  0.0089 -0.0888
 3490TIP3    H132105   4.706   0.932   6.392  0.1573 -0.4920 -0.0929
 3490TIP3    H232106   4.720   0.888   6.248 -1.0772  0.3534 -0.4913
 3491TIP3   OH232107   3.978   4.345   6.661  0.3725 -0.3002  0.2866
 3491TIP3    H132108   3.954   4.273   6.603  1.3217  0.1109 -0.6419
 3491TIP3    H232109   3.921   4.334   6.737 -1.2681 -0.5404 -0.9325
 3492TIP3   OH232110   6.785   1.283   7.744 -0.5425 -0.7325 -0.1022
 3492TIP3    H132111   6.835   1.238   7.675  2.3597 -0.7435  1.8132
 3492TIP3    H232112   6.767   1.370   7.708  2.3071 -0.1671 -0.4296
 3493TIP3   OH232113   5.244   1.318   7.396  0.1654 -0.2514 -0.2552
 3493TIP3    H132114   5.277   1.238   7.356  4.0684  0.6252  0.7875
 3493TIP3    H232115   5.206   1.367   7.323  1.3110 -1.3640 -1.6532
 3494TIP3   OH232116   1.944   4.822   6.579 -0.2299 -0.2855  0.0443
 3494TIP3    H132117   2.008   4.826   6.508 -0.3880 -0.2081 -0.0954
 3494TIP3    H232118   1.976   4.885   6.644 -2.1619  2.7794 -1.6968
 3495TIP3   OH232119   6.423   0.056   2.206  0.0167 -0.7767 -0.5458
 3495TIP3    H132120   6.459   0.061   2.294 -1.0784  1.7497 -0.1528
 3495TIP3    H232121   6.348  -0.004   2.214 -1.7713  1.4737  0.9908
 3496TIP3   OH232122   6.601   4.696   6.813  0.8149  0.4254 -0.6629
 3496TIP3    H132123   6.623   4.759   6.881 -0.8982  0.1724  0.1759
 3496TIP3    H232124   6.632   4.612   6.847  0.8875  0.4494 -0.6700
 3497TIP3   OH232125   0.296   5.174   7.143  0.5730 -0.5316 -0.5461
 3497TIP3    H132126   0.262   5.163   7.054 -1.1183 -0.0227 -0.0020
 3497TIP3    H232127   0.373   5.116   7.147 -0.5522 -2.1829 -1.6791
 3498TIP3   OH232128   4.885   1.112   0.902  0.4238 -0.5279 -0.3803
 3498TIP3    H132129   4.911   1.070   0.820  0.6862 -1.7358  0.3010
 3498TIP3    H232130   4.794   1.085   0.915  0.6804 -1.1284  0.2035
 3499TIP3   OH232131   4.360   5.675   1.697 -0.0094  0.1529  0.2294
 3499TIP3    H132132   4.398   5.608   1.755 -0.9112 -1.5221 -1.0187
 3499TIP3    H232133   4.412   5.670   1.617 -1.0032 -0.1226 -0.4194
 3500TIP3   OH232134   4.559   4.510   5.892  0.0964 -0.5528 -0.8545
 3500TIP3    H132135   4.588   4.586   5.842 -0.7977 -0.1423 -0.7563
 3500TIP3    H232136   4.639   4.478   5.935  0.3076  0.9266 -0.0795
 3501TIP3   OH232137   1.599   0.439   0.593  0.1348  0.6107 -0.2594
 3501TIP3    H132138   1.594   0.467   0.502  1.0400  1.5386 -0.0394
 3501TIP3    H232139   1.507   0.431   0.621 -0.1534  0.2260 -1.2550
 3502TIP3   OH232140   0.251   1.883   0.962  0.2903  0.5446  0.2041
 3502TIP3    H132141   0.184   1.815   0.963 -0.4171  1.1082 -2.1320
 3502TIP3    H232142   0.237   1.929   0.879  3.1503  1.1386 -0.0354
 3503TIP3   OH232143   0.806   6.202   6.245  0.1338  1.0608 -0.1871
 3503TIP3    H132144   0.828   6.151   6.167  0.0151  0.0904  0.3894
 3503TIP3    H232145   0.713   6.223   6.234 -0.0308  0.4346 -0.0487
 3504TIP3   OH232146   4.659   6.503   0.797 -0.3057 -0.1845  0.2459
 3504TIP3    H132147   4.636   6.486   0.888 -1.7429 -0.5951 -0.1537
 3504TIP3    H232148   4.753   6.492   0.793 -0.4631 -2.2814  1.2541
 3505TIP3   OH232149   1.563   4.762   0.506 -0.1218 -0.3089  0.3712
 3505TIP3    H132150   1.596   4.756   0.596  0.6008 -1.7344  0.0504
 3505TIP3    H232151   1.637   4.796   0.456 -0.5899  0.6709  0.3436
 3506TIP3   OH232152   6.713   3.871   6.665  0.0051  0.4455  0.5871
 3506TIP3    H132153   6.715   3.955   6.619  0.1486  0.4699  0.6382
 3506TIP3    H232154   6.700   3.806   6.596 -0.1258  0.5123  0.5498
 3507TIP3   OH232155   6.880   1.307   0.483 -0.0524 -0.0424 -0.2981
 3507TIP3    H132156   6.865   1.381   0.543 -1.2207 -0.0360 -0.5749
 3507TIP3    H232157   6.825   1.237   0.518  3.8585 -2.2409  2.3076
 3508TIP3   OH232158   3.627   4.285   6.475  0.0973 -0.1546 -0.4440
 3508TIP3    H132159   3.709   4.319   6.441 -0.2816  0.1946 -1.0105
 3508TIP3    H232160   3.646   4.193   6.494  1.0517  0.2871  0.8740
 3509TIP3   OH232161   1.550   6.931   6.661  0.0088  0.5530  0.2125
 3509TIP3    H132162   1.638   6.951   6.629  0.8617 -2.1156  0.6005
 3509TIP3    H232163   1.533   6.843   6.629 -3.2477  1.5568 -1.1874
 3510TIP3   OH232164   6.207   1.113   1.333 -0.2198 -0.1381  0.1592
 3510TIP3    H132165   6.171   1.177   1.272  2.3185 -0.8055 -2.2755
 3510TIP3    H232166   6.284   1.078   1.287  0.9966 -1.7787  3.1907
 3511TIP3   OH232167   3.661   6.611   7.996 -0.4808  0.4801 -0.3752
 3511TIP3    H132168   3.743   6.645   7.960 -0.9121  0.4372 -1.4364
 3511TIP3    H232169   3.593   6.646   7.938 -1.1879  0.2696  0.3131
 3512TIP3   OH232170   1.866   5.240   6.973 -0.2419  0.0858  0.6475
 3512TIP3    H132171   1.936   5.288   7.017  0.1547  0.1752 -0.0586
 3512TIP3    H232172   1.882   5.148   6.994 -0.4664  0.1801  1.2515
 3513TIP3   OH232173   4.254   6.825   7.674  0.4126 -0.3978 -0.0267
 3513TIP3    H132174   4.313   6.900   7.683  1.2096 -1.1027  0.7760
 3513TIP3    H232175   4.263   6.800   7.582  0.7809 -0.0274 -0.0980
 3514TIP3   OH232176   2.580   5.344   5.949 -0.0880 -0.1808  0.4302
 3514TIP3    H132177   2.534   5.351   6.033 -0.3266 -2.1772  0.5176
 3514TIP3    H232178   2.513   5.367   5.884 -0.0161  0.9781  0.7491
 3515TIP3   OH232179   2.165   4.861   1.131  0.4081 -0.1561 -0.0240
 3515TIP3    H132180   2.132   4.805   1.201  1.1084 -0.2191  0.2639
 3515TIP3    H232181   2.117   4.943   1.142  0.2902 -0.2698  0.3374
 3516TIP3   OH232182   1.330   0.562   0.750  0.2775  0.1480 -0.3279
 3516TIP3    H132183   1.403   0.617   0.778  0.4474 -0.6382  0.8466
 3516TIP3    H232184   1.310   0.508   0.827 -0.5582 -0.6961 -1.1143
 3517TIP3   OH232185   5.366   7.015   1.165 -0.0305 -0.1481  0.4447
 3517TIP3    H132186   5.279   7.023   1.205  0.7849  1.0008  2.0855
 3517TIP3    H232187   5.398   6.930   1.194 -0.5467 -0.5378 -0.0914
 3518TIP3   OH232188   5.917   5.505   7.260  0.5817 -0.0040  0.5261
 3518TIP3    H132189   5.988   5.479   7.201 -0.3494  0.0791 -0.6841
 3518TIP3    H232190   5.865   5.425   7.271  1.3313 -0.3012  2.1348
 3519TIP3   OH232191   3.783   4.042   6.687 -0.5466  0.3829 -0.1141
 3519TIP3    H132192   3.839   3.976   6.729 -0.0438 -1.0308 -2.7848
 3519TIP3    H232193   3.694   4.012   6.705 -0.3775  0.3625  0.7342
 3520TIP3   OH232194   3.988   6.841   7.669 -0.4215 -0.2374 -0.3734
 3520TIP3    H132195   3.974   6.935   7.681  2.0625  0.4828 -2.2132
 3520TIP3    H232196   4.077   6.826   7.700 -0.2163 -1.6401 -1.5609
 3521TIP3   OH232197   0.230   0.441   7.094 -0.1238  0.1045 -0.0383
 3521TIP3    H132198   0.237   0.526   7.138 -0.1487  0.5958 -0.9705
 3521TIP3    H232199   0.210   0.463   7.003 -1.9053 -0.9417  0.0591
 3522TIP3   OH232200   0.673   5.352   7.607  0.0418  0.0824  0.3675
 3522TIP3    H132201   0.734   5.295   7.653  0.6438  1.0245  0.7771
 3522TIP3    H232202   0.728   5.406   7.550 -0.3654  1.0439  0.8475
 3523TIP3   OH232203   1.791   2.361   5.903  0.4871  0.1242  0.2037
 3523TIP3    H132204   1.706   2.406   5.897  0.7454  0.7003  0.7665
 3523TIP3    H232205   1.841   2.395   5.828 -0.0471 -0.8248 -0.6093
 3524TIP3   OH232206   4.144   0.170   8.010 -0.1683  0.1353 -0.1879
 3524TIP3    H132207   4.139   0.082   7.973  0.0960  0.2514 -0.5041
 3524TIP3    H232208   4.217   0.166   8.072  0.2875  0.3138 -0.7083
 3525TIP3   OH232209   3.523   4.950   8.112 -0.2779  0.1882 -0.1699
 3525TIP3    H132210   3.499   4.858   8.104 -1.5330  0.4993 -0.1402
 3525TIP3    H232211   3.440   4.996   8.126  0.4445  1.1812  1.1005
 3526TIP3   OH232212   3.090   0.054   6.974 -0.7168 -0.0008 -0.3929
 3526TIP3    H132213   3.004   0.045   7.017 -0.4137 -0.9798  0.0549
 3526TIP3    H232214   3.116  -0.036   6.956  0.1427  0.3008 -0.6826
 3527TIP3   OH232215   6.843   4.678   1.527  0.6742 -0.4763 -0.0281
 3527TIP3    H132216   6.810   4.588   1.536  1.1532 -0.6444  0.0924
 3527TIP3    H232217   6.788   4.718   1.460 -0.3958 -0.4514  0.8509
 3528TIP3   OH232218   2.453   1.587   6.923  0.1928 -0.0117 -0.0532
 3528TIP3    H132219   2.420   1.501   6.898 -2.1974  0.8497 -0.1313
 3528TIP3    H232220   2.445   1.640   6.844 -2.0203  1.2261  0.8972
 3529TIP3   OH232221   3.966   3.479   0.375 -0.2841 -0.1023  0.2533
 3529TIP3    H132222   3.904   3.487   0.302  1.0332 -1.0999 -1.0295
 3529TIP3    H232223   4.010   3.564   0.378  1.3094 -0.7737 -1.7377
 3530TIP3   OH232224   1.001   7.106   2.111  0.4083 -0.0318  0.6483
 3530TIP3    H132225   1.052   7.070   2.183 -0.8538 -1.1831  1.0080
 3530TIP3    H232226   0.937   7.163   2.152  0.3812  0.1540  0.3515
 3531TIP3   OH232227   3.860   3.761   6.463  0.0292 -0.4659 -0.3762
 3531TIP3    H132228   3.821   3.765   6.376 -0.6979  1.0477 -0.0247
 3531TIP3    H232229   3.789   3.729   6.519  0.3139 -0.8599 -0.2336
 3532TIP3   OH232230   1.409   7.105   0.752  0.1199  0.4617 -0.1780
 3532TIP3    H132231   1.337   7.063   0.799 -0.3269  1.3014 -0.0898
 3532TIP3    H232232   1.368   7.177   0.704  1.2623  3.1677  2.5265
 3533TIP3   OH232233   4.898   2.850   7.838 -0.1629 -0.0507  0.2906
 3533TIP3    H132234   4.952   2.894   7.904  0.3781  0.2216 -0.3221
 3533TIP3    H232235   4.821   2.819   7.887 -0.3809  1.2346  0.8174
 3534TIP3   OH232236   4.673   0.849   0.290  0.1540 -0.1002 -0.2085
 3534TIP3    H132237   4.655   0.788   0.218  0.4140  0.9298 -1.1909
 3534TIP3    H232238   4.769   0.855   0.292  0.1197  1.6140 -1.3523
 3535TIP3   OH232239   6.824   3.889   1.161 -0.4055  0.2855 -0.2108
 3535TIP3    H132240   6.903   3.939   1.185  0.9054 -0.5278 -2.4545
 3535TIP3    H232241   6.791   3.855   1.244  2.1886 -0.1445  0.7682
 3536TIP3   OH232242   5.088   3.086   0.648  0.2313  0.3171  0.5994
 3536TIP3    H132243   5.011   3.104   0.701  0.6068  0.8171  0.9770
 3536TIP3    H232244   5.125   3.005   0.684 -0.3030 -0.1211  0.1939
 3537TIP3   OH232245   6.748   3.093   6.363  0.4892 -0.2326  0.4718
 3537TIP3    H132246   6.738   2.998   6.373 -1.2328 -0.0304  0.8732
 3537TIP3    H232247   6.673   3.130   6.409  0.1906  1.2668 -1.1292
 3538TIP3   OH232248   3.396   1.484   7.116 -0.1578 -0.2755  0.1474
 3538TIP3    H132249   3.486   1.512   7.134 -0.6203  1.7384 -0.4271
 3538TIP3    H232250   3.396   1.464   7.022 -0.7868  1.9678 -0.3927
 3539TIP3   OH232251   7.039   6.154   0.600  0.0116  0.3586  0.1550
 3539TIP3    H132252   7.093   6.105   0.662 -2.2016  0.3952  2.2197
 3539TIP3    H232253   6.974   6.090   0.570  0.4525  0.6155 -1.4404
 3540TIP3   OH232254   3.024   1.760   6.664 -0.0206  0.4499 -0.1712
 3540TIP3    H132255   2.951   1.708   6.697 -0.9247  1.4827 -0.4920
 3540TIP3    H232256   3.016   1.755   6.569 -0.2702  1.3624 -0.2066
 3541TIP3   OH232257   1.123   4.280   7.348 -0.0646  0.4899  0.3537
 3541TIP3    H132258   1.073   4.360   7.330 -0.8668 -0.1554 -0.4247
 3541TIP3    H232259   1.135   4.239   7.262 -0.1642 -0.5051  0.7931
 3542TIP3   OH232260   0.830   7.089   1.896 -0.9748  0.7525  0.1528
 3542TIP3    H132261   0.742   7.064   1.921 -1.9975  3.5432 -0.2842
 3542TIP3    H232262   0.878   7.098   1.978 -0.9173 -1.1832  0.3680
 3543TIP3   OH232263   2.357   6.294   6.569 -0.6454  0.3558 -0.4731
 3543TIP3    H132264   2.412   6.353   6.517  0.2048 -0.1026 -0.0990
 3543TIP3    H232265   2.280   6.278   6.513  1.0444 -1.5610 -2.4210
 3544TIP3   OH232266   6.254   0.464   0.835 -0.6769 -0.7506 -0.1453
 3544TIP3    H132267   6.272   0.556   0.856  0.1699 -0.9126 -0.1075
 3544TIP3    H232268   6.222   0.426   0.917 -0.4779 -0.6227 -0.0090
 3545TIP3   OH232269   3.482   1.999   7.707  0.2409  0.3935 -0.1231
 3545TIP3    H132270   3.434   1.988   7.625 -0.9152 -2.0572  0.7767
 3545TIP3    H232271   3.440   2.074   7.750  1.3421  2.1967 -1.9744
 3546TIP3   OH232272   2.423   0.538   6.452  0.0034  0.7313 -0.0118
 3546TIP3    H132273   2.402   0.616   6.504  0.6213  1.0176 -0.1850
 3546TIP3    H232274   2.516   0.546   6.432 -0.1481  0.4612 -0.8869
 3547TIP3   OH232275   0.859   5.262   6.237  0.0193 -0.2850 -0.3357
 3547TIP3    H132276   0.809   5.212   6.172 -1.4362 -1.2725  1.4379
 3547TIP3    H232277   0.814   5.346   6.242 -2.1262 -1.4137  1.7717
 3548TIP3   OH232278   3.681   5.211   0.233  0.2699 -0.4154 -0.2449
 3548TIP3    H132279   3.649   5.288   0.281  1.4731 -1.0174  1.6231
 3548TIP3    H232280   3.615   5.144   0.249 -0.1041 -0.1824 -0.7607
 3549TIP3   OH232281   5.728   3.698   2.039  0.4306  0.4072 -0.2639
 3549TIP3    H132282   5.769   3.755   2.103 -0.3431  0.4930  0.1722
 3549TIP3    H232283   5.654   3.748   2.006 -0.3069 -0.3585  0.1779
 3550TIP3   OH232284   4.519   4.228   0.371 -0.5788  0.1570 -0.2763
 3550TIP3    H132285   4.501   4.205   0.281  0.5777 -1.4636 -0.1447
 3550TIP3    H232286   4.433   4.231   0.414 -1.2157  1.8365 -1.5792
 3551TIP3   OH232287   2.361   6.888   7.920 -0.1798  0.4801 -0.2784
 3551TIP3    H132288   2.371   6.941   7.841  0.3619  0.7294 -0.0442
 3551TIP3    H232289   2.407   6.937   7.988 -0.0518 -0.0726  0.0382
 3552TIP3   OH232290   1.570   0.703   7.743 -0.0229  0.5763 -0.6784
 3552TIP3    H132291   1.482   0.714   7.706  0.0813 -0.8217 -1.4225
 3552TIP3    H232292   1.598   0.617   7.711  1.4796  0.8524 -0.1496
 3553TIP3   OH232293   1.588   6.440   7.914  0.3149 -0.6347 -0.1877
 3553TIP3    H132294   1.581   6.478   8.002  0.4199  0.3233 -0.5854
 3553TIP3    H232295   1.498   6.437   7.883  0.3179 -0.6131 -0.1981
 3554TIP3   OH232296   3.722   4.106   7.980  0.3731 -0.4808  0.2020
 3554TIP3    H132297   3.735   4.065   7.895 -0.9200 -1.0282  0.2426
 3554TIP3    H232298   3.686   4.036   8.035  2.2565 -0.4637  1.5494
 3555TIP3   OH232299   4.425   5.155   1.791  0.3721 -0.3869 -0.5461
 3555TIP3    H132300   4.422   5.217   1.864 -0.1704 -0.8982 -0.1256
 3555TIP3    H232301   4.407   5.070   1.831  1.5097 -0.8830 -1.0556
 3556TIP3   OH232302   4.412   0.576   7.396 -0.1843 -0.1594  0.2869
 3556TIP3    H132303   4.401   0.560   7.490  1.2613 -1.1835  0.3275
 3556TIP3    H232304   4.461   0.659   7.392  0.2264 -0.3865  0.4761
 3557TIP3   OH232305   0.797   2.475   7.007 -0.3698  0.0170  0.2447
 3557TIP3    H132306   0.751   2.458   6.925  1.8839  0.5468 -1.2191
 3557TIP3    H232307   0.831   2.564   6.997 -1.1038  0.5972  2.3317
 3558TIP3   OH232308   3.287   5.198   0.748  0.1736  0.3018 -0.5571
 3558TIP3    H132309   3.249   5.223   0.832 -1.1532 -0.6675 -0.8450
 3558TIP3    H232310   3.217   5.213   0.685  0.4039 -1.1119 -1.1666
 3559TIP3   OH232311   1.365   6.501   1.390 -0.0892 -0.2114  0.9020
 3559TIP3    H132312   1.401   6.572   1.444  2.0267  0.1542 -0.8203
 3559TIP3    H232313   1.312   6.545   1.324  0.6682 -0.2508  0.2467
 3560TIP3   OH232314   1.989   1.503   7.090 -1.0427 -0.7137 -0.1086
 3560TIP3    H132315   2.047   1.546   7.027 -2.0653  0.9187  0.0105
 3560TIP3    H232316   1.964   1.573   7.151  0.1768 -2.2875  2.3720
 3561TIP3   OH232317   1.733   0.074   0.881 -0.3008 -0.0396  0.0177
 3561TIP3    H132318   1.747  -0.021   0.891 -3.0431 -0.5232  0.1462
 3561TIP3    H232319   1.709   0.103   0.968  4.0802  1.6718  0.9270
 3562TIP3   OH232320   5.370   5.490   7.189  0.2274  0.0916 -0.3887
 3562TIP3    H132321   5.465   5.492   7.197  0.1192  0.1185  1.2972
 3562TIP3    H232322   5.350   5.399   7.167  0.6148  0.0051 -0.3926
 3563TIP3   OH232323   6.918   4.324   6.289 -0.3271 -0.0101 -0.0666
 3563TIP3    H132324   6.952   4.335   6.200  3.0805  1.9148  1.3078
 3563TIP3    H232325   6.827   4.298   6.276  0.2479 -0.7088 -4.0878
 3564TIP3   OH232326   2.488   1.257   0.853  0.6674  0.2229  0.5054
 3564TIP3    H132327   2.496   1.193   0.782 -0.6123  0.0646  0.4638
 3564TIP3    H232328   2.412   1.309   0.829  1.6633  1.7539  0.5672
 3565TIP3   OH232329   1.143   4.190   0.728  0.3525 -0.9795 -0.2682
 3565TIP3    H132330   1.110   4.245   0.658 -1.7549  0.4258  1.6811
 3565TIP3    H232331   1.109   4.102   0.709 -2.5432 -0.0844  0.3029
 3566TIP3   OH232332   6.070   0.290   7.855  0.6701 -0.2305 -0.2851
 3566TIP3    H132333   5.986   0.329   7.831  0.4620  0.7272  1.7602
 3566TIP3    H232334   6.118   0.283   7.772 -0.3990  1.7186 -1.1383
 3567TIP3   OH232335   3.295   0.151   6.312 -0.0249 -0.5790  0.4903
 3567TIP3    H132336   3.289   0.115   6.223 -0.0359 -1.9922  1.0249
 3567TIP3    H232337   3.378   0.198   6.313 -0.5070  0.3207 -0.5556
 3568TIP3   OH232338   3.536   1.134   6.894  0.1499  0.2504 -0.3529
 3568TIP3    H132339   3.449   1.095   6.901 -0.3045  0.4252 -3.6587
 3568TIP3    H232340   3.590   1.067   6.853  1.8229 -0.0386  2.0687
 3569TIP3   OH232341   5.399   6.049   7.500  0.0827 -0.0048 -0.1459
 3569TIP3    H132342   5.411   5.983   7.432  2.3283 -1.1881  1.2492
 3569TIP3    H232343   5.337   6.112   7.463 -0.0674 -1.4690 -2.5779
 3570TIP3   OH232344   3.488   5.707   0.451 -0.0188  0.0380  0.0438
 3570TIP3    H132345   3.419   5.653   0.488  0.3267  0.2126  0.9857
 3570TIP3    H232346   3.561   5.697   0.513 -0.1052  1.9327  0.4872
 3571TIP3   OH232347   5.798   1.907   1.871 -0.1694  0.8912  0.2459
 3571TIP3    H132348   5.831   1.862   1.948 -0.0840 -1.0142 -0.8373
 3571TIP3    H232349   5.706   1.923   1.889  0.3593  2.6480  1.6705
 3572TIP3   OH232350   4.034   4.532   0.094  0.4157  0.1908  0.2026
 3572TIP3    H132351   4.006   4.450   0.135 -0.0809  0.3272  0.1394
 3572TIP3    H232352   4.011   4.600   0.158  1.7602  0.1977  0.7059
 3573TIP3   OH232353   3.671   0.511   1.838  0.2268 -0.2305  0.1437
 3573TIP3    H132354   3.743   0.571   1.822  0.4952 -0.1226  1.6225
 3573TIP3    H232355   3.697   0.430   1.795  0.6047  0.2183 -0.4785
 3574TIP3   OH232356   0.479   4.430   0.800  0.4052  0.0373 -0.0345
 3574TIP3    H132357   0.533   4.350   0.795  0.2170 -0.0704 -0.4638
 3574TIP3    H232358   0.392   4.401   0.775  0.4568  0.4870 -0.7631
 3575TIP3   OH232359   4.721   1.734   7.633 -0.1675 -0.5205 -0.2417
 3575TIP3    H132360   4.682   1.811   7.592  0.4836 -0.7776 -1.3798
 3575TIP3    H232361   4.769   1.768   7.708 -3.4352 -0.2891  1.9673
 3576TIP3   OH232362   0.639   1.936   6.629 -0.7894 -0.1483  0.1217
 3576TIP3    H132363   0.714   1.986   6.662 -1.1255 -0.0462  0.7588
 3576TIP3    H232364   0.670   1.898   6.547 -0.6020  1.2933 -0.4972
 3577TIP3   OH232365   5.211   1.752   1.752  0.2773 -0.2113  0.0674
 3577TIP3    H132366   5.200   1.838   1.793  0.3176  0.0451 -0.4556
 3577TIP3    H232367   5.265   1.703   1.813 -2.1529 -0.8801  1.8445
 3578TIP3   OH232368   1.486   3.393   6.770  0.4651  0.1915 -0.2735
 3578TIP3    H132369   1.419   3.461   6.768 -1.2122 -1.2821  1.1038
 3578TIP3    H232370   1.554   3.427   6.828  0.1461  1.0999 -0.4271
 3579TIP3   OH232371   6.125   0.323   0.389  0.4005 -0.4725 -0.0320
 3579TIP3    H132372   6.047   0.367   0.354  0.4496  0.3355  0.8211
 3579TIP3    H232373   6.097   0.292   0.476  1.3677  0.9794  0.8539
 3580TIP3   OH232374   5.979   0.482   7.290 -0.0369 -0.1722 -0.1445
 3580TIP3    H132375   5.895   0.446   7.319 -0.3621 -0.0159 -0.8782
 3580TIP3    H232376   6.042   0.414   7.313 -0.5886 -1.0466 -1.1226
 3581TIP3   OH232377   6.520   5.324   7.302 -0.3338  0.6908 -0.1625
 3581TIP3    H132378   6.536   5.269   7.379  0.4293 -1.0459 -1.4895
 3581TIP3    H232379   6.541   5.412   7.331  1.1868 -0.0778  1.2866
 3582TIP3   OH232380   6.244   3.810   1.528 -0.0940  0.5637  0.5887
 3582TIP3    H132381   6.169   3.825   1.585  1.0363  0.7212  2.1077
 3582TIP3    H232382   6.275   3.897   1.505  0.1746  0.5150  0.7518
 3583TIP3   OH232383   6.907   0.360   6.714  0.1609 -0.1057  0.8117
 3583TIP3    H132384   6.913   0.325   6.803 -1.7642 -1.1633  0.5623
 3583TIP3    H232385   6.859   0.293   6.665 -1.8465  1.9582 -0.1913
 3584TIP3   OH232386   3.380   6.799   1.467  0.1245  0.1249  0.0187
 3584TIP3    H132387   3.437   6.857   1.517 -0.3879 -0.9249  1.9008
 3584TIP3    H232388   3.344   6.855   1.398  1.7571  1.3232  0.0734
 3585TIP3   OH232389   7.062   3.659   1.273  0.2272  0.0451  0.0519
 3585TIP3    H132390   6.976   3.621   1.256 -0.4042 -0.0978  3.0040
 3585TIP3    H232391   7.113   3.588   1.311  1.1803  0.5010 -0.3444
 3586TIP3   OH232392   5.349   4.736   6.997 -0.8033  0.1617 -0.2998
 3586TIP3    H132393   5.373   4.767   7.085  0.0956  0.9064 -0.7877
 3586TIP3    H232394   5.254   4.734   6.997 -0.8172 -1.4345  1.2338
 3587TIP3   OH232395   3.622   1.033   7.562  0.0310 -0.0207  0.1170
 3587TIP3    H132396   3.553   1.043   7.496 -0.6321 -0.5335  0.7116
 3587TIP3    H232397   3.658   1.121   7.573  0.5963 -0.0457 -1.3870
 3588TIP3   OH232398   2.261   3.333   6.821 -0.3194  0.0599  0.1129
 3588TIP3    H132399   2.205   3.271   6.775  0.3124  0.0639 -0.6956
 3588TIP3    H232400   2.256   3.413   6.769  2.8641 -0.8339 -1.9306
 3589TIP3   OH232401   2.821   1.928   0.480 -0.0233  0.0904 -0.3778
 3589TIP3    H132402   2.822   1.893   0.390  0.1962  1.2750 -0.8526
 3589TIP3    H232403   2.868   1.862   0.531  0.6061 -0.2088 -1.2961
 3590TIP3   OH232404   4.627   6.071   6.457  0.0438  0.3447  0.4168
 3590TIP3    H132405   4.642   6.020   6.378  1.4783 -1.8804  2.0075
 3590TIP3    H232406   4.689   6.144   6.451  0.0064  0.3042 -0.5691
 3591TIP3   OH232407   3.848   0.088   7.133  0.0447 -0.5496  0.5778
 3591TIP3    H132408   3.807   0.148   7.071  0.2282 -0.2190  0.7707
 3591TIP3    H232409   3.913   0.142   7.179  0.1588 -0.8777  0.8059
 3592TIP3   OH232410   1.161   6.643   1.242  0.0871 -0.2297  0.7726
 3592TIP3    H132411   1.194   6.709   1.182 -2.8778 -0.5123 -1.3894
 3592TIP3    H232412   1.124   6.693   1.315 -1.9773  0.6190 -0.7625
 3593TIP3   OH232413   6.333   2.576   7.410  0.0091  0.0672 -0.0466
 3593TIP3    H132414   6.404   2.534   7.360  1.0379 -0.2748  1.6149
 3593TIP3    H232415   6.355   2.669   7.408  0.1068  0.0427 -0.1488
 3594TIP3   OH232416   4.225   2.505   1.680  0.0111 -0.2688 -0.4832
 3594TIP3    H132417   4.291   2.448   1.719 -1.1031  0.4342  2.7589
 3594TIP3    H232418   4.244   2.591   1.716 -1.5345  0.3009 -0.9707
 3595TIP3   OH232419   2.132   0.540   5.928  0.1742 -0.3214 -0.5271
 3595TIP3    H132420   2.189   0.482   5.877  0.1961 -1.1465  0.3967
 3595TIP3    H232421   2.148   0.515   6.019 -0.8423  0.2009 -0.1880
 3596TIP3   OH232422   2.510   2.220   6.316 -0.0628 -0.0432  0.3037
 3596TIP3    H132423   2.444   2.275   6.358 -2.2252 -1.1064 -1.4937
 3596TIP3    H232424   2.554   2.278   6.254  0.2613  0.5191  1.0450
 3597TIP3   OH232425   5.756   2.478   6.549  0.2924 -0.4499 -0.9358
 3597TIP3    H132426   5.705   2.420   6.493 -0.9077  0.3953 -0.7607
 3597TIP3    H232427   5.691   2.523   6.603  1.3076 -0.0736  0.0179
 3598TIP3   OH232428   4.109   0.180   7.119  0.2479  0.2038  0.0158
 3598TIP3    H132429   4.125   0.268   7.153 -0.3450  0.4083 -0.2167
 3598TIP3    H232430   4.106   0.191   7.024 -1.5672  0.2606  0.0437
 3599TIP3   OH232431   6.203   6.622   7.670 -0.7845  0.1448 -0.4596
 3599TIP3    H132432   6.288   6.657   7.697 -1.3759  1.4252 -0.1537
 3599TIP3    H232433   6.163   6.591   7.752 -0.6150 -0.4799 -0.6061
 3600TIP3   OH232434   1.195   2.673   7.978  0.3611  0.4878  0.5353
 3600TIP3    H132435   1.115   2.670   8.030  0.5378 -2.3168  0.8205
 3600TIP3    H232436   1.260   2.712   8.037  0.1845 -1.2053  1.9579
 3601TIP3   OH232437   3.823   5.453   7.507  0.1768 -0.5180 -0.6219
 3601TIP3    H132438   3.875   5.422   7.581  1.1197  0.6693 -0.7531
 3601TIP3    H232439   3.741   5.405   7.513  0.1523 -0.2999  1.3207
 3602TIP3   OH232440   3.023   6.706   7.661  0.5634 -0.0607 -0.7911
 3602TIP3    H132441   3.012   6.736   7.751  0.4045  0.8275 -1.0991
 3602TIP3    H232442   3.099   6.648   7.664 -0.3165 -1.2389  0.1880
 3603TIP3   OH232443   4.343   1.431   7.836  0.6468  0.2476  0.1864
 3603TIP3    H132444   4.430   1.419   7.799  0.5815  0.1260  0.0715
 3603TIP3    H232445   4.358   1.448   7.928  0.9527  2.6336 -0.2427
 3604TIP3   OH232446   3.944   4.532   7.341 -0.2716 -0.8253 -0.1418
 3604TIP3    H132447   3.912   4.518   7.430 -0.8560  1.2193  0.0062
 3604TIP3    H232448   4.009   4.463   7.328  0.7196 -0.4549  2.3141
 3605TIP3   OH232449   5.773   0.691   0.523  0.3073 -0.1802  0.0853
 3605TIP3    H132450   5.768   0.786   0.531 -0.9589 -0.3087  1.1345
 3605TIP3    H232451   5.742   0.658   0.607  1.4389 -1.5293  0.0169
 3606TIP3   OH232452   2.606   2.347   6.975 -0.4031  0.2343  0.3870
 3606TIP3    H132453   2.684   2.358   6.919 -1.8939 -0.7172 -2.0444
 3606TIP3    H232454   2.627   2.395   7.055  2.5840  0.2093 -0.2461
 3607TIP3   OH232455   2.914   5.710   0.366 -0.1266 -0.2068  0.0965
 3607TIP3    H132456   2.900   5.685   0.457 -1.1016  2.5384  0.7901
 3607TIP3    H232457   2.829   5.697   0.324  0.9602 -4.3502 -1.3697
 3608TIP3   OH232458   7.045   4.513   2.332 -0.3941 -0.2017  0.7876
 3608TIP3    H132459   7.001   4.446   2.384 -0.7940  0.7301  1.6929
 3608TIP3    H232460   7.117   4.543   2.388 -2.7289  3.1086  2.3477
 3609TIP3   OH232461   1.916   2.518   0.284 -0.3168 -0.4613 -0.1834
 3609TIP3    H132462   2.008   2.505   0.307  0.4603  0.2160 -2.6276
 3609TIP3    H232463   1.917   2.588   0.219 -2.3492 -1.7997 -1.7683
 3610TIP3   OH232464   0.746   2.097   0.679 -0.3085  0.6046 -0.5927
 3610TIP3    H132465   0.656   2.064   0.678 -0.5096  1.1747 -1.2174
 3610TIP3    H232466   0.764   2.110   0.772 -0.7524  0.1801 -0.4371
 3611TIP3   OH232467   3.810   4.266   6.857  0.3409 -0.2562  0.3576
 3611TIP3    H132468   3.799   4.175   6.830  0.5089 -0.8121  2.0856
 3611TIP3    H232469   3.875   4.263   6.927 -0.4579  1.0461  1.2028
 3612TIP3   OH232470   3.178   0.657   6.731  0.2075 -0.3699 -0.4597
 3612TIP3    H132471   3.195   0.739   6.686 -0.1802  0.8005  1.4134
 3612TIP3    H232472   3.261   0.634   6.772  0.3659 -1.0432 -1.1303
 3613TIP3   OH232473   6.090   5.201   7.422  0.3861 -0.3072 -0.1288
 3613TIP3    H132474   6.138   5.118   7.426 -0.5441 -0.8141  2.2719
 3613TIP3    H232475   6.132   5.256   7.489 -1.5931 -0.3891  1.2626
 3614TIP3   OH232476   3.540   4.276   7.324  0.0877  0.7928  0.5060
 3614TIP3    H132477   3.546   4.292   7.230 -0.9920  0.1498  0.3045
 3614TIP3    H232478   3.622   4.233   7.347  0.7129  1.7082  0.0288
 3615TIP3   OH232479   1.248   3.608   2.376  0.5128  0.1552  0.1717
 3615TIP3    H132480   1.255   3.524   2.332  1.0325  0.6313 -0.6968
 3615TIP3    H232481   1.177   3.654   2.329  0.3896  0.2934  0.4854
 3616TIP3   OH232482   4.727   0.556   1.141  0.4756 -0.0086  0.4534
 3616TIP3    H132483   4.673   0.489   1.100 -0.2031  1.1319 -0.6118
 3616TIP3    H232484   4.817   0.530   1.121  0.1711  0.3410 -1.5910
 3617TIP3   OH232485   6.677   7.089   1.202 -0.2814  0.6245  0.5685
 3617TIP3    H132486   6.767   7.121   1.208 -0.2550  1.2813 -2.1012
 3617TIP3    H232487   6.642   7.100   1.290  1.3304  3.1992  0.9982
 3618TIP3   OH232488   2.806   6.431   7.493  0.1219 -0.0339 -0.4318
 3618TIP3    H132489   2.733   6.406   7.436 -0.2732 -0.9764  0.4731
 3618TIP3    H232490   2.771   6.503   7.546  0.1518  0.1425 -0.6516
 3619TIP3   OH232491   3.729   2.198   6.553  0.2310  0.0964 -0.3623
 3619TIP3    H132492   3.640   2.195   6.589 -0.3347  0.0631 -1.6675
 3619TIP3    H232493   3.721   2.254   6.476  0.7831 -1.8088 -1.8985
 3620TIP3   OH232494   2.878   2.721   7.561 -0.6339 -0.0991  0.1564
 3620TIP3    H132495   2.931   2.791   7.520 -0.0842 -1.8063 -2.2931
 3620TIP3    H232496   2.918   2.708   7.646  1.0078  0.7226 -0.4328
 3621TIP3   OH232497   1.195   3.488   6.959  0.0172 -0.0405  0.1552
 3621TIP3    H132498   1.247   3.529   7.027 -0.7196 -0.3615  0.9264
 3621TIP3    H232499   1.104   3.499   6.987 -0.3087 -0.0447 -0.8472
 3622TIP3   OH232500   4.787   1.625   6.864  0.2832 -0.5946 -0.0405
 3622TIP3    H132501   4.722   1.683   6.904 -0.4685 -0.8664 -0.8433
 3622TIP3    H232502   4.788   1.548   6.920  0.4579 -0.2810  0.3914
 3623TIP3   OH232503   2.043   5.959   6.648  0.0172  0.3293 -0.3342
 3623TIP3    H132504   2.124   5.945   6.598  0.0870  0.1119 -0.1590
 3623TIP3    H232505   2.071   6.005   6.726  0.0239 -0.0783 -0.0945
 3624TIP3   OH232506   7.112   6.628   7.057  0.5177 -0.3132 -0.4281
 3624TIP3    H132507   7.119   6.584   7.141 -1.9053 -0.4614 -0.2387
 3624TIP3    H232508   7.099   6.558   6.993 -1.0308 -0.0639 -0.4318
 3625TIP3   OH232509   6.937   0.981   7.263 -0.0338 -0.5407  0.1585
 3625TIP3    H132510   6.851   0.993   7.225 -0.1593 -0.4623  0.4605
 3625TIP3    H232511   6.949   1.058   7.320  0.9811  0.3980 -1.2511
 3626TIP3   OH232512   4.367   4.144   1.007 -0.0104  0.7784  0.4843
 3626TIP3    H132513   4.274   4.157   1.026  0.0228  1.0550  0.4643
 3626TIP3    H232514   4.410   4.151   1.093 -0.0368  0.3856  0.5297
 3627TIP3   OH232515   3.526   0.751   5.913 -0.1840  0.3471  0.2535
 3627TIP3    H132516   3.443   0.769   5.869  1.0166  1.4292 -1.7106
 3627TIP3    H232517   3.549   0.833   5.957  0.5103  0.5158 -0.4019
 3628TIP3   OH232518   2.312   3.682   6.374 -0.5664 -0.3053  0.5855
 3628TIP3    H132519   2.334   3.590   6.387  1.0127  0.1916  1.7491
 3628TIP3    H232520   2.285   3.687   6.282  3.2156 -1.2811 -0.7974
 3629TIP3   OH232521   0.027   6.501   0.864  0.0584  0.3286  0.6220
 3629TIP3    H132522   0.094   6.555   0.822  0.3832 -1.4335 -1.2813
 3629TIP3    H232523  -0.053   6.551   0.856  0.4946  0.8900 -0.3527
 3630TIP3   OH232524   2.192   5.375   8.129 -0.1451  0.1033  0.1579
 3630TIP3    H132525   2.277   5.413   8.153 -0.5419  0.6885  0.6785
 3630TIP3    H232526   2.162   5.428   8.055 -0.2012  0.1037  0.1806
 3631TIP3   OH232527   6.692   2.216   7.663 -0.4422 -0.0640  0.0846
 3631TIP3    H132528   6.706   2.241   7.572 -0.9724 -2.3361 -0.6823
 3631TIP3    H232529   6.609   2.258   7.687 -0.6617 -0.0450 -0.7100
 3632TIP3   OH232530   1.263   3.286   1.483 -0.0440 -0.3301 -0.5123
 3632TIP3    H132531   1.284   3.288   1.390 -0.5248 -2.7927 -0.7512
 3632TIP3    H232532   1.189   3.224   1.489 -0.8632  0.7502  1.3700
 3633TIP3   OH232533   4.364   0.302   7.246  0.7223 -0.0598  0.5912
 3633TIP3    H132534   4.353   0.313   7.152 -1.0604 -2.3179  0.4439
 3633TIP3    H232535   4.377   0.391   7.280 -2.0600  1.2508 -1.4054
 3634TIP3   OH232536   2.629   1.578   1.101 -0.7069 -0.2603  0.2893
 3634TIP3    H132537   2.536   1.556   1.090 -0.8023  0.8746 -1.5751
 3634TIP3    H232538   2.675   1.497   1.084 -1.3113 -0.6506  0.4683
 3635TIP3   OH232539   1.612   3.472   0.469 -0.0273 -0.4337 -0.2149
 3635TIP3    H132540   1.575   3.535   0.408 -0.8751 -0.2510  0.4752
 3635TIP3    H232541   1.563   3.484   0.550 -1.7788 -3.4983 -0.6715
 3636TIP3   OH232542   3.973   1.863   7.358 -0.1395  0.7387  0.2167
 3636TIP3    H132543   3.915   1.923   7.311 -2.9748  0.1796  2.6894
 3636TIP3    H232544   4.010   1.806   7.290 -1.0393  2.2922 -1.6729
 3637TIP3   OH232545   3.098   0.423   7.364  0.2506 -0.1653 -0.5161
 3637TIP3    H132546   3.162   0.410   7.433  0.4481 -1.2879 -0.8885
 3637TIP3    H232547   3.100   0.518   7.346  2.5230 -0.2909 -1.2027
 3638TIP3   OH232548   6.154   6.042   1.467  0.2226 -0.3762 -0.1818
 3638TIP3    H132549   6.210   6.013   1.539  0.2751  0.9173  0.3411
 3638TIP3    H232550   6.065   6.022   1.497  0.1591  1.1153  0.7807
 3639TIP3   OH232551   1.708   3.103   5.916  0.0565 -0.2319  0.3261
 3639TIP3    H132552   1.682   3.055   5.994  1.3933  0.7412  1.4235
 3639TIP3    H232553   1.727   3.035   5.851  1.2306 -1.1844  1.6194
 3640TIP3   OH232554   5.174   2.049   6.235  0.3841 -0.3710  0.2506
 3640TIP3    H132555   5.167   1.954   6.238  0.6411 -0.4685 -1.4487
 3640TIP3    H232556   5.235   2.067   6.163  0.0020  1.0856  0.2511
 3641TIP3   OH232557   5.744   1.844   1.058  0.0254  0.9152  0.3024
 3641TIP3    H132558   5.754   1.921   1.114 -0.3353  1.1350  0.0609
 3641TIP3    H232559   5.705   1.777   1.115  1.2547  0.5731  0.8015
 3642TIP3   OH232560   0.220   4.008   0.272 -0.3506 -0.6226 -0.0662
 3642TIP3    H132561   0.263   4.038   0.191  0.9439 -1.7336  0.1768
 3642TIP3    H232562   0.135   4.051   0.270  1.2889  3.1127  0.2303
 3643TIP3   OH232563   1.906   4.830   1.523 -0.0503 -0.0214 -0.1987
 3643TIP3    H132564   1.833   4.873   1.479  0.0198 -0.2449 -0.5412
 3643TIP3    H232565   1.876   4.817   1.613 -0.8418 -1.0379 -0.5788
 3644TIP3   OH232566   1.822   1.685   0.747  0.1602  0.0108 -0.3538
 3644TIP3    H132567   1.866   1.755   0.699  0.1158 -0.3186 -0.8798
 3644TIP3    H232568   1.785   1.628   0.679 -0.1275 -0.3175  0.0712
 3645TIP3   OH232569   5.680   6.640   0.789 -0.3562 -0.1240  0.1973
 3645TIP3    H132570   5.663   6.724   0.831 -0.8509 -0.0364 -0.1603
 3645TIP3    H232571   5.617   6.637   0.717 -0.1261 -0.6623  0.0161
 3646TIP3   OH232572   4.689   2.886   0.638  0.2375  0.5033 -0.0790
 3646TIP3    H132573   4.641   2.813   0.599  0.1475  0.5763 -0.1044
 3646TIP3    H232574   4.763   2.900   0.580  0.1428  0.5648 -0.1852
 3647TIP3   OH232575   0.948   0.522   6.664  0.0231  0.1147  0.2849
 3647TIP3    H132576   1.032   0.523   6.619 -0.8212  0.9325 -1.3550
 3647TIP3    H232577   0.970   0.531   6.757  1.6650  3.6722 -0.2919
 3648TIP3   OH232578   0.327   0.893   1.181 -0.5496 -0.2133  0.1282
 3648TIP3    H132579   0.242   0.937   1.177 -1.6408 -2.2872 -0.6516
 3648TIP3    H232580   0.311   0.814   1.232  0.4926 -1.4991 -1.4706
 3649TIP3   OH232581   3.174   6.025   7.232 -0.3481 -0.3385 -0.2189
 3649TIP3    H132582   3.106   6.060   7.290  1.4395  2.2992  0.5068
 3649TIP3    H232583   3.167   6.078   7.153  1.5630  0.9280  0.3681
 3650TIP3   OH232584   4.690   3.908   7.549  0.2126 -0.5915 -0.1292
 3650TIP3    H132585   4.649   3.945   7.627 -1.7293  0.1228 -1.4078
 3650TIP3    H232586   4.657   3.819   7.544 -0.5886 -0.2698 -0.7329
 3651TIP3   OH232587   6.609   5.329   6.230 -0.4431 -0.4860 -0.4863
 3651TIP3    H132588   6.584   5.259   6.170  0.6060  0.0206 -1.5477
 3651TIP3    H232589   6.532   5.387   6.233 -0.4563 -0.4431 -1.4525
 3652TIP3   OH232590   0.334   6.685   6.369 -0.3538 -0.2535  0.0902
 3652TIP3    H132591   0.351   6.594   6.394 -0.6418 -0.8704 -1.7968
 3652TIP3    H232592   0.400   6.736   6.415 -1.0729 -1.2217  2.3176
 3653TIP3   OH232593   5.537   2.325   1.371 -0.1454 -0.2135  0.3279
 3653TIP3    H132594   5.452   2.366   1.357 -0.1613 -0.9918 -2.5686
 3653TIP3    H232595   5.517   2.239   1.408 -0.6495 -0.3542 -0.2472
 3654TIP3   OH232596   1.194   3.709   0.368  0.3684  0.4624 -0.4259
 3654TIP3    H132597   1.213   3.801   0.349 -0.0200  0.4831 -0.7315
 3654TIP3    H232598   1.125   3.686   0.305 -1.0468  0.5703  1.0038
 3655TIP3   OH232599   2.414   3.795   6.856 -0.4370  0.1993  0.0084
 3655TIP3    H132600   2.460   3.732   6.800 -0.8079 -0.5510  0.5399
 3655TIP3    H232601   2.476   3.814   6.927  0.2482  1.5632 -0.9054
 3656TIP3   OH232602   4.728   3.259   7.804 -0.4798 -0.1022 -0.1673
 3656TIP3    H132603   4.661   3.322   7.830 -0.5499 -0.0603 -0.4401
 3656TIP3    H232604   4.803   3.279   7.860 -0.6987 -0.1575  0.1469
 3657TIP3   OH232605   5.826   4.551   5.863  0.4895  0.0989 -0.6930
 3657TIP3    H132606   5.795   4.583   5.948 -0.0937 -0.5262 -0.6664
 3657TIP3    H232607   5.869   4.468   5.882 -0.0645 -0.2789 -1.0664
 3658TIP3   OH232608   0.061   3.363   0.389  0.0754 -0.2477  0.1997
 3658TIP3    H132609  -0.021   3.320   0.412  0.0550 -0.8451 -0.9137
 3658TIP3    H232610   0.119   3.344   0.462 -0.3808 -0.9381  0.3987
 3659TIP3   OH232611   5.724   4.875   1.270  0.0814  0.1956  0.5051
 3659TIP3    H132612   5.647   4.831   1.306  0.3139 -0.3232  0.3829
 3659TIP3    H232613   5.770   4.910   1.346  0.4712 -0.7314  0.7105
 3660TIP3   OH232614   1.788   1.437   7.933  0.5987 -0.6358  0.5207
 3660TIP3    H132615   1.800   1.510   7.871  0.3220 -0.9620  0.0754
 3660TIP3    H232616   1.716   1.386   7.896  2.1780 -2.3362 -0.3449
 3661TIP3   OH232617   2.009   2.129   1.551  0.1851  0.7866 -0.1437
 3661TIP3    H132618   1.998   2.043   1.511 -0.2232  1.3449 -1.2863
 3661TIP3    H232619   2.061   2.178   1.488 -0.1951  1.5955  0.1539
 3662TIP3   OH232620   5.643   3.848   8.106 -0.3042 -0.3708 -0.4325
 3662TIP3    H132621   5.618   3.865   8.197 -2.1571 -0.8024 -0.8125
 3662TIP3    H232622   5.706   3.917   8.085  1.2675 -1.0900  1.5748
 3663TIP3   OH232623   2.332   2.042   1.870 -0.0729  0.1814  0.1661
 3663TIP3    H132624   2.325   2.054   1.965  1.8351  1.5233  0.1883
 3663TIP3    H232625   2.274   2.109   1.833  0.4725  0.7896  0.3929
 3664TIP3   OH232626   2.621   0.022   1.447 -0.1782 -0.3638 -0.5001
 3664TIP3    H132627   2.682   0.027   1.520  0.2883 -1.9402 -0.7254
 3664TIP3    H232628   2.542  -0.017   1.484 -1.3473  2.2239 -0.0749
 3665TIP3   OH232629   0.357   3.623   7.826 -0.9805 -0.0656  0.4306
 3665TIP3    H132630   0.401   3.657   7.904  1.3144  2.5531 -1.7726
 3665TIP3    H232631   0.271   3.666   7.826 -0.9775 -0.0410  1.4420
 3666TIP3   OH232632   2.276   4.414   0.526  0.6266  0.4594  0.3495
 3666TIP3    H132633   2.367   4.389   0.545 -0.1452 -2.4466  0.6192
 3666TIP3    H232634   2.263   4.388   0.435 -0.4548 -1.0563  0.8858
 3667TIP3   OH232635   6.019   1.920   6.843 -0.1977 -0.2587 -0.2434
 3667TIP3    H132636   6.022   1.839   6.792 -0.4516 -0.3564 -0.1021
 3667TIP3    H232637   5.965   1.899   6.919  0.8292 -0.3555  0.4899
 3668TIP3   OH232638   5.302   4.283   0.605  0.0898 -1.1461  0.0376
 3668TIP3    H132639   5.300   4.371   0.567  1.1391 -1.6043 -1.1537
 3668TIP3    H232640   5.225   4.239   0.569  0.3781 -1.1710 -0.5615
 3669TIP3   OH232641   1.381   5.509   0.655 -0.1451 -0.3326  0.3482
 3669TIP3    H132642   1.298   5.466   0.677 -0.2770  0.6116  1.8300
 3669TIP3    H232643   1.434   5.501   0.734  0.8152 -0.0773 -0.2569
 3670TIP3   OH232644   4.737   5.583   6.524 -0.0752  0.5938 -0.0750
 3670TIP3    H132645   4.733   5.661   6.580  0.3177 -0.3842  1.3494
 3670TIP3    H232646   4.718   5.617   6.436 -0.2996  2.2341  0.5596
 3671TIP3   OH232647   5.347   1.864   0.754 -0.1712 -0.9143  0.5428
 3671TIP3    H132648   5.319   1.954   0.740 -1.2709 -1.1483  1.1789
 3671TIP3    H232649   5.344   1.824   0.667  1.8669  0.0524 -0.0410
 3672TIP3   OH232650   4.372   0.838   0.986 -0.1457  0.2420 -0.0503
 3672TIP3    H132651   4.287   0.868   0.955 -0.0807  3.3609  2.3085
 3672TIP3    H232652   4.435   0.886   0.932 -0.0083  1.5029  1.1656
 3673TIP3   OH232653   1.242   4.451   0.677 -0.5414  0.0352 -0.8402
 3673TIP3    H132654   1.157   4.458   0.633 -0.6436  1.3148 -0.4802
 3673TIP3    H232655   1.305   4.444   0.606 -0.8681  0.0579 -1.1365
 3674TIP3   OH232656   0.487   7.013   7.932 -0.2896  0.2219  0.7954
 3674TIP3    H132657   0.434   7.035   7.856 -0.2394 -0.6142  0.5080
 3674TIP3    H232658   0.461   6.923   7.955  1.8409 -0.6958 -0.1254
 3675TIP3   OH232659   3.274   0.316   6.040  0.5637  0.2162 -0.1700
 3675TIP3    H132660   3.223   0.388   6.003 -0.5240 -0.7325 -0.5888
 3675TIP3    H232661   3.220   0.238   6.025  2.0435 -0.8126 -0.4285
 3676TIP3   OH232662   6.939   2.485   7.860  0.0156  0.0010 -0.4578
 3676TIP3    H132663   6.861   2.431   7.876 -1.0968  1.5975 -0.2265
 3676TIP3    H232664   6.950   2.482   7.765  0.5904 -1.4022 -0.3805
 3677TIP3   OH232665   5.972   3.555   2.065 -0.1537  0.0640  0.1412
 3677TIP3    H132666   5.892   3.607   2.066  0.0940  0.4447  0.7065
 3677TIP3    H232667   5.942   3.465   2.054 -0.8344 -0.0768  2.5978
 3678TIP3   OH232668   0.150   0.903   6.259 -0.1547  0.4041  0.1784
 3678TIP3    H132669   0.109   0.836   6.205 -0.7019  0.3952  0.6005
 3678TIP3    H232670   0.210   0.854   6.316  0.0807  0.3684 -0.0932
 3679TIP3   OH232671   0.763   2.828   1.685  0.7630 -0.2539  0.0691
 3679TIP3    H132672   0.746   2.735   1.673  1.0569 -0.1288 -1.5831
 3679TIP3    H232673   0.786   2.860   1.598  2.3686  1.0327  0.9145
 3680TIP3   OH232674   3.237   1.727   6.873  0.6285 -0.3206  0.0255
 3680TIP3    H132675   3.187   1.660   6.919 -0.7811  0.9953  0.4849
 3680TIP3    H232676   3.176   1.763   6.808  0.5712  1.9972  1.2451
 3681TIP3   OH232677   4.086   2.846   7.180 -0.0575 -0.5364 -0.0247
 3681TIP3    H132678   4.139   2.907   7.232  0.1623  0.2577 -1.1497
 3681TIP3    H232679   3.995   2.868   7.203 -0.0868  1.5431 -1.7491
 3682TIP3   OH232680   1.243   2.325   0.486 -0.2828  0.4440  0.3938
 3682TIP3    H132681   1.150   2.346   0.495 -0.3658 -0.0986  0.8453
 3682TIP3    H232682   1.250   2.236   0.520  0.1606 -0.0371 -0.8762
 3683TIP3   OH232683   2.171   1.752   1.743 -0.1364  0.3586 -0.3198
 3683TIP3    H132684   2.224   1.702   1.806 -0.2784  0.1742 -0.3458
 3683TIP3    H232685   2.231   1.819   1.710  0.3247 -0.3536 -0.9581
 3684TIP3   OH232686   4.901   3.613   1.342 -0.7057  0.1059 -0.2143
 3684TIP3    H132687   4.895   3.591   1.435  0.1965 -1.1429 -0.4188
 3684TIP3    H232688   4.977   3.670   1.335 -0.5008 -0.1641 -0.2296
 3685TIP3   OH232689   0.677   1.645   1.078  0.8793  0.6607  0.1681
 3685TIP3    H132690   0.676   1.707   1.005  2.1335  0.2743 -0.1981
 3685TIP3    H232691   0.718   1.693   1.150  1.3147  0.4529  0.0609
 3686TIP3   OH232692   0.932   2.710   7.032  0.2496  0.3822  0.0053
 3686TIP3    H132693   0.903   2.792   6.991  0.7803  0.2314 -0.6972
 3686TIP3    H232694   0.948   2.733   7.123  0.4444  1.0737 -0.1980
 3687TIP3   OH232695   0.134   4.979   6.558  0.5271  0.6952 -0.0174
 3687TIP3    H132696   0.179   4.968   6.474 -0.7244  0.0399 -0.6123
 3687TIP3    H232697   0.158   4.901   6.608 -0.5595 -0.0427 -0.6273
 3688TIP3   OH232698   2.268   5.806   7.832 -0.4127 -0.7274 -0.2020
 3688TIP3    H132699   2.357   5.779   7.853  0.4088  0.9106 -1.3790
 3688TIP3    H232700   2.218   5.786   7.911  1.2602 -0.4869  0.9697
 3689TIP3   OH232701   0.256   5.828   7.255 -0.1068  0.0949 -0.0522
 3689TIP3    H132702   0.284   5.810   7.165  2.2737  0.0824  0.6254
 3689TIP3    H232703   0.336   5.824   7.307 -1.2494  1.1154  1.9397
 3690TIP3   OH232704   3.122   2.270   6.729 -0.3992 -0.2180  0.1274
 3690TIP3    H132705   3.028   2.277   6.713 -0.2289  0.5117 -0.6317
 3690TIP3    H232706   3.134   2.181   6.763 -1.2776 -0.5563 -0.4086
 3691TIP3   OH232707   5.058   2.832   7.627  0.0085 -0.5379 -0.3867
 3691TIP3    H132708   5.132   2.800   7.679  0.5383  1.4318  0.1572
 3691TIP3    H232709   4.984   2.830   7.687  0.3484  0.5304  0.0982
 3692TIP3   OH232710   6.565   2.150   7.090  0.2311  0.9787 -0.3637
 3692TIP3    H132711   6.644   2.158   7.036  0.6579 -3.8075 -0.8818
 3692TIP3    H232712   6.501   2.107   7.033 -1.3056  0.9387  1.3041
 3693TIP3   OH232713   4.394   4.822   6.766 -0.3119  0.3299 -0.1888
 3693TIP3    H132714   4.429   4.852   6.682  2.7416  0.8062  1.1123
 3693TIP3    H232715   4.406   4.896   6.825  2.7161 -1.5650  1.8767
 3694TIP3   OH232716   4.133   0.282   0.563  0.4131  0.0044  0.0099
 3694TIP3    H132717   4.052   0.264   0.515  1.2905 -1.2650 -1.0526
 3694TIP3    H232718   4.124   0.235   0.645  0.8393 -1.7639 -0.9111
 3695TIP3   OH232719   6.490   6.865   1.385  0.1826  0.2349 -0.3327
 3695TIP3    H132720   6.411   6.813   1.371 -0.3642  0.8136  0.4956
 3695TIP3    H232721   6.562   6.806   1.361 -0.4338 -0.8063  0.2814
 3696TIP3   OH232722   4.216   2.517   6.425 -0.0621 -0.4485 -0.2397
 3696TIP3    H132723   4.254   2.441   6.469  0.0427  0.0460  0.5237
 3696TIP3    H232724   4.137   2.482   6.383 -0.4900 -0.7978  0.8306
 3697TIP3   OH232725   3.278   6.894   6.578  0.4159  0.3693  0.0706
 3697TIP3    H132726   3.233   6.817   6.613  1.4000  0.4350  1.5875
 3697TIP3    H232727   3.355   6.858   6.535  1.5961  0.5310  1.9455
 3698TIP3   OH232728   1.720   0.112   8.125 -0.1274 -0.3794  0.3701
 3698TIP3    H132729   1.726   0.180   8.192 -1.2945  0.5014 -0.3685
 3698TIP3    H232730   1.716   0.030   8.175 -2.8907  0.3439  1.5435
 3699TIP3   OH232731   5.834   2.005   6.195 -0.5667  0.2220 -0.1841
 3699TIP3    H132732   5.824   2.006   6.100  1.1544  3.3808 -0.4727
 3699TIP3    H232733   5.910   1.949   6.211 -1.1890 -0.7597 -0.5706
 3700TIP3   OH232734   6.719   0.886   1.276  0.0848 -0.5390 -0.4478
 3700TIP3    H132735   6.630   0.894   1.312 -0.1098  0.7824 -1.1953
 3700TIP3    H232736   6.722   0.797   1.240 -1.5943  0.0240 -2.1042
 3701TIP3   OH232737   1.319   0.241   1.314  0.4523  0.3342 -0.3471
 3701TIP3    H132738   1.315   0.237   1.410 -0.9544 -2.6723 -0.4156
 3701TIP3    H232739   1.397   0.293   1.296  0.9050  0.7951  2.4301
 3702TIP3   OH232740   1.130   1.971   7.669  0.3483  0.1132  0.0388
 3702TIP3    H132741   1.181   1.946   7.592 -0.5006 -1.6487  0.0234
 3702TIP3    H232742   1.129   1.893   7.725  0.9028  1.3258  1.8475
 3703TIP3   OH232743   6.331   4.164   7.671  0.4106 -0.2657 -0.1107
 3703TIP3    H132744   6.412   4.127   7.706  1.1567  1.1033 -0.3198
 3703TIP3    H232745   6.316   4.242   7.724 -1.0141 -0.7312  0.2019
 3704TIP3   OH232746   2.487   1.223   0.497 -0.4239 -0.0972 -0.1054
 3704TIP3    H132747   2.537   1.173   0.562  0.1853 -0.2193 -0.6620
 3704TIP3    H232748   2.552   1.282   0.457 -0.4715 -1.0212 -1.6037
 3705TIP3   OH232749   6.625   0.088   7.431 -0.5636 -0.1303 -0.3484
 3705TIP3    H132750   6.665   0.001   7.432 -1.6940 -0.6796 -0.6659
 3705TIP3    H232751   6.697   0.148   7.447  0.3068 -1.1015 -0.5254
 3706TIP3   OH232752   5.575   0.934   0.932  0.5476  0.1017  0.7454
 3706TIP3    H132753   5.621   0.855   0.904  1.4802  0.8343  0.1422
 3706TIP3    H232754   5.580   0.932   1.028  0.6719 -0.4920  0.7332
 3707TIP3   OH232755   1.926   0.821   6.769 -0.3983 -0.0004 -0.0394
 3707TIP3    H132756   1.950   0.868   6.850  0.1981  0.9962 -0.7668
 3707TIP3    H232757   1.851   0.869   6.735 -1.0244 -0.7821  0.2179
 3708TIP3   OH232758   6.926   6.081   1.838  0.1183  0.2965 -0.1575
 3708TIP3    H132759   6.975   6.010   1.797 -0.9497 -1.3867  1.3676
 3708TIP3    H232760   6.836   6.050   1.840 -0.3448  1.6192  0.7003
 3709TIP3   OH232761   4.559   6.035   8.004 -0.1917  0.4112 -0.4502
 3709TIP3    H132762   4.522   6.028   8.092 -0.7317  1.2506 -0.5974
 3709TIP3    H232763   4.531   6.121   7.973  1.7680  1.0401 -0.6305
 3710TIP3   OH232764   2.427   5.301   0.981  0.1037 -0.1441  0.2455
 3710TIP3    H132765   2.507   5.347   0.955 -0.6101  0.7008 -0.4869
 3710TIP3    H232766   2.357   5.364   0.968 -0.9510 -1.4974 -1.0470
 3711TIP3   OH232767   4.316   3.682   6.279 -0.2333  0.5270 -0.0017
 3711TIP3    H132768   4.315   3.653   6.188 -2.3666  0.0774  0.0952
 3711TIP3    H232769   4.399   3.650   6.314  0.4069  0.2898 -1.6428
 3712TIP3   OH232770   5.218   5.266   0.238  0.3298 -0.1529 -0.2385
 3712TIP3    H132771   5.300   5.227   0.270  1.1880  0.9187 -1.0288
 3712TIP3    H232772   5.224   5.358   0.266  0.0410  0.2607 -1.4898
 3713TIP3   OH232773   2.556   2.978   0.567 -0.6029 -0.2512  0.0001
 3713TIP3    H132774   2.462   2.962   0.571 -1.2069  2.5672 -0.7064
 3713TIP3    H232775   2.586   2.926   0.493 -1.9665  0.2569 -0.9410
 3714TIP3   OH232776   4.545   0.061   0.463  0.0077 -0.1735 -0.0747
 3714TIP3    H132777   4.611   0.013   0.413 -0.1273 -0.3453 -0.0885
 3714TIP3    H232778   4.595   0.129   0.509  0.1095  0.0913 -0.5736
 3715TIP3   OH232779   3.988   4.782   1.280  0.0023 -0.0948  0.3738
 3715TIP3    H132780   4.056   4.806   1.217 -0.5286  1.9707  0.4872
 3715TIP3    H232781   3.906   4.792   1.232 -0.3342  0.1019  0.9718
 3716TIP3   OH232782   3.003   6.240   7.415 -0.0862 -0.1301  0.6749
 3716TIP3    H132783   2.947   6.168   7.446 -0.3064 -0.0318  0.5112
 3716TIP3    H232784   2.951   6.319   7.432 -1.9083 -0.2170 -3.2766
 3717TIP3   OH232785   6.649   3.177   7.444  0.0447 -0.2694 -0.4684
 3717TIP3    H132786   6.626   3.137   7.528  2.0531 -0.5467  0.0232
 3717TIP3    H232787   6.595   3.255   7.439 -1.1244 -0.9891  0.4239
 3718TIP3   OH232788   3.951   4.844   7.353 -0.0338 -0.7382  0.4646
 3718TIP3    H132789   3.887   4.910   7.380  0.0071  0.3105 -1.7985
 3718TIP3    H232790   3.978   4.802   7.435 -2.0387  0.2167  1.6888
 3719TIP3   OH232791   2.913   4.679   5.787  1.0119 -0.0022  0.4249
 3719TIP3    H132792   2.924   4.744   5.856 -0.5631 -0.0909  0.8128
 3719TIP3    H232793   2.907   4.730   5.706  1.8915  0.1746  0.4677
 3720TIP3   OH232794   4.645   5.333   6.336 -0.3952 -0.9164  0.1799
 3720TIP3    H132795   4.617   5.242   6.332 -0.0173 -1.0081 -0.7157
 3720TIP3    H232796   4.580   5.376   6.392 -1.5403 -1.4044 -0.7289
 3721TIP3   OH232797   3.134   6.298   0.697 -0.1205 -0.5305  0.0031
 3721TIP3    H132798   3.052   6.280   0.742 -0.0031 -0.1116  0.3954
 3721TIP3    H232799   3.159   6.215   0.657 -1.1453 -0.4662 -0.7951
 3722TIP3   OH232800   6.994   0.535   1.593 -0.2085  0.1484  0.8505
 3722TIP3    H132801   7.009   0.467   1.658  1.3933 -0.6725 -0.2912
 3722TIP3    H232802   7.046   0.609   1.623 -0.1836  0.0868  0.9587
 3723TIP3   OH232803   5.888   0.040   1.243 -0.5126 -0.0762  0.0029
 3723TIP3    H132804   5.883   0.067   1.151  2.8199  0.5243 -0.1279
 3723TIP3    H232805   5.803   0.064   1.280 -0.9563  2.2296 -2.2664
 3724TIP3   OH232806   6.625   1.571   0.065 -0.2400 -0.4897 -0.2266
 3724TIP3    H132807   6.630   1.476   0.056  1.3096 -0.2522 -3.5107
 3724TIP3    H232808   6.703   1.595   0.115 -0.9534 -0.9565  1.1333
 3725TIP3   OH232809   3.805   6.423   7.566  0.1272 -0.1479  0.5061
 3725TIP3    H132810   3.877   6.433   7.504 -1.0409  0.6931 -0.7966
 3725TIP3    H232811   3.788   6.329   7.569  0.6629 -0.2653  0.0751
 3726TIP3   OH232812   6.892   4.607   6.663  0.4630 -0.0988  0.4396
 3726TIP3    H132813   6.925   4.689   6.700 -1.2387  0.8023  0.0815
 3726TIP3    H232814   6.929   4.539   6.719 -0.3425  1.0903  2.5406
 3727TIP3   OH232815   4.277   0.619   7.630  0.3277  0.2711  0.4275
 3727TIP3    H132816   4.322   0.564   7.694 -0.3004 -0.2705  0.4115
 3727TIP3    H232817   4.189   0.581   7.623  0.0527  0.9689  0.0347
 3728TIP3   OH232818   3.548   6.251   0.383 -0.5243  0.2757 -0.7687
 3728TIP3    H132819   3.491   6.281   0.312 -1.6401 -1.6782 -0.7655
 3728TIP3    H232820   3.545   6.156   0.378  0.5198  0.0984  1.0171
 3729TIP3   OH232821   2.189   0.745   7.175 -0.1510 -0.2106 -0.0604
 3729TIP3    H132822   2.130   0.816   7.150  0.1659 -0.0765 -0.4383
 3729TIP3    H232823   2.132   0.678   7.213 -0.3378  0.6628  1.2279
 3730TIP3   OH232824   4.391   2.210   7.436 -0.3930 -0.2314 -0.6024
 3730TIP3    H132825   4.350   2.124   7.443 -0.7735 -0.0666 -0.7812
 3730TIP3    H232826   4.425   2.228   7.523 -0.5210 -0.4582 -0.5058
 3731TIP3   OH232827   3.913   2.777   0.563  0.0421 -0.1802 -0.1786
 3731TIP3    H132828   3.881   2.835   0.632  0.1990  1.2369 -1.2546
 3731TIP3    H232829   3.975   2.718   0.608 -0.5136  0.1257  1.0330
 3732TIP3   OH232830   3.028   3.663   6.550 -0.3911  0.0414  0.1750
 3732TIP3    H132831   2.997   3.743   6.593 -2.3744  0.1426 -1.2743
 3732TIP3    H232832   2.991   3.592   6.603  0.1072  0.1016  0.6083
 3733TIP3   OH232833   2.780   6.030   2.204 -1.0881  0.3956  0.4675
 3733TIP3    H132834   2.849   6.070   2.257 -0.1717  1.4815 -1.4072
 3733TIP3    H232835   2.719   6.102   2.186 -0.1840  0.6919 -1.7491
 3734TIP3   OH232836   0.386   4.985   0.421  0.0792  0.2167 -0.2029
 3734TIP3    H132837   0.365   4.902   0.377 -2.4552  0.9197 -0.4695
 3734TIP3    H232838   0.349   4.975   0.509  3.1424 -0.3177  1.1636
 3735TIP3   OH232839   0.551   4.081   6.330  0.6746 -0.0044  0.3624
 3735TIP3    H132840   0.488   4.085   6.403 -1.9909  0.9672 -1.7906
 3735TIP3    H232841   0.558   4.172   6.300  1.9526 -0.3366 -0.4182
 3736TIP3   OH232842   5.498   5.322   5.954  0.3451 -0.6220  0.1535
 3736TIP3    H132843   5.514   5.358   5.867 -2.3675 -1.7439 -0.9244
 3736TIP3    H232844   5.491   5.228   5.940 -1.2271 -0.7298  1.3416
 3737TIP3   OH232845   3.262   4.089   6.180  0.1228 -0.2533 -0.1468
 3737TIP3    H132846   3.266   4.103   6.086 -0.9389  1.2755 -0.0066
 3737TIP3    H232847   3.189   4.143   6.209  1.9609  1.3182  1.8739
 3738TIP3   OH232848   1.466   6.986   7.597  0.1644  0.3361  0.1801
 3738TIP3    H132849   1.402   7.049   7.562  1.3463  2.6509  1.8860
 3738TIP3    H232850   1.412   6.918   7.638 -1.1816 -0.5776 -2.8278
 3739TIP3   OH232851   6.493   0.767   7.566 -0.4806 -0.0010  0.1604
 3739TIP3    H132852   6.471   0.795   7.477 -2.7705 -2.2665 -0.0821
 3739TIP3    H232853   6.569   0.709   7.554 -0.4078  0.1723 -0.2467
 3740TIP3   OH232854   0.479   0.229   1.320  0.3051  0.5183 -0.3373
 3740TIP3    H132855   0.399   0.268   1.356  0.4274 -0.9442  1.7147
 3740TIP3    H232856   0.541   0.302   1.316 -0.4145  1.1957  0.3740
 3741TIP3   OH232857   6.577   5.533   7.973 -0.0556  0.0539 -0.2762
 3741TIP3    H132858   6.659   5.581   7.967 -0.6990  1.0589 -1.7727
 3741TIP3    H232859   6.591   5.469   8.043  1.9835  0.1839 -0.5095
 3742TIP3   OH232860   3.941   3.586   1.255  0.6528 -0.1512  0.1689
 3742TIP3    H132861   3.994   3.520   1.301  0.7755 -1.4758 -1.7524
 3742TIP3    H232862   3.875   3.534   1.209 -0.3550  1.2454  0.0042
 3743TIP3   OH232863   0.922   4.288   7.072 -0.0351 -0.2533 -0.0005
 3743TIP3    H132864   0.884   4.203   7.097 -1.6098  0.6843  0.9307
 3743TIP3    H232865   0.860   4.324   7.009 -0.2568  0.9179  0.8542
 3744TIP3   OH232866   4.890   1.099   1.185  0.4740  0.9060  0.2441
 3744TIP3    H132867   4.978   1.130   1.205  0.3001  1.3869  0.2795
 3744TIP3    H232868   4.886   1.097   1.090  0.3921  1.2645  0.2406
 3745TIP3   OH232869   0.232   3.272   0.630 -0.2382  0.2011  0.1162
 3745TIP3    H132870   0.245   3.190   0.678  0.7633  0.8840  1.0664
 3745TIP3    H232871   0.157   3.313   0.672 -0.4243  0.0024 -0.0232
 3746TIP3   OH232872   5.351   2.681   7.508  0.4251  0.0001 -0.0056
 3746TIP3    H132873   5.415   2.748   7.531  0.4795  0.4760 -1.4936
 3746TIP3    H232874   5.307   2.661   7.591  1.9444  0.2220  0.8911
 3747TIP3   OH232875   7.047   2.045   0.056  0.0940  0.0459  0.4568
 3747TIP3    H132876   7.035   2.108  -0.015 -1.5567 -0.7482 -0.0191
 3747TIP3    H232877   6.961   2.039   0.097  0.2693 -1.7044  0.6382
 3748TIP3   OH232878   0.899   2.695   1.889  0.2152  0.5081 -0.2118
 3748TIP3    H132879   0.981   2.724   1.849  1.1715 -0.2136  1.1620
 3748TIP3    H232880   0.887   2.606   1.857 -0.0689  0.6347 -0.4601
 3749TIP3   OH232881   0.971   0.247   7.213 -0.2107 -0.3114  0.5522
 3749TIP3    H132882   0.955   0.233   7.120  0.7959 -2.0618  0.5963
 3749TIP3    H232883   1.046   0.307   7.216  0.0363 -0.6029  0.2312
 3750TIP3   OH232884   4.034   0.442   7.124 -0.1166  0.0265  0.0942
 3750TIP3    H132885   3.939   0.430   7.126 -0.3458  1.3310 -1.4117
 3750TIP3    H232886   4.046   0.532   7.095  1.5927  0.1897  1.2041
 3751TIP3   OH232887   1.779   2.622   1.862  0.4189  0.1895  0.0239
 3751TIP3    H132888   1.800   2.644   1.771  1.3171 -0.1074  0.1479
 3751TIP3    H232889   1.863   2.628   1.908 -0.0746  0.6223  0.8996
 3752TIP3   OH232890   2.063   2.777   6.872 -0.5955  0.4370 -0.3663
 3752TIP3    H132891   2.031   2.744   6.956 -0.6720 -0.1851 -0.6387
 3752TIP3    H232892   2.010   2.856   6.856 -0.3857  0.7199  0.2990
 3753TIP3   OH232893   4.575   0.401   0.924 -0.7747 -0.1686  0.4001
 3753TIP3    H132894   4.640   0.348   0.878 -0.3998  1.0998 -0.5751
 3753TIP3    H232895   4.491   0.363   0.898 -0.4833 -1.0153  0.6561
 3754TIP3   OH232896   6.183   2.270   1.314 -0.0764  0.1131  0.7171
 3754TIP3    H132897   6.213   2.204   1.377  1.2044  1.3712  1.4850
 3754TIP3    H232898   6.209   2.354   1.353 -0.8836  1.0338 -0.6374
 3755TIP3   OH232899   6.437   4.857   1.378 -0.1997  0.5610  0.0442
 3755TIP3    H132900   6.345   4.863   1.352  0.1973  1.7569 -1.1538
 3755TIP3    H232901   6.485   4.905   1.311  1.5720 -1.9941 -0.6927
 3756TIP3   OH232902   5.272   2.742   7.773 -0.1220  0.4055  0.2424
 3756TIP3    H132903   5.365   2.763   7.761 -0.3955  4.2017  2.9396
 3756TIP3    H232904   5.257   2.754   7.867 -3.0038 -2.0817  0.2327
 3757TIP3   OH232905   5.591   6.808   1.906 -0.2060 -0.5635 -0.0881
 3757TIP3    H132906   5.608   6.820   2.000  0.5052  0.3094 -0.3212
 3757TIP3    H232907   5.539   6.884   1.881  1.3190  0.2680 -0.8201
 3758TIP3   OH232908   2.383   3.711   7.602 -0.3931 -0.1263  0.2742
 3758TIP3    H132909   2.339   3.654   7.539 -0.5212 -1.0730  1.1982
 3758TIP3    H232910   2.342   3.797   7.590 -0.0345 -0.1376 -1.3007
 3759TIP3   OH232911   6.443   4.045   6.759  0.0929 -0.2311  0.2275
 3759TIP3    H132912   6.507   4.084   6.700  0.3169  1.0588  1.2729
 3759TIP3    H232913   6.361   4.047   6.710  0.2545  0.9175 -0.0268
 3760TIP3   OH232914   3.888   3.792   0.497  0.2819  0.0640  0.3053
 3760TIP3    H132915   3.912   3.868   0.444  1.5152  0.9528  1.9986
 3760TIP3    H232916   3.866   3.724   0.434  0.4025  1.4284 -1.2931
 3761TIP3   OH232917   1.503   3.009   8.008 -0.0737  0.2670  0.1118
 3761TIP3    H132918   1.440   3.002   8.080 -0.2988  0.5397 -0.0576
 3761TIP3    H232919   1.470   3.081   7.954  0.2889  0.2963 -0.0724
 3762TIP3   OH232920   6.696   1.303   7.301 -0.3114 -0.7201  0.9436
 3762TIP3    H132921   6.643   1.380   7.323 -1.5916 -1.7419  1.5612
 3762TIP3    H232922   6.632   1.235   7.282  0.7498 -1.1118 -1.6895
 3763TIP3   OH232923   6.400   5.228   1.790 -0.2172  0.3304 -0.1321
 3763TIP3    H132924   6.393   5.156   1.854  0.1029  2.0236  1.9172
 3763TIP3    H232925   6.313   5.234   1.751 -0.4134 -0.7615  0.1058
 3764TIP3   OH232926   3.685   3.819   5.918  0.6627 -0.2359 -0.2777
 3764TIP3    H132927   3.671   3.914   5.914  0.7929 -0.2528 -1.9738
 3764TIP3    H232928   3.761   3.804   5.862 -0.1055 -1.4566 -1.0281
 3765TIP3   OH232929   6.303   2.067   2.090 -0.2622 -0.6205  0.9063
 3765TIP3    H132930   6.334   1.995   2.145  0.7914 -0.8787  0.0108
 3765TIP3    H232931   6.345   2.052   2.006  2.0870  2.4112  1.3681
 3766TIP3   OH232932   6.140   1.898   7.985 -0.1458  0.4500 -0.1871
 3766TIP3    H132933   6.182   1.935   8.062  0.2433 -0.8289  0.2360
 3766TIP3    H232934   6.156   1.804   7.992 -2.5910 -0.0250 -0.3235
 3767TIP3   OH232935   0.693   6.064   7.907 -0.6051 -0.3966  0.4276
 3767TIP3    H132936   0.679   6.051   8.001  0.1994  2.7247  1.1122
 3767TIP3    H232937   0.607   6.089   7.873 -0.6574 -0.3937  0.5622
 3768TIP3   OH232938   4.512   4.277   0.081  0.0611  0.1195  0.1601
 3768TIP3    H132939   4.521   4.182   0.076  1.9444  0.2865 -0.5227
 3768TIP3    H232940   4.436   4.297   0.027  0.8537 -0.8748 -1.4049
 3769TIP3   OH232941   6.398   0.301   0.519  0.1510 -0.1652 -0.0594
 3769TIP3    H132942   6.461   0.327   0.452 -0.1986 -0.6211 -0.5702
 3769TIP3    H232943   6.337   0.375   0.525  0.5039  0.1100  0.1561
 3770TIP3   OH232944   2.899   6.666   0.750  0.0269 -0.3573  0.0196
 3770TIP3    H132945   2.907   6.702   0.838 -1.0300  2.9521 -1.0888
 3770TIP3    H232946   2.989   6.648   0.723  0.5863  0.9560  0.8973
 3771TIP3   OH232947   6.822   4.875   1.268 -0.0616  0.2944 -0.5435
 3771TIP3    H132948   6.790   4.937   1.334  1.6585 -0.5939  1.2302
 3771TIP3    H232949   6.763   4.800   1.276 -0.0125  0.2912 -0.1926
 3772TIP3   OH232950   0.297   4.638   1.029 -0.0749 -0.0999 -0.6427
 3772TIP3    H132951   0.361   4.567   1.020  1.3609  0.6796  2.2099
 3772TIP3    H232952   0.347   4.717   1.009 -0.2293  0.4807  1.1083
 3773TIP3   OH232953   0.643   2.329   1.586 -0.1644  0.1854 -0.4379
 3773TIP3    H132954   0.549   2.345   1.579 -0.2465 -0.0038  0.1388
 3773TIP3    H232955   0.667   2.291   1.502 -0.3609  1.3721 -1.0425
 3774TIP3   OH232956   6.347   6.468   0.118  0.2165 -0.0213  0.4753
 3774TIP3    H132957   6.299   6.386   0.119 -1.1972  0.7695  1.3961
 3774TIP3    H232958   6.400   6.466   0.198  2.4701 -1.2562 -0.9499
 3775TIP3   OH232959   0.610   1.880   5.975 -0.2317  0.0406 -0.2248
 3775TIP3    H132960   0.557   1.946   5.932 -1.4528 -0.7859 -0.0521
 3775TIP3    H232961   0.607   1.804   5.916  1.7674  0.3402 -0.7933
 3776TIP3   OH232962   4.812   0.874   8.111  0.1034 -0.0869  0.0510
 3776TIP3    H132963   4.874   0.900   8.042 -0.8125 -0.0028 -0.7508
 3776TIP3    H232964   4.858   0.895   8.193 -0.3224  3.6705 -0.4734
 3777TIP3   OH232965   5.296   0.357   0.788  0.7626 -0.3271  0.1063
 3777TIP3    H132966   5.373   0.307   0.763  1.0449 -0.5039  1.2837
 3777TIP3    H232967   5.250   0.374   0.705  1.3672 -1.3500 -0.4514
 3778TIP3   OH232968   6.714   6.732   6.031 -0.0873 -0.3014  0.0954
 3778TIP3    H132969   6.706   6.663   5.965 -0.2907 -0.4911  0.3201
 3778TIP3    H232970   6.796   6.776   6.008  0.3102 -0.9437  0.2623
 3779TIP3   OH232971   0.187   2.758   0.734 -0.2046  0.0445  0.1616
 3779TIP3    H132972   0.127   2.798   0.672  0.6865 -0.8550 -1.3411
 3779TIP3    H232973   0.138   2.685   0.772 -0.0988 -0.7042 -1.0805
 3780TIP3   OH232974   3.377   0.442   6.657 -0.1551  0.2789 -0.2849
 3780TIP3    H132975   3.335   0.372   6.707  3.4103 -0.9045  1.3449
 3780TIP3    H232976   3.410   0.502   6.724  2.0006  0.3130 -1.3085
 3781TIP3   OH232977   6.678   1.017   7.149  0.1884 -0.3362  0.0940
 3781TIP3    H132978   6.709   0.950   7.088  2.6607  3.2431 -3.0275
 3781TIP3    H232979   6.646   1.088   7.093  0.8597  2.4751  2.9611
 3782TIP3   OH232980   2.542   5.180   6.860  0.1110  0.1501 -0.3468
 3782TIP3    H132981   2.590   5.197   6.779  1.7109 -1.9836  0.0909
 3782TIP3    H232982   2.608   5.182   6.929 -0.6224 -1.5064  0.4469
 3783TIP3   OH232983   4.977   3.596   1.622 -0.1923  0.6068  0.0032
 3783TIP3    H132984   5.069   3.621   1.615  0.6117 -2.0651  0.0845
 3783TIP3    H232985   4.976   3.524   1.685 -1.9972 -0.8645 -1.5863
 3784TIP3   OH232986   1.750   3.161   7.837 -0.5540 -0.0805  0.2489
 3784TIP3    H132987   1.769   3.070   7.860 -1.1344  0.0647  1.3898
 3784TIP3    H232988   1.812   3.212   7.889 -0.3956  0.1831 -0.1972
 3785TIP3   OH232989   0.654   2.328   1.039 -0.3289 -0.6934  0.1209
 3785TIP3    H132990   0.686   2.327   1.129  0.1251  1.5914  0.0369
 3785TIP3    H232991   0.558   2.329   1.048 -0.2948  1.3101  0.6871
 3786TIP3   OH232992   6.583   6.317   6.145 -0.3980  0.1424  0.6835
 3786TIP3    H132993   6.663   6.305   6.094 -1.1545  1.1011 -0.8017
 3786TIP3    H232994   6.611   6.369   6.220  0.3713  0.5960  0.1055
 3787TIP3   OH232995   6.926   3.200   6.639  0.6894  0.4046 -0.0998
 3787TIP3    H132996   6.950   3.156   6.557  0.7279  1.0982 -0.4666
 3787TIP3    H232997   6.948   3.136   6.707 -0.6290 -0.7461 -0.6916
 3788TIP3   OH232998   2.925   6.229   0.843  0.8299  0.9835  0.2645
 3788TIP3    H132999   2.921   6.160   0.909  0.8932  0.8854  0.1664
 3788TIP3    H233000   2.838   6.230   0.804  1.3752 -0.3443 -1.0533
 3789TIP3   OH233001   2.850   0.867   1.539 -0.8119  0.4511 -0.2486
 3789TIP3    H133002   2.865   0.924   1.614 -0.3999 -0.2408  0.2134
 3789TIP3    H233003   2.833   0.781   1.578  1.2526 -0.3371 -0.9405
 3790TIP3   OH233004   4.618   6.340   0.215 -0.2302 -0.0506 -0.4405
 3790TIP3    H133005   4.582   6.399   0.149 -1.0146 -0.8817 -0.7719
 3790TIP3    H233006   4.556   6.267   0.219 -0.8466  0.4969  2.0197
 3791TIP3   OH233007   5.479   1.651   7.468 -0.0426 -0.4192 -0.0414
 3791TIP3    H133008   5.437   1.644   7.383 -0.8651  0.7198  0.2542
 3791TIP3    H233009   5.430   1.718   7.514  1.5042  0.2698  0.6718
 3792TIP3   OH233010   0.298   5.797   6.302 -0.1902 -0.5437 -0.3473
 3792TIP3    H133011   0.278   5.891   6.293  0.3321 -0.4345 -0.4063
 3792TIP3    H233012   0.238   5.754   6.241  0.4735 -0.1362 -1.3220
 3793TIP3   OH233013   3.712   6.836   7.161 -0.2354  0.5477 -0.1655
 3793TIP3    H133014   3.670   6.899   7.102 -0.9521  1.9686  1.7415
 3793TIP3    H233015   3.717   6.882   7.245  3.3025 -0.3051  0.2540
 3794TIP3   OH233016   5.357   5.793   6.711 -0.4263 -0.3647  0.7866
 3794TIP3    H133017   5.402   5.877   6.720 -1.3298  0.2799 -0.4865
 3794TIP3    H233018   5.428   5.729   6.701  0.2707  0.6155 -1.1233
 3795TIP3   OH233019   2.718   0.255   0.528 -0.2573  0.2907 -0.3365
 3795TIP3    H133020   2.766   0.324   0.574  0.0154 -0.3403  0.3503
 3795TIP3    H233021   2.641   0.239   0.581  0.7840 -1.4670  0.7723
 3796TIP3   OH233022   0.635   4.718   6.581  0.0370 -0.0332 -0.0903
 3796TIP3    H133023   0.617   4.627   6.603 -1.0600  0.1935 -0.0102
 3796TIP3    H233024   0.716   4.739   6.628 -0.2788 -0.6460  0.7398
 3797TIP3   OH233025   2.903   3.187   1.452  0.2231  0.0560 -0.3434
 3797TIP3    H133026   2.960   3.112   1.470  1.0545  0.8017  0.1619
 3797TIP3    H233027   2.909   3.199   1.357 -0.5672 -1.0150 -0.5547
 3798TIP3   OH233028   3.643   1.975   0.352  0.1021  0.3396  0.8517
 3798TIP3    H133029   3.629   1.927   0.270 -3.3812  0.0579  1.4398
 3798TIP3    H233030   3.686   1.912   0.410  0.0097 -0.4400  0.0833
 3799TIP3   OH233031   5.155   0.047   7.030  0.3677 -0.5394  0.1574
 3799TIP3    H133032   5.130   0.135   7.057  1.2882  0.3881 -1.8073
 3799TIP3    H233033   5.078  -0.007   7.048 -1.5802  1.3828 -1.8031
 3800TIP3   OH233034   5.837   7.105   1.838  0.2703 -0.1957 -0.3390
 3800TIP3    H133035   5.855   7.024   1.886 -0.6219 -0.4837 -0.4838
 3800TIP3    H233036   5.742   7.114   1.839  0.4121  1.6735  0.9921
 3801TIP3   OH233037   4.387   5.983   1.876  0.1622  0.1091  0.5462
 3801TIP3    H133038   4.466   6.010   1.923 -0.0570  0.1868  0.8766
 3801TIP3    H233039   4.347   5.917   1.933  0.7212 -0.9641 -0.2755
 3802TIP3   OH233040   5.529   3.663   1.479  0.5989  0.4987  0.2920
 3802TIP3    H133041   5.592   3.735   1.472 -0.2810  1.3503  0.9361
 3802TIP3    H233042   5.543   3.627   1.566 -0.0426  0.9135  0.5677
 3803TIP3   OH233043   4.164   5.546   1.987  0.3007 -0.5516  0.3513
 3803TIP3    H133044   4.150   5.512   1.899  2.0006  0.6851 -0.4527
 3803TIP3    H233045   4.082   5.592   2.008  1.2996  3.0735 -2.5537
 3804TIP3   OH233046   3.905   5.248   7.727 -0.2915  0.0010 -0.1167
 3804TIP3    H133047   3.824   5.197   7.722  0.4443 -1.6105  2.5792
 3804TIP3    H233048   3.899   5.293   7.812  0.2000  2.5795 -1.3373
 3805TIP3   OH233049   0.857   3.595   0.586  0.0334 -0.2453 -0.0204
 3805TIP3    H133050   0.851   3.550   0.671  0.9015 -2.8974 -1.2457
 3805TIP3    H233051   0.946   3.577   0.556 -0.9411 -1.3966 -2.4906
 3806TIP3   OH233052   1.778   6.142   1.542 -0.7692 -0.3529  0.4672
 3806TIP3    H133053   1.782   6.127   1.636 -0.3001  2.6943  1.0234
 3806TIP3    H233054   1.716   6.214   1.532 -1.3444 -1.0645 -1.6702
 3807TIP3   OH233055   3.629   4.496   1.141 -0.2189  0.4509 -0.4954
 3807TIP3    H133056   3.665   4.568   1.193 -0.4677  0.9817 -1.0422
 3807TIP3    H233057   3.542   4.481   1.177  0.1481 -0.1381  0.1571
 3808TIP3   OH233058   4.114   6.137   8.051  0.2545  0.2836 -0.8838
 3808TIP3    H133059   4.051   6.199   8.089  0.6531 -0.0122  0.3167
 3808TIP3    H233060   4.072   6.052   8.060  0.6502  0.1307 -0.4364
 3809TIP3   OH233061   0.798   5.366   7.048  0.0857  0.2490 -0.0319
 3809TIP3    H133062   0.717   5.332   7.010 -0.9983  0.8525  1.6242
 3809TIP3    H233063   0.824   5.437   6.990 -0.1133 -0.4513 -1.0109
 3810TIP3   OH233064   2.641   4.958   7.261 -0.5844 -0.1543  0.3618
 3810TIP3    H133065   2.620   4.891   7.196  1.3557  0.6555 -1.2143
 3810TIP3    H233066   2.691   5.023   7.213 -1.0446  1.6795  2.1943
 3811TIP3   OH233067   6.114   4.174   1.173 -0.0767 -0.1765 -0.8160
 3811TIP3    H133068   6.082   4.115   1.241  0.3731 -0.4764 -0.8560
 3811TIP3    H233069   6.088   4.132   1.091  3.5403 -2.4447 -1.0419
 3812TIP3   OH233070   2.329   3.053   1.755 -0.0463  0.1589 -0.2254
 3812TIP3    H133071   2.415   3.074   1.790  0.0756 -2.1389  1.0768
 3812TIP3    H233072   2.270   3.063   1.829 -0.3188 -1.5745 -0.1691
 3813TIP3   OH233073   2.023   0.528   6.420  0.2658 -0.5038  0.2034
 3813TIP3    H133074   1.939   0.572   6.430  1.4369  1.9090  0.1840
 3813TIP3    H233075   2.083   0.576   6.476  2.2033 -0.4135 -1.7722
 3814TIP3   OH233076   4.892   3.586   2.008  0.7535 -0.2709 -0.5440
 3814TIP3    H133077   4.803   3.601   1.976 -0.1748 -0.3792  1.7747
 3814TIP3    H233078   4.934   3.671   2.002 -0.0559  0.1689 -0.1695
 3815TIP3   OH233079   6.169   4.812   0.195  0.3397  0.1541 -0.7409
 3815TIP3    H133080   6.143   4.873   0.264  0.0386  1.1561 -1.7246
 3815TIP3    H233081   6.239   4.857   0.148 -0.1516 -0.0762 -1.7169
 3816TIP3   OH233082   1.969   4.058   7.666  0.2073  0.5854  0.1852
 3816TIP3    H133083   1.925   4.055   7.751 -2.2642 -1.4456 -1.0066
 3816TIP3    H233084   1.943   3.976   7.623  1.8538  1.2525 -2.2951
 3817TIP3   OH233085   3.275   0.718   0.153  0.0675 -0.0789  0.0190
 3817TIP3    H133086   3.219   0.642   0.139  1.1940 -1.1207  0.9729
 3817TIP3    H233087   3.274   0.730   0.248  1.4676 -0.1383  0.0543
 3818TIP3   OH233088   0.372   5.593   0.601 -1.1579 -0.5206  0.3267
 3818TIP3    H133089   0.378   5.589   0.696 -1.0002 -0.8772  0.3037
 3818TIP3    H233090   0.431   5.664   0.576 -1.0057 -0.5940  0.4777
 3819TIP3   OH233091   4.892   1.348   6.644 -0.2328 -0.3576 -0.7297
 3819TIP3    H133092   4.825   1.337   6.576 -0.5643  0.3886 -0.5282
 3819TIP3    H233093   4.842   1.356   6.726  0.1542 -1.0076 -0.4175
 3820TIP3   OH233094   2.341   5.351   7.194  0.2769 -0.0743 -0.1186
 3820TIP3    H133095   2.338   5.286   7.264  1.5473  0.0365  0.0681
 3820TIP3    H233096   2.400   5.419   7.227 -1.8600  1.7698  0.1717
 3821TIP3   OH233097   5.892   0.987   1.025  0.4814  0.0446  0.5495
 3821TIP3    H133098   5.829   1.047   1.063  0.9373  0.5358  0.5340
 3821TIP3    H233099   5.884   0.999   0.930  0.2208 -0.2851  0.5263
 3822TIP3   OH233100   0.205   6.244   8.121 -0.3242 -0.1315 -0.3773
 3822TIP3    H133101   0.177   6.223   8.032 -1.2368  2.0783 -0.6828
 3822TIP3    H233102   0.286   6.195   8.133 -0.6292 -1.1377 -2.1010
 3823TIP3   OH233103   0.724   0.854   1.808  0.1452  0.1044 -0.1174
 3823TIP3    H133104   0.818   0.839   1.795 -0.1173 -0.5185 -1.5069
 3823TIP3    H233105   0.682   0.782   1.762 -1.0606  1.6730 -1.6008
 3824TIP3   OH233106   0.254   0.042   0.813  0.1566  0.4991  0.4901
 3824TIP3    H133107   0.183   0.054   0.876  1.2136  0.8955  1.6426
 3824TIP3    H233108   0.294   0.128   0.805  0.0515  0.4453 -0.7255
 3825TIP3   OH233109   7.094   0.589   7.965  0.0961  0.2738 -0.6541
 3825TIP3    H133110   7.047   0.560   7.887  0.1091 -0.9131 -0.2360
 3825TIP3    H233111   7.186   0.589   7.938 -0.0027  1.1337 -1.0193
 3826TIP3   OH233112   0.916   3.482   0.830  0.0727 -0.0750  0.3296
 3826TIP3    H133113   1.001   3.526   0.820 -1.6697  3.4075 -1.0576
 3826TIP3    H233114   0.921   3.439   0.915  3.6504 -1.2635 -0.2919
 3827TIP3   OH233115   4.197   2.775   6.917 -0.3230  0.0673  0.3825
 3827TIP3    H133116   4.248   2.696   6.931  0.1444  0.3941  0.5285
 3827TIP3    H233117   4.174   2.806   7.004  0.2070  0.5487  0.3602
 3828TIP3   OH233118   5.595   5.080   6.932 -0.4393 -0.2375 -0.3761
 3828TIP3    H133119   5.655   5.007   6.948  0.4259  0.4962 -0.2230
 3828TIP3    H233120   5.519   5.039   6.889  0.0418 -1.2159 -0.3325
 3829TIP3   OH233121   5.740   4.080   6.682 -0.9228 -0.0025  0.2487
 3829TIP3    H133122   5.797   4.019   6.636  0.6571  0.9002  0.9090
 3829TIP3    H233123   5.790   4.106   6.760 -1.6318  1.9227  0.1314
 3830TIP3   OH233124   6.786   0.714   0.733  0.3026 -0.2195  0.3722
 3830TIP3    H133125   6.769   0.670   0.650  0.7663  1.5013 -0.6767
 3830TIP3    H233126   6.702   0.755   0.756  0.7264  1.1938 -0.4562
 3831TIP3   OH233127   1.001   4.318   1.066 -0.3425 -0.5448  0.3234
 3831TIP3    H133128   1.046   4.268   1.135  0.2945  0.4228  0.6203
 3831TIP3    H233129   0.919   4.271   1.053 -0.2291 -1.0598  1.3593
 3832TIP3   OH233130   0.718   6.387   2.111 -0.3013 -0.6191  0.0203
 3832TIP3    H133131   0.659   6.462   2.119  0.2944 -0.0537 -0.6941
 3832TIP3    H233132   0.664   6.311   2.133 -1.0587 -0.0279  0.2279
 3833TIP3   OH233133   6.772   6.319   0.491 -1.3460 -0.1372  0.3135
 3833TIP3    H133134   6.812   6.364   0.565  0.0174 -3.2722  1.6622
 3833TIP3    H233135   6.744   6.235   0.527 -2.5419 -0.9497 -2.2961
 3834TIP3   OH233136   1.905   5.629   0.930  0.1454  0.0393 -0.1503
 3834TIP3    H133137   1.959   5.587   0.997  0.3097  1.2065  0.4869
 3834TIP3    H233138   1.833   5.567   0.914  1.5135 -1.4343 -0.8477
 3835TIP3   OH233139   5.065   6.211   6.361 -0.7071  0.0699  0.4383
 3835TIP3    H133140   5.116   6.138   6.396 -1.7912 -0.7507  0.3438
 3835TIP3    H233141   5.044   6.184   6.272  0.1460  1.1704 -0.1195
 3836TIP3   OH233142   3.369   3.918   0.811 -0.0072 -0.4300  0.5220
 3836TIP3    H133143   3.412   3.983   0.868 -1.3881  1.5005 -0.5120
 3836TIP3    H233144   3.279   3.914   0.844 -0.2685 -0.8573 -0.2257
 3837TIP3   OH233145   5.886   0.546   1.546  0.1147 -0.3051  0.2285
 3837TIP3    H133146   5.921   0.567   1.633 -1.1384  0.9892  0.4699
 3837TIP3    H233147   5.791   0.546   1.559 -0.2003  1.9422 -1.5295
 3838TIP3   OH233148   2.543   3.991   7.065 -0.2685  0.1195  0.3694
 3838TIP3    H133149   2.589   4.063   7.107  0.7441  0.3480 -1.0653
 3838TIP3    H233150   2.595   3.914   7.085  0.5074  0.3034 -0.8276
 3839TIP3   OH233151   5.605   1.218   0.339  0.6684  0.1636 -0.0805
 3839TIP3    H133152   5.665   1.160   0.293  0.3135 -1.3404  1.2750
 3839TIP3    H233153   5.654   1.248   0.415  0.4494  0.7391 -0.1596
 3840TIP3   OH233154   6.341   3.683   7.844 -0.0513  1.1606 -0.0608
 3840TIP3    H133155   6.259   3.732   7.839 -0.7452  0.0409  0.0019
 3840TIP3    H233156   6.355   3.668   7.937 -0.6155  0.0134 -0.1429
 3841TIP3   OH233157   5.673   0.486   6.823 -0.3122  0.2065 -0.1906
 3841TIP3    H133158   5.691   0.546   6.750 -0.1440  0.2881 -0.0830
 3841TIP3    H233159   5.729   0.518   6.894  0.7361 -0.8241 -0.5128
 3842TIP3   OH233160   3.853   0.867   0.073  0.5466 -0.3247 -0.5744
 3842TIP3    H133161   3.798   0.905   0.141  2.5031  1.1039  0.2843
 3842TIP3    H233162   3.831   0.916  -0.006  1.3868  1.0506  0.0181
 3843TIP3   OH233163   1.640   5.481   7.021 -0.9981 -0.3564 -0.3041
 3843TIP3    H133164   1.732   5.460   7.006 -0.4966  0.7022  1.1718
 3843TIP3    H233165   1.626   5.562   6.971 -0.9179 -0.0936  0.0982
 3844TIP3   OH233166   0.968   4.427   6.785 -0.3361 -0.0646  0.4232
 3844TIP3    H133167   1.061   4.414   6.770  0.0682  2.9326 -0.2868
 3844TIP3    H233168   0.964   4.475   6.868 -1.1078  0.9732 -0.1867
 3845TIP3   OH233169   6.550   5.918   7.417  0.7674 -0.0319 -0.6068
 3845TIP3    H133170   6.486   5.984   7.391  1.4501  0.3627 -1.3494
 3845TIP3    H233171   6.530   5.842   7.362  1.3712  0.3422 -1.3682
 3846TIP3   OH233172   3.666   2.846   6.598 -0.3136 -0.0041  0.2414
 3846TIP3    H133173   3.712   2.830   6.680  0.3808  1.6171  0.2022
 3846TIP3    H233174   3.577   2.815   6.614 -0.2302  0.4213  1.6618
 3847TIP3   OH233175   7.073   5.176   0.481  0.0181  0.0386  0.0539
 3847TIP3    H133176   7.111   5.264   0.480 -0.7773  0.4269 -2.2092
 3847TIP3    H233177   7.005   5.181   0.548  0.9078  0.7102  0.9385
 3848TIP3   OH233178   6.103   0.843   1.427 -0.5840  0.0408 -0.5472
 3848TIP3    H133179   6.187   0.810   1.397 -0.4877 -1.3201  1.0889
 3848TIP3    H233180   6.108   0.938   1.413  1.2276 -0.0086 -0.4219
 3849TIP3   OH233181   2.800   2.712   7.295  0.3701  0.0856 -0.1095
 3849TIP3    H133182   2.837   2.710   7.384  0.6896 -1.7739 -0.2407
 3849TIP3    H233183   2.809   2.803   7.267  0.2738  0.7054  1.7560
 3850TIP3   OH233184   1.377   2.601   1.609 -0.0062 -0.4413 -0.1551
 3850TIP3    H133185   1.411   2.636   1.691  1.8514  0.0823 -1.1056
 3850TIP3    H233186   1.428   2.644   1.540 -0.3810 -2.0500 -1.5261
 3851TIP3   OH233187   5.975   6.806   5.731 -1.0830 -0.3230  0.5400
 3851TIP3    H133188   5.909   6.785   5.664 -0.9564  0.2516  0.2297
 3851TIP3    H233189   6.014   6.888   5.701  0.6268 -1.2636  0.0851
 3852TIP3   OH233190   1.355   1.222   2.022  0.8353  0.0779  0.4334
 3852TIP3    H133191   1.441   1.199   2.057  0.7351 -0.4101  0.3560
 3852TIP3    H233192   1.371   1.242   1.930  1.0227  0.9306  0.6324
 3853TIP3   OH233193   4.844   0.537   0.035 -0.2080  0.3847  0.8837
 3853TIP3    H133194   4.785   0.502  -0.031 -1.3287  1.2663  1.3840
 3853TIP3    H233195   4.931   0.526  -0.003 -0.7995  0.5758 -0.5998
 3854TIP3   OH233196   1.086   0.612   7.586 -0.3479 -0.0001  0.5315
 3854TIP3    H133197   1.056   0.603   7.676 -1.9133  1.6963  0.2378
 3854TIP3    H233198   1.029   0.554   7.536 -0.9645  0.7506  0.3642
 3855TIP3   OH233199   2.911   4.468   1.726 -0.3461  0.1491 -0.5262
 3855TIP3    H133200   2.950   4.479   1.639 -1.2498 -0.3714 -1.0106
 3855TIP3    H233201   2.954   4.390   1.761 -0.9337 -0.4419 -1.0717
 3856TIP3   OH233202   0.608   6.241   7.573 -0.7018  0.0340  0.7390
 3856TIP3    H133203   0.529   6.285   7.542 -0.6467 -0.1404  0.3368
 3856TIP3    H233204   0.579   6.190   7.648 -1.3457 -1.3725 -0.4153
 3857TIP3   OH233205   0.735   4.301   1.668  0.2819  0.0720  0.5345
 3857TIP3    H133206   0.828   4.292   1.691  0.9663  1.8391 -1.2416
 3857TIP3    H233207   0.733   4.284   1.574 -0.9634  1.4373  0.2842
 3858TIP3   OH233208   3.418   4.255   6.667 -0.5561 -0.2479 -0.1984
 3858TIP3    H133209   3.482   4.190   6.696 -0.0340  0.6544  0.7296
 3858TIP3    H233210   3.454   4.289   6.585  0.9615  1.3046  1.0479
 3859TIP3   OH233211   4.614   2.330   1.154 -0.0482  0.1051  0.5264
 3859TIP3    H133212   4.519   2.325   1.143 -0.1012  0.4040  0.8314
 3859TIP3    H233213   4.638   2.246   1.192 -0.3807  0.5521  1.7657
 3860TIP3   OH233214   0.911   2.157   7.727 -0.5183 -0.0245  0.1213
 3860TIP3    H133215   0.883   2.152   7.635 -0.2372 -0.9659  0.0769
 3860TIP3    H233216   0.990   2.104   7.730  0.8238  1.8787  0.4272
 3861TIP3   OH233217   0.842   1.380   1.347 -0.5504  0.1153 -0.7628
 3861TIP3    H133218   0.851   1.362   1.440  0.1853 -1.0522 -1.0275
 3861TIP3    H233219   0.911   1.443   1.327 -1.6265  1.4928 -0.2673
 3862TIP3   OH233220   6.434   3.242   1.746  0.0230  0.1694  0.1877
 3862TIP3    H133221   6.357   3.250   1.690  1.3063  2.1733 -1.4067
 3862TIP3    H233222   6.499   3.199   1.691  0.3356 -0.7651  1.2525
 3863TIP3   OH233223   3.680   1.237   1.608 -0.0887 -0.5640  0.4302
 3863TIP3    H133224   3.635   1.263   1.688  0.8862 -1.0673  1.1623
 3863TIP3    H233225   3.657   1.305   1.544 -1.3414 -0.4684  0.9529
 3864TIP3   OH233226   3.563   2.637   0.864 -0.5947 -0.0970 -0.7931
 3864TIP3    H133227   3.547   2.569   0.799  0.3685 -2.0080  0.8574
 3864TIP3    H233228   3.567   2.591   0.948 -0.7461  2.1159  0.5409
 3865TIP3   OH233229   1.379   0.001   7.046  0.2144  0.3338 -0.4480
 3865TIP3    H133230   1.293  -0.040   7.051 -0.0662  0.6125 -2.2434
 3865TIP3    H233231   1.427  -0.034   7.121 -1.1852 -0.4623  0.1088
 3866TIP3   OH233232   7.121   5.943   8.116 -1.1506 -0.1639  0.1461
 3866TIP3    H133233   7.191   5.915   8.176  0.4776  3.2738  0.0772
 3866TIP3    H233234   7.093   6.028   8.150 -2.3065  0.5051 -2.2717
 3867TIP3   OH233235   1.403   4.672   0.979 -0.6622 -0.2369 -0.0573
 3867TIP3    H133236   1.339   4.601   0.973 -0.4389 -0.4530  0.1073
 3867TIP3    H233237   1.405   4.710   0.891 -0.5101 -0.6750 -0.2442
 3868TIP3   OH233238   2.140   3.353   0.116  0.0677 -0.2139 -0.4429
 3868TIP3    H133239   2.098   3.420   0.062  0.5631  0.3121 -0.1975
 3868TIP3    H233240   2.156   3.280   0.057  0.3361  0.2383 -0.9439
 3869TIP3   OH233241   0.925   2.798   7.753  0.1819 -0.3663 -0.0060
 3869TIP3    H133242   0.932   2.871   7.815 -0.1071 -1.1716  1.0047
 3869TIP3    H233243   1.011   2.795   7.711  0.1503  0.6505 -0.1798
 3870TIP3   OH233244   4.912   1.931   1.013  0.0409  0.5046  0.2196
 3870TIP3    H133245   4.998   1.900   0.983  1.2583  2.1913  1.7438
 3870TIP3    H233246   4.885   1.867   1.079 -0.1637 -0.3324 -0.6533
 3871TIP3   OH233247   4.981   0.044   1.786 -0.0998 -0.1232  0.4418
 3871TIP3    H133248   4.928  -0.022   1.741  0.2352 -0.6012  0.7335
 3871TIP3    H233249   4.980   0.017   1.877 -0.0305  0.3313  0.5788
 3872TIP3   OH233250   4.778   2.200   1.918 -0.1030 -0.5911  0.3498
 3872TIP3    H133251   4.788   2.271   1.980 -2.4601 -1.5494  1.9887
 3872TIP3    H233252   4.760   2.243   1.834  1.3027  0.7081  0.6931
 3873TIP3   OH233253   6.252   4.427   0.772 -0.1558  0.3898 -0.2701
 3873TIP3    H133254   6.201   4.447   0.851  0.4319 -1.2309  0.5693
 3873TIP3    H233255   6.197   4.457   0.700 -1.6360  0.0364  0.6633
 3874TIP3   OH233256   0.774   0.402   5.854 -0.3594 -0.4134  0.0247
 3874TIP3    H133257   0.746   0.340   5.787  1.2625  0.3580 -1.4705
 3874TIP3    H233258   0.834   0.461   5.808 -1.1701  1.7662  1.5482
 3875TIP3   OH233259   4.177   4.809   0.196 -0.8545  0.2937 -0.5372
 3875TIP3    H133260   4.122   4.806   0.118 -1.9208  1.4625  0.1362
 3875TIP3    H233261   4.223   4.892   0.191 -1.2443  0.5717  0.2717
 3876TIP3   OH233262   7.012   0.163   2.200  0.7114 -0.3003 -0.1700
 3876TIP3    H133263   7.100   0.151   2.235  0.4275 -0.5083  0.5006
 3876TIP3    H233264   7.022   0.226   2.129  1.2024  0.7520  0.8007
 3877TIP3   OH233265   2.745   1.728   6.844 -0.3824  0.4118  0.1643
 3877TIP3    H133266   2.653   1.749   6.828  0.0062  1.3767 -0.9025
 3877TIP3    H233267   2.743   1.638   6.876 -1.6191  0.0139 -0.9122
 3878TIP3   OH233268   0.181   6.773   0.811  0.1282  0.2345  0.2955
 3878TIP3    H133269   0.171   6.831   0.736 -0.1473  0.3314  0.4054
 3878TIP3    H233270   0.164   6.829   0.887  1.2130  0.3356  0.4830
 3879TIP3   OH233271   2.539   0.972   6.604 -0.0727 -0.0374 -0.2739
 3879TIP3    H133272   2.556   0.885   6.568 -0.4347  0.1477 -0.9119
 3879TIP3    H233273   2.507   1.023   6.529 -1.4544  0.1820  0.4360
 3880TIP3   OH233274   3.885   4.088   6.020 -0.1068  0.1956  0.2907
 3880TIP3    H133275   3.950   4.139   6.069 -0.1362  0.1828  0.3428
 3880TIP3    H233276   3.850   4.026   6.084  0.4012 -0.3336  0.0590
 3881TIP3   OH233277   5.770   5.110   7.566  0.2789  0.0983  0.1369
 3881TIP3    H133278   5.695   5.092   7.623  1.4463  0.3292  1.8156
 3881TIP3    H233279   5.798   5.023   7.536 -1.4967  0.0933 -1.7188
 3882TIP3   OH233280   6.505   2.195   7.947  0.0388 -0.3018 -0.1960
 3882TIP3    H133281   6.498   2.112   7.901  0.1757  0.0173 -0.7939
 3882TIP3    H233282   6.485   2.262   7.882  2.3494  0.2948 -0.3904
 3883TIP3   OH233283   4.246   1.725   0.472 -0.1545 -0.1821 -0.0566
 3883TIP3    H133284   4.239   1.816   0.445  0.0675  0.7354  2.6533
 3883TIP3    H233285   4.200   1.676   0.404 -0.5153  1.9678 -1.4501
 3884TIP3   OH233286   1.962   4.281   7.501  0.2230  0.0503  0.4870
 3884TIP3    H133287   1.979   4.336   7.578 -1.4120  0.4491  0.5863
 3884TIP3    H233288   1.976   4.191   7.533  0.9259  0.2787  0.8566
 3885TIP3   OH233289   0.677   1.248   7.144  0.2351  0.1014 -0.3213
 3885TIP3    H133290   0.595   1.282   7.179  0.2358 -0.3526  0.1296
 3885TIP3    H233291   0.655   1.216   7.056 -0.0178  0.1901 -0.2889
 3886TIP3   OH233292   1.942   4.133   0.423  0.5801  0.4878 -0.0891
 3886TIP3    H133293   2.021   4.084   0.400  0.4128  0.5857 -0.9244
 3886TIP3    H233294   1.934   4.198   0.353 -1.2124 -0.6625 -1.0048
 3887TIP3   OH233295   2.706   0.125   7.462  0.0433  0.5379 -0.0709
 3887TIP3    H133296   2.689   0.060   7.394 -1.4753  0.7117  0.1029
 3887TIP3    H233297   2.784   0.172   7.432  0.3533 -0.4464 -0.8729
 3888TIP3   OH233298   4.427   0.809   6.346 -0.2182  0.0718 -0.3407
 3888TIP3    H133299   4.379   0.727   6.343  0.0861 -0.1892  1.1172
 3888TIP3    H233300   4.510   0.787   6.388  0.3792  0.8962 -1.0476
 3889TIP3   OH233301   0.515   3.116   6.779 -0.0285  0.0808  0.2722
 3889TIP3    H133302   0.468   3.038   6.750 -0.0024  0.3759 -0.5786
 3889TIP3    H233303   0.467   3.190   6.740  1.6513  0.3548 -1.4303
 3890TIP3   OH233304   6.084   6.647   6.182  0.3730 -0.1471 -0.4440
 3890TIP3    H133305   6.104   6.564   6.224  1.6405  0.6633  0.6285
 3890TIP3    H233306   6.006   6.680   6.227  1.3952  0.4505  0.9431
 3891TIP3   OH233307   0.607   4.100   1.434  0.1200 -0.2750 -0.1153
 3891TIP3    H133308   0.604   4.040   1.509  0.4771 -0.2029 -0.0416
 3891TIP3    H233309   0.515   4.121   1.417 -0.0570 -1.2882 -0.5039
 3892TIP3   OH233310   5.015   6.034   7.968  0.0579 -0.3615  0.0044
 3892TIP3    H133311   4.997   5.942   7.946  1.6335 -0.8042  0.4576
 3892TIP3    H233312   5.104   6.034   8.002  0.7036  1.5986 -1.4924
 3893TIP3   OH233313   1.070   5.078   7.480  0.3113  0.1522  0.4894
 3893TIP3    H133314   0.990   5.026   7.488  0.8365 -0.8898 -0.5647
 3893TIP3    H233315   1.048   5.148   7.419  0.6646 -1.2274 -1.3104
 3894TIP3   OH233316   4.965   3.341   1.035  0.3016  0.3053  0.3250
 3894TIP3    H133317   4.939   3.433   1.046  0.8419  0.6204 -0.8571
 3894TIP3    H233318   4.942   3.300   1.118  2.5048  2.0911  1.9403
 3895TIP3   OH233319   2.369   5.217   7.431 -0.0077  0.1997 -0.2094
 3895TIP3    H133320   2.429   5.147   7.456 -1.1740  0.0919  2.6722
 3895TIP3    H233321   2.289   5.200   7.482 -0.8064  2.8710 -0.4049
 3896TIP3   OH233322   1.459   1.125   7.566 -0.1132  0.5130 -0.5939
 3896TIP3    H133323   1.498   1.091   7.646  0.5775 -0.4023 -1.2893
 3896TIP3    H233324   1.470   1.220   7.571 -2.9716  0.8612  1.8611
 3897TIP3   OH233325   4.309   1.797   1.679  0.3918  0.0695  0.5982
 3897TIP3    H133326   4.383   1.817   1.737 -0.7272  0.3200  1.9930
 3897TIP3    H233327   4.256   1.734   1.728  0.8792 -2.0659 -1.3779
 3898TIP3   OH233328   1.527   1.657   6.591  0.7301  0.3240  0.0091
 3898TIP3    H133329   1.609   1.626   6.631  1.0318  1.0627 -0.0212
 3898TIP3    H233330   1.548   1.666   6.498 -0.1273 -1.9341 -0.4824
 3899TIP3   OH233331   0.497   3.787   0.566 -0.0339  0.1028 -0.7057
 3899TIP3    H133332   0.525   3.732   0.639  0.9813  2.0517  0.4387
 3899TIP3    H233333   0.424   3.739   0.527  1.0586 -2.2345 -0.0363
 3900TIP3   OH233334   6.995   3.963   5.959  0.5311  0.0966 -0.2239
 3900TIP3    H133335   6.948   4.038   5.995  0.2147  0.6515 -1.7020
 3900TIP3    H233336   7.024   3.992   5.873  0.9767 -1.2657 -0.5654
 3901TIP3   OH233337   6.157   1.756   7.210 -0.0886  0.1546 -0.0373
 3901TIP3    H133338   6.135   1.703   7.287  1.4437 -1.2015 -0.4668
 3901TIP3    H233339   6.125   1.705   7.136  0.4068  0.3606 -0.4015
 3902TIP3   OH233340   0.238   6.867   7.455  0.2599  0.4110  0.6225
 3902TIP3    H133341   0.275   6.848   7.368 -0.9093  0.9571 -0.0057
 3902TIP3    H233342   0.221   6.780   7.492 -0.3256  0.1661 -0.1812
 3903TIP3   OH233343   1.193   6.898   0.361 -0.1795 -0.1622 -0.2516
 3903TIP3    H133344   1.188   6.993   0.377 -0.6242 -0.4702  1.7399
 3903TIP3    H233345   1.287   6.882   0.350 -0.0215  0.4230  0.1269
 3904TIP3   OH233346   4.393   1.528   7.479 -0.3574 -0.4228 -0.0011
 3904TIP3    H133347   4.419   1.468   7.549  2.8103 -1.4693 -1.8747
 3904TIP3    H233348   4.367   1.472   7.407  2.1205  0.2949 -1.6031
 3905TIP3   OH233349   5.686   1.015   1.908  0.1545 -0.2647  0.4520
 3905TIP3    H133350   5.683   1.087   1.845 -0.7700 -1.0190 -0.4004
 3905TIP3    H233351   5.777   1.013   1.937  0.1861  1.2839  0.5532
 3906TIP3   OH233352   7.006   3.770   0.864  0.0840 -0.4800  0.0289
 3906TIP3    H133353   7.074   3.739   0.924 -0.3079 -2.1571 -0.3294
 3906TIP3    H233354   7.037   3.745   0.777  0.8751  2.3621 -0.5785
 3907TIP3   OH233355   3.787   6.043   6.478 -0.3854 -0.3147  0.1783
 3907TIP3    H133356   3.747   5.960   6.502 -0.4981 -0.9875 -2.0851
 3907TIP3    H233357   3.724   6.084   6.418 -0.4028  1.5002  1.3614
 3908TIP3   OH233358   0.925   5.072   5.582 -0.2423  0.7147  0.0816
 3908TIP3    H133359   0.991   5.006   5.561 -0.3752  0.7463 -0.4402
 3908TIP3    H233360   0.843   5.024   5.585 -0.2701  0.7684  0.2201
 3909TIP3   OH233361   0.345   3.223   1.916 -0.2730 -0.3769 -0.6405
 3909TIP3    H133362   0.375   3.139   1.952 -1.3370 -0.6824 -0.4361
 3909TIP3    H233363   0.268   3.245   1.968  0.2653  0.9772 -0.3784
 3910TIP3   OH233364   0.136   1.817   6.598  0.2923 -0.3928 -0.1553
 3910TIP3    H133365   0.211   1.801   6.655  0.6519  1.8122  0.1031
 3910TIP3    H233366   0.171   1.873   6.528 -0.9676  0.1431 -0.3798
 3911TIP3   OH233367   1.051   3.634   1.526  0.2529  0.4186 -0.2621
 3911TIP3    H133368   0.988   3.583   1.576  0.0766 -0.4940 -1.3749
 3911TIP3    H233369   1.137   3.607   1.558  0.1659 -0.7206 -0.9550
 3912TIP3   OH233370   3.722   3.250   6.304  0.0457 -0.2970  0.2248
 3912TIP3    H133371   3.727   3.173   6.248  3.9008 -1.7850  2.2164
 3912TIP3    H233372   3.694   3.216   6.389 -1.1589  1.0926  0.4212
 3913TIP3   OH233373   2.690   6.302   2.363  0.4794  0.0615 -0.3611
 3913TIP3    H133374   2.629   6.305   2.289  2.0941 -0.5038 -1.7981
 3913TIP3    H233375   2.715   6.393   2.377 -2.4936  0.6703  1.9337
 3914TIP3   OH233376   1.964   1.865   0.407 -1.2338  0.1277 -0.4262
 3914TIP3    H133377   1.904   1.931   0.441  0.8464  1.8514  0.1016
 3914TIP3    H233378   2.007   1.908   0.333 -1.4619 -1.4847 -1.5466
 3915TIP3   OH233379   0.887   5.479   6.653 -0.2164 -0.1285 -0.4130
 3915TIP3    H133380   0.878   5.559   6.705  0.4133 -0.9319  0.9791
 3915TIP3    H233381   0.893   5.510   6.562  0.5428  1.4409  0.1325
 3916TIP3   OH233382   1.139   1.304   7.219  0.0015 -0.2003 -0.3429
 3916TIP3    H133383   1.216   1.325   7.272 -0.1908  1.3353 -0.6517
 3916TIP3    H233384   1.075   1.272   7.282  0.6493 -0.8682  0.0009
 3917TIP3   OH233385   0.776   5.190   1.983 -0.2381  0.0123  0.0570
 3917TIP3    H133386   0.780   5.106   2.029  1.6380 -0.0179 -0.0899
 3917TIP3    H233387   0.851   5.239   2.017 -0.8263  1.3205 -0.4698
 3918TIP3   OH233388   4.163   1.519   1.191  0.3996  0.3864 -0.0459
 3918TIP3    H133389   4.098   1.526   1.120  1.7807  0.1801 -1.3931
 3918TIP3    H233390   4.137   1.440   1.239 -1.3190  1.2466  0.5278
 3919TIP3   OH233391   2.604   4.690   6.246  0.2258  0.6103  0.3942
 3919TIP3    H133392   2.679   4.733   6.286 -0.2115  2.0049 -0.2314
 3919TIP3    H233393   2.624   4.689   6.152 -0.0399 -0.0227  0.3401
 3920TIP3   OH233394   3.962   0.981   0.611  0.6127  0.5894  0.5990
 3920TIP3    H133395   3.944   1.054   0.552 -1.7981 -1.6333 -1.6481
 3920TIP3    H233396   4.049   0.949   0.585  0.4642  0.9197 -0.3118
 3921TIP3   OH233397   0.138   2.428   1.288  0.6647  0.1334 -0.6706
 3921TIP3    H133398   0.115   2.460   1.375  2.2037 -0.4063 -0.0354
 3921TIP3    H233399   0.190   2.498   1.249 -1.6472  1.2362 -1.9983
 3922TIP3   OH233400   6.519   1.460   1.492  0.1901  0.1809 -0.2715
 3922TIP3    H133401   6.460   1.385   1.502  2.0775 -1.1992  1.4700
 3922TIP3    H233402   6.486   1.525   1.555 -0.9718  0.5277 -1.2043
 3923TIP3   OH233403   3.712   1.682   7.817 -0.4295  0.1838 -0.0792
 3923TIP3    H133404   3.750   1.735   7.887  1.6216 -0.9915 -0.2219
 3923TIP3    H233405   3.619   1.673   7.840  0.1999 -0.2568  2.5400
 3924TIP3   OH233406   3.938   2.693   1.014 -0.0838  0.4042  0.4474
 3924TIP3    H133407   3.973   2.730   1.095 -0.0716 -0.0901  0.6713
 3924TIP3    H233408   3.884   2.619   1.042 -0.9375  0.8696  0.0743
 3925TIP3   OH233409   5.177   5.390   0.709  0.3369  0.1576 -0.0229
 3925TIP3    H133410   5.228   5.309   0.715 -1.7213 -1.2080  0.1852
 3925TIP3    H233411   5.085   5.361   0.715 -0.7732  2.0326 -4.2562
 3926TIP3   OH233412   5.130   5.297   7.322  0.1937  0.2745 -0.2463
 3926TIP3    H133413   5.092   5.308   7.409  0.4202 -1.0726  0.0330
 3926TIP3    H233414   5.192   5.224   7.331  0.2154  0.1114 -1.5342
 3927TIP3   OH233415   3.191   6.027   0.494  0.2196  0.2463  0.0887
 3927TIP3    H133416   3.123   5.962   0.511  0.3914  0.0471  0.0248
 3927TIP3    H233417   3.211   6.017   0.401  0.2384  0.3982  0.0767
 3928TIP3   OH233418   6.379   2.062   6.561 -0.2033 -0.4354 -0.0582
 3928TIP3    H133419   6.456   2.118   6.571 -0.3754 -0.2217  0.0786
 3928TIP3    H233420   6.391   1.994   6.628 -0.9996  0.5963  1.1949
 3929TIP3   OH233421   1.651   0.082   2.132  0.2063  0.1724  0.1681
 3929TIP3    H133422   1.678   0.013   2.071 -0.4469 -0.1353  0.2122
 3929TIP3    H233423   1.713   0.077   2.204  0.5919  0.1067 -0.1652
 3930TIP3   OH233424   1.770   2.827   7.294  0.6394 -0.2450  0.2080
 3930TIP3    H133425   1.844   2.791   7.245 -0.1828 -1.0064 -0.5126
 3930TIP3    H233426   1.760   2.767   7.368  0.7215 -0.1659  0.2829
 3931TIP3   OH233427   4.771   3.574   6.648 -0.9071 -0.3185  0.2245
 3931TIP3    H133428   4.745   3.535   6.564  1.6539  0.0255 -0.8359
 3931TIP3    H233429   4.696   3.559   6.706 -1.8525 -2.6685 -1.4437
 3932TIP3   OH233430   6.852   4.112   1.551  0.1429  0.3703 -0.0003
 3932TIP3    H133431   6.805   4.082   1.629 -0.2197  0.0192 -0.3519
 3932TIP3    H233432   6.944   4.095   1.570 -0.1665 -3.8668 -1.3652
 3933TIP3   OH233433   5.437   4.425   7.242 -0.0380  0.2698 -0.1590
 3933TIP3    H133434   5.356   4.375   7.252 -1.0786  2.0989  1.3415
 3933TIP3    H233435   5.484   4.411   7.325  0.2264  0.7982 -0.2160
 3934TIP3   OH233436   6.250   0.227   0.152 -0.5319  0.3963 -0.2692
 3934TIP3    H133437   6.219   0.264   0.235  1.3675  0.3800  0.5034
 3934TIP3    H233438   6.262   0.134   0.170  0.4648  0.4945 -0.3427
 3935TIP3   OH233439   0.088   2.165   0.237 -0.0954  0.3405 -0.0340
 3935TIP3    H133440   0.140   2.225   0.185  1.3431  0.3489  1.3247
 3935TIP3    H233441   0.039   2.114   0.173  2.7288 -0.7246 -1.5423
 3936TIP3   OH233442   0.859   4.936   1.456 -0.5168 -1.0580 -0.1756
 3936TIP3    H133443   0.938   4.990   1.464 -0.2665 -1.4953  0.3883
 3936TIP3    H233444   0.818   4.940   1.543 -2.0204  0.5069 -0.8913
 3937TIP3   OH233445   4.637   1.118   0.391  0.7235 -0.4661 -0.2977
 3937TIP3    H133446   4.678   1.032   0.392  0.4292 -0.6264 -1.1891
 3937TIP3    H233447   4.558   1.107   0.339 -1.2117 -0.4727  2.4293
 3938TIP3   OH233448   6.730   2.526   0.477  0.3409  0.7166 -0.2087
 3938TIP3    H133449   6.685   2.600   0.518 -1.5752  0.4294 -1.6887
 3938TIP3    H233450   6.686   2.449   0.512 -1.4263  0.4590 -2.7338
 3939TIP3   OH233451   3.813   5.180   6.758  0.1346 -0.4764 -0.3506
 3939TIP3    H133452   3.801   5.120   6.684 -0.0110  0.3117 -0.9769
 3939TIP3    H233453   3.881   5.139   6.811 -1.2198 -2.1312  0.2178
 3940TIP3   OH233454   6.855   2.987   7.935  0.3451  0.3484  0.2641
 3940TIP3    H133455   6.887   2.902   7.966  0.2438  0.4322  0.6103
 3940TIP3    H233456   6.869   2.986   7.841  1.0624  0.2539  0.3680
 3941TIP3   OH233457   0.441   2.094   7.560 -0.2018 -0.3961  0.5275
 3941TIP3    H133458   0.498   2.039   7.614  1.2939  0.4935 -0.0914
 3941TIP3    H233459   0.406   2.034   7.494  1.5353 -0.6361 -0.2443
 3942TIP3   OH233460   0.753   0.664   7.408 -0.6298  0.2398  0.0077
 3942TIP3    H133461   0.817   0.730   7.380  0.3574 -0.3793  0.7411
 3942TIP3    H233462   0.674   0.685   7.358  0.6951 -0.1596 -2.4091
 3943TIP3   OH233463   2.463   4.901   0.684  0.0347  0.2811 -0.1793
 3943TIP3    H133464   2.459   4.962   0.757 -0.0695  1.9588 -1.5139
 3943TIP3    H233465   2.402   4.937   0.619 -0.7208 -1.7626 -0.6771
 3944TIP3   OH233466   0.496   4.428   7.850  0.2841  0.6208 -0.2279
 3944TIP3    H133467   0.591   4.436   7.864  0.1716  0.3040  0.7787
 3944TIP3    H233468   0.461   4.514   7.874 -0.0151 -0.1783  2.6405
 3945TIP3   OH233469   0.886   1.643   0.787 -0.0930  1.0157  0.1198
 3945TIP3    H133470   0.823   1.712   0.808 -0.1996  1.1467 -0.5912
 3945TIP3    H233471   0.967   1.672   0.828 -0.1818  1.4742 -0.0217
 3946TIP3   OH233472   0.339   0.333   7.410  0.3304 -0.8684  0.4058
 3946TIP3    H133473   0.267   0.390   7.386  1.7896  1.0819  0.4271
 3946TIP3    H233474   0.381   0.311   7.327  2.1979  1.5237  0.6216
 3947TIP3   OH233475   4.728   5.748   0.218  0.3889  0.4375 -0.0194
 3947TIP3    H133476   4.731   5.764   0.124  1.4533 -2.1774 -0.5159
 3947TIP3    H233477   4.784   5.816   0.256  2.8366 -0.5141 -1.6772
 3948TIP3   OH233478   5.840   5.979   7.196  0.5607 -0.0461 -0.1029
 3948TIP3    H133479   5.802   6.045   7.138  1.0616  0.9696  0.7021
 3948TIP3    H233480   5.932   5.974   7.171  1.0472  1.2188  1.3083
 3949TIP3   OH233481   2.607   6.106   6.693 -0.0787  0.1640  0.0994
 3949TIP3    H133482   2.687   6.152   6.716  0.2265 -0.1256 -0.3685
 3949TIP3    H233483   2.635   6.036   6.634 -0.4429 -1.0783  1.3361
 3950TIP3   OH233484   2.944   0.496   6.389  0.7120  0.1999  0.5377
 3950TIP3    H133485   2.954   0.591   6.384 -1.6632  0.5136  0.5929
 3950TIP3    H233486   2.986   0.471   6.471  2.8929  0.9220 -0.3107
 3951TIP3   OH233487   5.756   2.042   6.950 -0.2391 -0.8676  0.3150
 3951TIP3    H133488   5.809   2.109   6.905 -0.5710 -0.5032  0.4620
 3951TIP3    H233489   5.675   2.087   6.972  0.2280 -0.7790  2.0212
 3952TIP3   OH233490   2.800   3.412   6.951  0.1478  0.4303  0.4620
 3952TIP3    H133491   2.771   3.429   7.040  2.0703 -2.4438  1.7822
 3952TIP3    H233492   2.724   3.370   6.909  0.5288 -2.2894  2.2421
 3953TIP3   OH233493   1.014   1.189   7.493 -0.6509 -0.1981 -0.5449
 3953TIP3    H133494   0.939   1.153   7.540 -0.5370 -1.0664 -0.9993
 3953TIP3    H233495   0.990   1.279   7.474 -0.8030  0.1075  0.9510
 3954TIP3   OH233496   0.925   5.722   0.769 -0.2976 -0.4495 -0.1618
 3954TIP3    H133497   0.869   5.740   0.844 -1.2951 -0.2307 -0.9368
 3954TIP3    H233498   1.011   5.755   0.795 -0.3436 -1.3855  1.3069
 3955TIP3   OH233499   6.598   3.717   7.190  0.0816 -0.0429  0.6176
 3955TIP3    H133500   6.585   3.811   7.198 -0.3870  0.0433 -0.8625
 3955TIP3    H233501   6.666   3.707   7.123 -0.3876 -0.7701  0.2353
 3956TIP3   OH233502   4.557   2.423   0.901  0.1506 -0.0120 -0.1003
 3956TIP3    H133503   4.590   2.344   0.860  2.3052  0.7580  0.0219
 3956TIP3    H233504   4.561   2.405   0.995  0.6322  0.2205 -0.0728
 3957TIP3   OH233505   5.801   3.649   0.767 -0.5700  0.0563 -0.0737
 3957TIP3    H133506   5.818   3.616   0.679 -0.3344 -0.4143  0.1444
 3957TIP3    H233507   5.729   3.596   0.799  0.8282 -1.3742  0.8730
 3958TIP3   OH233508   0.712   5.907   0.619 -0.2037  0.3021  0.7640
 3958TIP3    H133509   0.633   5.917   0.671 -1.4674 -2.5823 -0.3829
 3958TIP3    H233510   0.766   5.845   0.668 -0.3513 -0.5864 -0.1454
 3959TIP3   OH233511   5.208   3.337   6.189  0.4866  0.1629 -0.1999
 3959TIP3    H133512   5.138   3.400   6.173  0.8937  1.3676  2.1629
 3959TIP3    H233513   5.164   3.252   6.194 -0.3293  0.4678 -1.6826
 3960TIP3   OH233514   0.873   3.215   0.519  0.2090  0.0531 -0.1751
 3960TIP3    H133515   0.880   3.305   0.488 -0.2228  0.1085 -0.1159
 3960TIP3    H233516   0.807   3.218   0.588 -0.4350 -0.4468 -0.7506
 3961TIP3   OH233517   5.043   3.574   6.936 -0.1582 -0.6488 -0.3528
 3961TIP3    H133518   5.133   3.578   6.967 -0.0047 -0.5967 -0.7893
 3961TIP3    H233519   5.015   3.483   6.951 -0.8898 -0.0823  2.0868
 3962TIP3   OH233520   0.824   3.982   6.548 -0.7502 -0.1925 -0.1549
 3962TIP3    H133521   0.880   4.027   6.612  0.5951 -1.2911 -0.5202
 3962TIP3    H233522   0.821   3.891   6.579 -1.1284 -0.4550 -0.9519
 3963TIP3   OH233523   6.481   1.789   7.422 -0.2618 -0.1507  0.4515
 3963TIP3    H133524   6.435   1.835   7.352 -0.8029 -1.2389  0.0734
 3963TIP3    H233525   6.572   1.818   7.413  0.0338 -1.5013 -1.8073
 3964TIP3   OH233526   3.905   1.578   7.395 -0.0345  0.1736  0.7346
 3964TIP3    H133527   3.940   1.608   7.312 -1.3390  0.1122  0.1392
 3964TIP3    H233528   3.821   1.623   7.404 -1.2070 -1.8689  0.6624
 3965TIP3   OH233529   6.711   6.957   1.984  0.7749  0.4937  0.1508
 3965TIP3    H133530   6.753   7.022   2.040 -0.0901  0.5194  0.7957
 3965TIP3    H233531   6.646   6.914   2.041 -0.8733  1.2275 -1.0750
 3966TIP3   OH233532   4.720   1.966   2.017 -0.3108 -0.4265  0.3253
 3966TIP3    H133533   4.741   2.057   1.994  0.9396 -0.3267  1.7351
 3966TIP3    H233534   4.647   1.974   2.078  0.4388 -0.2782  1.2262
 3967TIP3   OH233535   1.067   6.844   6.381  0.7126 -0.2748 -0.0267
 3967TIP3    H133536   1.114   6.799   6.452  1.5160  0.7206  0.1003
 3967TIP3    H233537   1.118   6.825   6.303 -0.4941 -1.8504 -0.4709
 3968TIP3   OH233538   4.694   0.390   7.595 -0.2461  0.6341 -0.2054
 3968TIP3    H133539   4.714   0.452   7.665 -0.8015  1.6930 -0.9670
 3968TIP3    H233540   4.735   0.427   7.517  0.0637 -0.3515 -0.5345
 3969TIP3   OH233541   0.326   1.660   1.170  0.9391 -0.0036 -0.0736
 3969TIP3    H133542   0.286   1.574   1.154  1.3507 -0.5434  1.6004
 3969TIP3    H233543   0.353   1.690   1.083  1.1049 -1.7349 -0.6686
 3970TIP3   OH233544   6.641   2.080   1.937  0.3607  0.1721  0.1141
 3970TIP3    H133545   6.646   2.163   1.984  1.5036 -0.6614  1.5094
 3970TIP3    H233546   6.702   2.022   1.982  0.7131 -0.9943 -1.7576
 3971TIP3   OH233547   3.752   6.307   0.045 -0.1562 -0.5619  0.4183
 3971TIP3    H133548   3.796   6.224   0.065  1.2765  0.3621  1.2747
 3971TIP3    H233549   3.785   6.368   0.111 -0.3934  0.9603 -0.8099
 3972TIP3   OH233550   3.180   3.563   7.410 -0.2223  0.2679  0.0886
 3972TIP3    H133551   3.183   3.551   7.315 -3.6491  1.7555 -0.3704
 3972TIP3    H233552   3.242   3.634   7.427 -0.2893  0.6691 -1.2065
 3973TIP3   OH233553   4.027   0.056   6.100 -0.1411  0.0139 -0.0967
 3973TIP3    H133554   4.115   0.069   6.064 -0.8866 -0.5535 -2.2487
 3973TIP3    H233555   4.006  -0.035   6.078 -1.7921  0.5568 -0.8715
 3974TIP3   OH233556   3.452   2.418   5.872 -0.0317  0.1838  0.3020
 3974TIP3    H133557   3.533   2.427   5.822  0.6124 -1.7987  0.8662
 3974TIP3    H233558   3.478   2.367   5.950 -1.9630 -1.4250 -0.0267
 3975TIP3   OH233559   0.037   7.096   0.211 -0.3412 -0.7067 -0.2072
 3975TIP3    H133560   0.047   7.184   0.247  0.8750 -1.2464  0.8765
 3975TIP3    H233561   0.063   7.104   0.120 -1.3075  0.2546 -0.4234
 3976TIP3   OH233562   2.702   6.976   0.657  0.4123  0.2767  0.3251
 3976TIP3    H133563   2.711   6.952   0.749 -0.1950  2.4343  1.0052
 3976TIP3    H233564   2.788   7.009   0.632  0.9132 -1.3751 -0.2686
 3977TIP3   OH233565   2.473   6.830   6.585  0.0810  0.0371  0.4639
 3977TIP3    H133566   2.471   6.807   6.492  2.0739  1.2956  0.0571
 3977TIP3    H233567   2.447   6.922   6.588 -4.4391 -1.0186  1.7280
 3978TIP3   OH233568   0.192   5.634   1.393 -0.1853 -0.0717 -0.0611
 3978TIP3    H133569   0.217   5.698   1.460 -0.1792 -0.0949 -0.0411
 3978TIP3    H233570   0.101   5.613   1.413  0.5092 -1.9654  1.4918
 3979TIP3   OH233571   1.861   3.137   0.608 -0.4813 -0.1134  0.5094
 3979TIP3    H133572   1.793   3.179   0.556  0.1931  0.9411  0.4459
 3979TIP3    H233573   1.904   3.209   0.654  0.1133 -0.8413  1.1281
 3980TIP3   OH233574   5.724   6.583   6.538 -0.1753 -0.1129  0.6844
 3980TIP3    H133575   5.757   6.496   6.558  1.3913 -0.1076 -1.4797
 3980TIP3    H233576   5.683   6.574   6.452 -1.4394  0.9778  1.1320
 3981TIP3   OH233577   1.085   6.533   7.623  0.2374 -0.6567  0.3382
 3981TIP3    H133578   1.039   6.616   7.615  0.6495 -0.5829 -1.7404
 3981TIP3    H233579   1.015   6.467   7.629 -0.1417 -0.3746 -0.7733
 3982TIP3   OH233580   5.805   6.557   1.111 -0.2175  0.4384  0.0300
 3982TIP3    H133581   5.738   6.625   1.110  0.4459  1.1288  1.0108
 3982TIP3    H233582   5.857   6.575   1.189 -0.5192 -1.6691  0.8034
 3983TIP3   OH233583   2.558   1.131   7.051  0.3726  1.0572  0.1141
 3983TIP3    H133584   2.487   1.194   7.054  1.6177  2.4919  0.3813
 3983TIP3    H233585   2.543   1.082   6.970 -0.8129  1.4359  0.0831
 3984TIP3   OH233586   1.981   1.987   7.154  0.2063 -0.2661  0.4153
 3984TIP3    H133587   1.959   2.075   7.185 -1.7281 -0.6170  0.1483
 3984TIP3    H233588   1.954   1.987   7.062 -0.8278 -1.4625  0.7077
 3985TIP3   OH233589   2.246   5.875   7.176 -0.3219  0.2187  0.4212
 3985TIP3    H133590   2.304   5.819   7.124 -2.6922 -1.2051 -0.8876
 3985TIP3    H233591   2.191   5.814   7.225 -2.9966  1.2829 -1.0478
 3986TIP3   OH233592   3.934   4.801   0.756  0.1296  0.2617 -0.0834
 3986TIP3    H133593   4.004   4.863   0.776 -0.7994  1.8452 -1.4560
 3986TIP3    H233594   3.890   4.786   0.839 -1.0301  3.3073 -0.0076
 3987TIP3   OH233595   2.363   5.447   1.367  0.1712 -0.3940 -0.9762
 3987TIP3    H133596   2.452   5.482   1.372 -0.2398  0.5176  0.5948
 3987TIP3    H233597   2.376   5.352   1.357  1.3475 -0.4232  0.4583
 3988TIP3   OH233598   0.578   6.299   6.183  0.0931  0.1437  0.0800
 3988TIP3    H133599   0.540   6.288   6.095  1.2641  1.7023 -0.6812
 3988TIP3    H233600   0.514   6.353   6.229  0.3112  0.8838 -0.4565
 3989TIP3   OH233601   3.366   3.387   0.832  0.0165 -0.0084 -0.3887
 3989TIP3    H133602   3.422   3.454   0.791  0.2402  0.9946  1.4191
 3989TIP3    H233603   3.277   3.409   0.803  0.3983 -1.0021 -2.4758
 3990TIP3   OH233604   6.961   1.318   7.219  0.0384  0.4197 -0.2008
 3990TIP3    H133605   6.866   1.321   7.228  0.2065 -0.1405  3.2760
 3990TIP3    H233606   6.990   1.408   7.238  0.2277  0.3709 -0.2519
 3991TIP3   OH233607   6.854   3.776   0.365 -0.0062 -0.3525 -0.0924
 3991TIP3    H133608   6.816   3.823   0.440  1.4904 -0.4752  0.7749
 3991TIP3    H233609   6.896   3.699   0.403  0.1334 -0.8250 -1.1586
 3992TIP3   OH233610   4.131   2.939   1.971 -0.3246 -0.1052  0.3949
 3992TIP3    H133611   4.140   3.034   1.976  0.6400 -0.1078 -0.8173
 3992TIP3    H233612   4.189   2.906   2.040 -1.2666  0.1809  1.3502
 3993TIP3   OH233613   1.762   1.481   6.795  0.3030  0.1642  0.3887
 3993TIP3    H133614   1.751   1.391   6.764  1.7280  0.1652 -0.2095
 3993TIP3    H233615   1.698   1.491   6.865  0.6323 -1.5661  0.9781
 3994TIP3   OH233616   6.535   0.490   0.869  0.2588 -0.0954 -0.3467
 3994TIP3    H133617   6.583   0.502   0.787  1.4039 -1.9506 -0.0069
 3994TIP3    H233618   6.444   0.475   0.840  0.3942  0.6012 -1.1810
 3995TIP3   OH233619   2.830   2.213   0.713  0.1850 -1.1778 -0.0509
 3995TIP3    H133620   2.757   2.236   0.770  0.9148 -0.6988  0.7310
 3995TIP3    H233621   2.858   2.127   0.744 -1.3167 -2.3185 -1.7012
 3996TIP3   OH233622   0.512   3.566   0.733  0.0372  0.5525  1.3024
 3996TIP3    H133623   0.523   3.493   0.672 -0.0521  2.8725 -1.7265
 3996TIP3    H233624   0.419   3.564   0.756 -0.5124  1.0453 -0.6922
 3997TIP3   OH233625   3.166   2.386   0.879 -0.1124  0.1918  0.1259
 3997TIP3    H133626   3.188   2.334   0.802 -2.1871 -0.7284  0.0777
 3997TIP3    H233627   3.230   2.359   0.945  1.5357  0.8099 -1.1415
 3998TIP3   OH233628   2.277   2.210   1.044 -0.2463 -0.0872  0.5957
 3998TIP3    H133629   2.276   2.305   1.053 -0.1158 -0.0369  0.1266
 3998TIP3    H233630   2.187   2.183   1.059 -0.8812  0.3814 -1.9090
 3999TIP3   OH233631   5.088   4.952   0.783  0.7371 -0.0109 -0.4757
 3999TIP3    H133632   5.160   5.015   0.783 -0.0447  0.9123 -0.7310
 3999TIP3    H233633   5.075   4.929   0.691  1.0455 -0.5739 -0.3786
 4000TIP3   OH233634   0.602   5.058   2.190 -0.0332 -0.1131  0.4284
 4000TIP3    H133635   0.672   5.012   2.144  0.1363  0.3343  0.2262
 4000TIP3    H233636   0.532   4.993   2.199  0.3080 -0.4869  0.4031
 4001TIP3   OH233637   4.945   5.864   6.488 -0.1544  0.4695 -0.0143
 4001TIP3    H133638   4.992   5.937   6.529 -0.1759  1.1660 -1.1943
 4001TIP3    H233639   4.855   5.873   6.521  0.1801  0.0278  1.0669
 4002TIP3   OH233640   6.456   4.104   7.972  0.1054 -0.1250 -0.0592
 4002TIP3    H133641   6.433   4.185   7.926  0.3643 -1.3374 -2.4852
 4002TIP3    H233642   6.441   4.035   7.907 -2.1626 -2.3176  2.5232
 4003TIP3   OH233643   5.942   2.296   1.203 -0.2339  0.6739  0.2591
 4003TIP3    H133644   6.016   2.289   1.263  0.7197 -0.2944 -0.9648
 4003TIP3    H233645   5.925   2.390   1.197  0.5981  0.8851  0.9196
 4004TIP3   OH233646   2.784   2.138   1.898 -0.1400 -0.2370  0.5123
 4004TIP3    H133647   2.752   2.143   1.989 -0.4897  0.7871  0.3421
 4004TIP3    H233648   2.822   2.050   1.891  0.5786 -0.0645  1.8792
 4005TIP3   OH233649   2.021   2.276   0.722 -0.3176  0.3669  0.0959
 4005TIP3    H133650   2.077   2.242   0.652  0.5658 -0.3270  1.1078
 4005TIP3    H233651   1.947   2.216   0.725 -1.0006  1.1090 -1.0428
 4006TIP3   OH233652   1.904   5.776   1.938 -0.5736  0.0042  0.1431
 4006TIP3    H133653   1.956   5.707   1.979 -0.8044  0.3908  1.1127
 4006TIP3    H233654   1.815   5.742   1.935 -0.0618 -1.3924 -3.1471
 4007TIP3   OH233655   3.078   6.435   0.456 -0.6203  0.1078 -0.1749
 4007TIP3    H133656   3.098   6.386   0.536  0.6930 -1.4524 -1.3688
 4007TIP3    H233657   3.025   6.375   0.403 -1.2587  1.0142 -0.5991
 4008TIP3   OH233658   4.566   3.480   7.931  0.5073 -0.1758 -0.1983
 4008TIP3    H133659   4.548   3.446   8.019 -0.7895 -0.0071 -0.3762
 4008TIP3    H233660   4.549   3.574   7.938  4.0517  0.5528  0.2934
 4009TIP3   OH233661   4.309   6.096   7.874  0.1584  0.5704 -0.1843
 4009TIP3    H133662   4.345   6.011   7.900 -0.4637  0.4281  0.2137
 4009TIP3    H233663   4.228   6.104   7.924  0.5055  1.6662  0.2147
 4010TIP3   OH233664   1.656   4.730   1.672  0.1000 -0.7302 -0.1056
 4010TIP3    H133665   1.661   4.771   1.758  2.2227 -0.1892 -0.4135
 4010TIP3    H233666   1.587   4.665   1.679 -0.5147  0.0663  1.6609
 4011TIP3   OH233667   0.021   2.822   1.584  0.0798 -0.2741  0.2313
 4011TIP3    H133668   0.061   2.872   1.513  4.2582 -1.3719  1.5348
 4011TIP3    H233669   0.031   2.878   1.661 -1.9501 -0.2117  0.5159
 4012TIP3   OH233670   0.378   0.296   0.800  0.8385  0.4030 -0.0438
 4012TIP3    H133671   0.343   0.330   0.883  0.9081 -0.3525  0.3023
 4012TIP3    H233672   0.352   0.361   0.735  0.5658  0.8824  0.5288
 4013TIP3   OH233673   4.395   5.423   1.911  0.3680 -0.4183  0.5481
 4013TIP3    H133674   4.472   5.479   1.920  1.2465 -0.8188 -2.8022
 4013TIP3    H233675   4.324   5.471   1.954  1.4451  2.5189 -0.6840
 4014TIP3   OH233676   3.214   5.573   1.010 -0.5737 -0.7901 -0.0258
 4014TIP3    H133677   3.163   5.611   1.081  0.6410 -0.4011  0.6832
 4014TIP3    H233678   3.198   5.630   0.935  0.2163  0.4169  0.6815
 4015TIP3   OH233679   5.837   5.261   7.324  0.5656 -0.2952 -0.4996
 4015TIP3    H133680   5.924   5.245   7.360 -0.5495 -0.9939  2.1714
 4015TIP3    H233681   5.778   5.208   7.379 -1.7404  1.5664 -0.9906
 4016TIP3   OH233682   5.663   6.012   1.356 -0.7110 -0.1721  0.8143
 4016TIP3    H133683   5.697   5.949   1.292  0.1698  0.0376  1.0536
 4016TIP3    H233684   5.664   5.965   1.439  0.3565  0.2583  1.0717
 4017TIP3   OH233685   0.090   4.603   0.726 -0.1988 -0.2312  0.3976
 4017TIP3    H133686   0.071   4.669   0.793 -0.7445  1.7925 -1.6451
 4017TIP3    H233687   0.182   4.615   0.706 -0.3049 -0.0405  0.0069
 4018TIP3   OH233688   0.521   5.295   1.908  0.0848  0.0317  0.2214
 4018TIP3    H133689   0.604   5.250   1.923  0.3384  0.1778 -0.7046
 4018TIP3    H233690   0.501   5.337   1.992 -0.1561 -1.7676  1.1050
 4019TIP3   OH233691   2.850   5.480   1.337 -0.5930 -0.1389 -0.9456
 4019TIP3    H133692   2.813   5.463   1.424 -0.0269  1.1803 -0.4121
 4019TIP3    H233693   2.780   5.458   1.276 -0.7833 -1.7272 -0.2088
 4020TIP3   OH233694   1.309   3.184   6.896 -0.7158  0.3007  0.0644
 4020TIP3    H133695   1.381   3.229   6.853 -0.4662  0.4313  0.6153
 4020TIP3    H233696   1.251   3.254   6.926 -1.3206  0.1850 -0.7870
 4021TIP3   OH233697   6.731   2.927   0.118  0.0074 -0.1353 -0.0668
 4021TIP3    H133698   6.654   2.960   0.073  0.2452  0.8771  0.2369
 4021TIP3    H233699   6.698   2.860   0.177 -0.6902  0.5215  0.3020
 4022TIP3   OH233700   0.394   0.547   7.549 -0.2075 -0.0217  0.0378
 4022TIP3    H133701   0.407   0.465   7.501  2.8407  0.7517 -0.6943
 4022TIP3    H233702   0.426   0.615   7.489 -3.1552  1.8819  0.3751
 4023TIP3   OH233703   2.693   3.853   7.778 -0.6793 -0.3328 -0.5624
 4023TIP3    H133704   2.666   3.929   7.727 -0.5374  0.1177  0.0272
 4023TIP3    H233705   2.785   3.840   7.755 -0.6470 -0.2008 -0.5089
 4024TIP3   OH233706   5.013   6.996   0.026  0.2421 -0.6032  0.2096
 4024TIP3    H133707   4.921   7.016   0.044  0.8060  0.2618  2.5665
 4024TIP3    H233708   5.057   7.081   0.026  1.0129 -0.9556 -1.4034
 4025TIP3   OH233709   0.320   0.728   6.388  0.1809  0.3302 -0.1280
 4025TIP3    H133710   0.409   0.763   6.388  0.2021  0.2995  0.6900
 4025TIP3    H233711   0.323   0.657   6.324  1.0939 -0.4867  0.7667
 4026TIP3   OH233712   2.343   2.346   1.657  0.3970  0.1515  0.5400
 4026TIP3    H133713   2.260   2.308   1.685 -0.4524  1.2452 -0.3748
 4026TIP3    H233714   2.353   2.423   1.712  0.0547  0.8261 -0.3196
 4027TIP3   OH233715   4.310   6.590   6.985  0.0199 -0.1291  0.4070
 4027TIP3    H133716   4.286   6.498   6.995 -0.4463  0.0117  0.5745
 4027TIP3    H233717   4.396   6.597   7.028  0.1693 -0.5326  0.1848
 4028TIP3   OH233718   6.816   4.238   8.073 -0.0177  0.6395  0.1131
 4028TIP3    H133719   6.844   4.303   8.008  2.0552 -1.0481 -0.8025
 4028TIP3    H233720   6.801   4.289   8.152 -0.9802  2.5469 -1.2240
 4029TIP3   OH233721   6.808   3.558   1.281 -0.0272  0.6366 -0.0468
 4029TIP3    H133722   6.749   3.591   1.349 -0.1859 -0.6406  0.4636
 4029TIP3    H233723   6.759   3.570   1.199 -0.4630  0.7664  0.2285
 4030TIP3   OH233724   6.035   2.089   0.656 -0.0100 -0.0245  0.4130
 4030TIP3    H133725   5.947   2.079   0.619  0.3062 -0.1150 -0.3274
 4030TIP3    H233726   6.093   2.093   0.580  0.3278  3.8759  0.6832
 4031TIP3   OH233727   5.229   1.049   7.249 -0.4046 -0.0375  0.4299
 4031TIP3    H133728   5.135   1.041   7.265 -0.2536  0.3954  1.6103
 4031TIP3    H233729   5.237   1.043   7.154 -2.2040  4.5937 -0.3222
 4032TIP3   OH233730   5.890   1.036   6.999  0.3444 -0.4163 -0.5438
 4032TIP3    H133731   5.969   1.008   6.954  0.7075  0.5539 -0.5252
 4032TIP3    H233732   5.855   0.956   7.038  1.7092 -0.7298  0.0818
 4033TIP3   OH233733   6.871   1.555   0.933  0.4568 -0.3157  0.8191
 4033TIP3    H133734   6.945   1.514   0.978  2.0327 -1.2613 -2.2967
 4033TIP3    H233735   6.910   1.592   0.854 -1.9764  1.8604  0.5265
 4034TIP3   OH233736   6.139   3.383   0.952 -0.1251 -0.3148  0.5705
 4034TIP3    H133737   6.133   3.337   1.036 -1.7961 -0.5055  0.3752
 4034TIP3    H233738   6.048   3.400   0.927  0.3976  1.4275 -0.2915
 4035TIP3   OH233739   3.010   4.041   0.037  0.1745  0.5674  0.1026
 4035TIP3    H133740   3.096   4.074   0.011 -0.7309  3.5878  0.5278
 4035TIP3    H233741   2.997   4.076   0.125 -2.9149  3.5636 -1.3033
 4036TIP3   OH233742   4.843   5.652   1.186 -0.3433 -0.1990  0.1446
 4036TIP3    H133743   4.818   5.656   1.278 -0.4743 -0.4677  0.1213
 4036TIP3    H233744   4.921   5.707   1.180 -1.3654  1.2674  0.0620
 4037TIP3   OH233745   5.495   6.396   6.673  0.4476 -1.1079 -0.0800
 4037TIP3    H133746   5.499   6.492   6.665 -0.6808 -1.1923 -3.3138
 4037TIP3    H233747   5.586   6.369   6.684  0.8509  0.2896  0.2500
 4038TIP3   OH233748   5.922   0.691   7.878 -0.1011  0.3409 -0.2479
 4038TIP3    H133749   6.003   0.695   7.929 -0.9917  2.2504  1.0999
 4038TIP3    H233750   5.924   0.603   7.838  1.6402 -0.4301  1.3658
 4039TIP3   OH233751   6.021   6.490   7.892 -0.5944 -0.2049  0.5199
 4039TIP3    H133752   5.932   6.483   7.857 -0.0839  0.2814 -0.9633
 4039TIP3    H233753   6.037   6.406   7.933 -1.7863 -0.2477  0.9573
 4040TIP3   OH233754   2.363   2.683   7.813 -0.3130  0.0690  0.2238
 4040TIP3    H133755   2.299   2.674   7.884  0.0548 -0.8155  0.4619
 4040TIP3    H233756   2.402   2.596   7.806  1.5715  0.8219  0.7483
 4041TIP3   OH233757   0.692   6.721   1.071  0.3525  0.1088 -0.2240
 4041TIP3    H133758   0.726   6.758   0.990 -0.8554  0.5698 -0.5378
 4041TIP3    H233759   0.686   6.795   1.131 -1.7188  0.4098 -0.7351
 4042TIP3   OH233760   5.993   0.064   7.976  0.5094  0.0807 -0.6653
 4042TIP3    H133761   6.030   0.124   7.911  1.7600 -1.4732 -1.4612
 4042TIP3    H233762   6.067   0.008   8.001 -0.7658 -1.5920 -0.5059
 4043TIP3   OH233763   6.324   0.037   0.472 -0.5769  0.1674  0.1750
 4043TIP3    H133764   6.368   0.118   0.496  0.1956  0.2443 -1.4178
 4043TIP3    H233765   6.362  -0.029   0.531 -0.9644  0.8734  1.2390
 4044TIP3   OH233766   0.452   5.191   6.131  0.6289 -0.3316  0.1707
 4044TIP3    H133767   0.480   5.108   6.093 -0.3278 -0.1924 -0.8803
 4044TIP3    H233768   0.501   5.197   6.214  0.7477 -1.9084  0.2434
 4045TIP3   OH233769   1.520   3.150   0.706 -0.0608  0.1268  0.4967
 4045TIP3    H133770   1.516   3.157   0.611  0.3809  3.0795  0.6065
 4045TIP3    H233771   1.432   3.173   0.736  0.3004  1.1181  0.8362
 4046TIP3   OH233772   3.281   2.264   0.281  0.3496 -0.2272  0.3836
 4046TIP3    H133773   3.308   2.237   0.193  0.5878  2.0773 -0.3039
 4046TIP3    H233774   3.262   2.357   0.273  0.3379  0.0356  2.7958
 4047TIP3   OH233775   2.634   1.048   8.121 -0.1171  0.0324 -0.7755
 4047TIP3    H133776   2.707   1.004   8.079 -0.2419 -1.0502  0.0965
 4047TIP3    H233777   2.649   1.141   8.106  0.5582 -0.2637 -2.0084
 4048TIP3   OH233778   3.229   3.342   6.721 -0.1912 -0.2208 -0.1032
 4048TIP3    H133779   3.189   3.346   6.634 -1.8569  0.4243  0.6271
 4048TIP3    H233780   3.254   3.433   6.740 -1.4082 -0.0331  0.7359
 4049TIP3   OH233781   6.088   3.244   1.198 -0.2212  0.1515  0.0321
 4049TIP3    H133782   6.145   3.185   1.149 -0.8734 -0.0284 -0.5218
 4049TIP3    H233783   6.080   3.203   1.285 -2.0298 -1.5284 -0.8442
 4050TIP3   OH233784   1.655   2.918   6.124 -0.3096 -0.4180 -0.7400
 4050TIP3    H133785   1.653   2.832   6.081 -0.1574 -1.7831  1.8224
 4050TIP3    H233786   1.629   2.901   6.214 -0.5993  2.3128 -0.2222
 4051TIP3   OH233787   3.180   5.646   0.578  0.1426  0.4883  0.3299
 4051TIP3    H133788   3.240   5.570   0.579 -1.0404 -0.4643  1.2374
 4051TIP3    H233789   3.100   5.612   0.538 -0.3006  1.3519  0.4710
 4052TIP3   OH233790   1.556   5.889   6.126  0.3580  0.2274  0.1800
 4052TIP3    H133791   1.466   5.918   6.140  0.6811  0.7391  1.3594
 4052TIP3    H233792   1.580   5.927   6.041 -0.3652  0.5189  0.0940
 4053TIP3   OH233793   3.341   1.141   1.029 -0.3138 -0.3061  0.3108
 4053TIP3    H133794   3.302   1.078   1.089 -1.6522  0.3964  0.2047
 4053TIP3    H233795   3.426   1.162   1.068 -0.4409 -1.1324  1.0575
 4054TIP3   OH233796   3.545   1.295   1.830  0.8604  0.4662 -0.1368
 4054TIP3    H133797   3.554   1.379   1.875 -1.4500  0.8023 -0.2122
 4054TIP3    H233798   3.459   1.263   1.856  0.9289 -0.9901 -1.5960
 4055TIP3   OH233799   5.443   1.968   6.636  0.3913 -0.1399 -0.1605
 4055TIP3    H133800   5.492   1.913   6.696  1.0973 -0.0722 -0.6608
 4055TIP3    H233801   5.508   1.996   6.571 -0.1275  0.6233 -0.3642
 4056TIP3   OH233802   2.368   1.953   0.968  0.4854  0.0490 -0.4214
 4056TIP3    H133803   2.317   1.965   1.049  1.5841  0.7876  0.1825
 4056TIP3    H233804   2.322   2.006   0.903 -0.5785 -0.7780 -0.3920
 4057TIP3   OH233805   1.775   6.319   0.429  0.5411 -0.0531 -0.2343
 4057TIP3    H133806   1.829   6.388   0.390  0.7060  0.0192  0.1243
 4057TIP3    H233807   1.738   6.358   0.507  0.6246 -0.3676 -0.0341
 4058TIP3   OH233808   2.421   2.669   6.530 -0.6624 -0.1766  0.1345
 4058TIP3    H133809   2.369   2.686   6.608 -0.6273  0.8718 -0.0535
 4058TIP3    H233810   2.438   2.755   6.493  1.5545 -0.4143  0.4166
 4059TIP3   OH233811   4.334   2.063   6.709  0.4428 -0.3765  0.2649
 4059TIP3    H133812   4.403   2.074   6.775 -0.4047  0.9721  0.9838
 4059TIP3    H233813   4.297   2.151   6.700 -1.4546 -1.1584  0.2060
 4060TIP3   OH233814   1.698   2.405   1.124  0.4695 -0.1336  0.0057
 4060TIP3    H133815   1.613   2.361   1.123  0.0726  0.5615  0.9969
 4060TIP3    H233816   1.761   2.338   1.098 -0.2275 -1.0207  0.5674
 4061TIP3   OH233817   6.172   3.169   7.967 -0.3006  0.3531  0.2050
 4061TIP3    H133818   6.090   3.119   7.965 -0.4998  0.6465  0.7100
 4061TIP3    H233819   6.219   3.140   7.889 -1.1698  0.6616 -0.4584
 4062TIP3   OH233820   6.312   6.327   7.877  0.3748 -0.5555  0.4240
 4062TIP3    H133821   6.334   6.407   7.925 -0.6254  1.2230 -1.9027
 4062TIP3    H233822   6.252   6.356   7.808 -0.1058 -3.3543 -0.4461
 4063TIP3   OH233823   1.758   1.467   6.368 -0.1405  0.3116 -0.6319
 4063TIP3    H133824   1.679   1.417   6.349  0.2524  0.0041 -1.5460
 4063TIP3    H233825   1.830   1.406   6.351  0.3053  0.6877 -0.1448
 4064TIP3   OH233826   1.621   6.960   1.536  0.2452 -0.2243  0.1063
 4064TIP3    H133827   1.640   6.928   1.624  0.1072  0.9212  0.5793
 4064TIP3    H233828   1.622   7.056   1.545 -2.1833 -0.0611 -0.5857
 4065TIP3   OH233829   1.916   6.103   0.893 -0.4940 -0.1126 -0.2509
 4065TIP3    H133830   1.973   6.151   0.833 -0.2048  0.4533  0.4644
 4065TIP3    H233831   1.949   6.125   0.980 -2.6479  1.3801  0.2830
 4066TIP3   OH233832   0.652   2.951   7.118 -0.0163  0.0952 -0.0997
 4066TIP3    H133833   0.738   2.924   7.150  0.0212  0.6514  0.2870
 4066TIP3    H233834   0.601   2.965   7.197 -0.6661 -0.8332 -0.3323
 4067TIP3   OH233835   4.407   0.993   1.297 -0.3634  0.1196 -0.1812
 4067TIP3    H133836   4.495   0.956   1.287  0.0101  1.2327 -1.2788
 4067TIP3    H233837   4.349   0.926   1.260 -0.0857 -0.9238  1.1718
 4068TIP3   OH233838   5.476   3.709   0.842  0.2952  0.3272 -0.0496
 4068TIP3    H133839   5.399   3.664   0.879  0.4907 -0.2528 -0.3331
 4068TIP3    H233840   5.516   3.753   0.916 -0.9338  1.5767 -0.0795
 4069TIP3   OH233841   1.472   6.969   2.221  0.0492 -0.1078 -0.0241
 4069TIP3    H133842   1.489   6.924   2.138 -1.2123  0.0305 -0.3858
 4069TIP3    H233843   1.555   6.964   2.269  1.9710  2.8601 -2.6667
 4070TIP3   OH233844   1.076   5.335   6.795  0.0913 -0.3691 -0.1265
 4070TIP3    H133845   1.008   5.368   6.737  1.1733  3.4023  0.5150
 4070TIP3    H233846   1.157   5.374   6.762  0.8441  1.3497  3.3175
 4071TIP3   OH233847   2.791   0.032   7.719  0.0504 -0.2365 -0.1111
 4071TIP3    H133848   2.744   0.095   7.665  1.0403  2.0222  1.4947
 4071TIP3    H233849   2.860  -0.003   7.662 -0.3018  0.4047 -0.9471
 4072TIP3   OH233850   7.084   1.667   2.045 -0.3010 -0.8221  0.0987
 4072TIP3    H133851   7.170   1.707   2.030 -0.3814 -0.6774  0.0296
 4072TIP3    H233852   7.099   1.573   2.032  0.3973 -1.1062  2.3947
 4073TIP3   OH233853   0.626   3.241   7.098 -0.1347 -0.0935  0.0375
 4073TIP3    H133854   0.682   3.256   7.023 -2.1596  0.4275 -1.4709
 4073TIP3    H233855   0.628   3.146   7.111  0.9881 -0.0869 -0.0332
 4074TIP3   OH233856   5.100   6.552   7.931 -0.5691 -0.5692 -0.0856
 4074TIP3    H133857   5.027   6.499   7.898 -1.2853  0.1850  0.2485
 4074TIP3    H233858   5.060   6.607   7.998  0.4978 -0.7648  0.7213
 4075TIP3   OH233859   5.402   3.520   7.867 -0.2772 -0.0783 -0.2778
 4075TIP3    H133860   5.363   3.500   7.782 -1.1633  0.3637  0.0113
 4075TIP3    H233861   5.467   3.450   7.881 -1.8029 -1.5400 -0.2418
 4076TIP3   OH233862   3.757   0.785   6.166 -0.0130  0.0818 -0.3117
 4076TIP3    H133863   3.705   0.848   6.115 -0.1767 -0.5288 -0.9161
 4076TIP3    H233864   3.843   0.826   6.174 -0.5692  1.1193  0.7218
 4077TIP3   OH233865   2.574   1.996   0.674  0.3494 -0.9199  0.4479
 4077TIP3    H133866   2.603   1.961   0.759  1.9023 -0.0873  0.3096
 4077TIP3    H233867   2.656   2.022   0.631 -0.4176 -1.3708 -1.3302
 4078TIP3   OH233868   1.198   2.905   7.679 -0.6608 -0.3242 -0.4151
 4078TIP3    H133869   1.207   2.953   7.762  0.2105  0.7521 -1.1094
 4078TIP3    H233870   1.202   2.972   7.612  0.2538 -1.3445 -1.4116
 4079TIP3   OH233871   6.983   2.781   0.148  0.0715  0.2747 -0.2369
 4079TIP3    H133872   6.946   2.854   0.197 -2.4858 -1.5659  0.7724
 4079TIP3    H233873   6.930   2.778   0.067 -0.2974 -0.8118  0.0294
 4080TIP3   OH233874   1.247   6.598   0.618  0.4795  0.1123  0.2758
 4080TIP3    H133875   1.282   6.647   0.692  0.6099 -0.5930  0.6902
 4080TIP3    H233876   1.240   6.508   0.650  0.3986 -0.1729 -0.5225
 4081TIP3   OH233877   3.784   6.709   7.571  0.4198  0.0164 -0.2637
 4081TIP3    H133878   3.853   6.768   7.603  0.1940  0.5830 -0.8050
 4081TIP3    H233879   3.720   6.707   7.642  0.6821  0.0091 -0.0257
 4082TIP3   OH233880   1.869   4.724   7.847  0.4317  0.4772  0.1943
 4082TIP3    H133881   1.829   4.665   7.782 -0.0042  1.8655 -0.8393
 4082TIP3    H233882   1.946   4.676   7.878  0.4288 -0.3930 -1.0511
 4083TIP3   OH233883   2.647   5.655   0.299 -0.0725  0.0593 -0.1922
 4083TIP3    H133884   2.608   5.638   0.213  0.5554 -1.7381 -0.1665
 4083TIP3    H233885   2.647   5.570   0.342  0.3611  0.7835  1.2970
 4084TIP3   OH233886   4.814   0.525   7.377 -0.0223  0.1029  0.0055
 4084TIP3    H133887   4.865   0.548   7.300  0.2729  0.9442  0.4344
 4084TIP3    H233888   4.748   0.594   7.383 -0.4616 -0.3234  0.1312
 4085TIP3   OH233889   6.125   1.792   1.886 -0.8040 -0.1589  0.3473
 4085TIP3    H133890   6.211   1.772   1.924 -1.1715  0.5266  1.6061
 4085TIP3    H233891   6.072   1.715   1.904 -0.4681 -0.5810 -0.4265
 4086TIP3   OH233892   6.211   2.813   2.245  0.3379 -0.3644 -0.1789
 4086TIP3    H133893   6.158   2.734   2.244  1.7113 -1.3304 -0.0332
 4086TIP3    H233894   6.161   2.875   2.298  0.1279 -1.8018  1.3942
 4087TIP3   OH233895   0.729   2.865   5.920  0.1038 -0.2964  0.5253
 4087TIP3    H133896   0.638   2.849   5.943 -0.9200  1.2026 -1.9815
 4087TIP3    H233897   0.736   2.960   5.913  2.3129 -0.2662  2.1079
 4088TIP3   OH233898   0.550   5.033   7.199 -0.3208 -0.2643  0.7207
 4088TIP3    H133899   0.564   5.069   7.287  2.9564  0.8983 -0.1037
 4088TIP3    H233900   0.639   5.016   7.166 -1.4428 -1.1435 -2.1800
 4089TIP3   OH233901   4.809   0.217   0.958 -0.1176  0.0696  0.1002
 4089TIP3    H133902   4.756   0.190   1.033 -0.4330 -2.4249 -0.9293
 4089TIP3    H233903   4.872   0.279   0.994 -1.0380 -0.1239  2.1720
 4090TIP3   OH233904   1.275   1.730   0.249  0.3371  0.4264 -0.5549
 4090TIP3    H133905   1.193   1.764   0.283 -0.7861 -0.9983 -1.7266
 4090TIP3    H233906   1.268   1.635   0.257  1.5630  0.2394 -1.3667
 4091TIP3   OH233907   0.947   0.143   0.811  0.4487  0.1789  0.3833
 4091TIP3    H133908   1.014   0.097   0.759  2.0569  1.2331  1.4510
 4091TIP3    H233909   0.944   0.231   0.773 -0.0374  0.2688  0.6287
 4092TIP3   OH233910   5.240   2.367   7.351  0.1977  0.0700 -0.2522
 4092TIP3    H133911   5.241   2.378   7.255 -0.0570  0.7798 -0.1783
 4092TIP3    H233912   5.250   2.273   7.364  1.2821  0.0666 -0.9567
 4093TIP3   OH233913   6.344   5.138   8.028 -0.1557 -0.4229  0.5280
 4093TIP3    H133914   6.348   5.059   8.081 -0.2675 -0.4423  0.5085
 4093TIP3    H233915   6.264   5.182   8.056 -0.5558 -0.7593 -0.0801
 4094TIP3   OH233916   0.988   0.931   0.298 -0.3112 -0.2788  0.0839
 4094TIP3    H133917   0.967   1.024   0.296  2.8701  0.5587  0.1250
 4094TIP3    H233918   1.051   0.919   0.227 -0.0292 -2.2418  0.6003
 4095TIP3   OH233919   5.244   6.562   1.286  0.6973 -0.1559  0.3778
 4095TIP3    H133920   5.232   6.470   1.263  3.8961 -0.4497 -0.5915
 4095TIP3    H233921   5.300   6.560   1.364 -0.0638  1.0006  0.9787
 4096TIP3   OH233922   0.520   4.972   1.574  0.0128  0.1817 -0.7094
 4096TIP3    H133923   0.605   5.013   1.588  0.5155 -0.7760 -0.8614
 4096TIP3    H233924   0.457   5.044   1.579  0.8413  0.9200 -0.7209
 4097TIP3   OH233925   1.342   4.162   1.538  0.1101  0.6226  0.1556
 4097TIP3    H133926   1.279   4.100   1.574  0.1453  0.1553 -0.5751
 4097TIP3    H233927   1.316   4.247   1.574 -0.2022  0.2557  0.8092
 4098TIP3   OH233928   5.448   6.878   0.348 -0.3435  0.6614 -0.3454
 4098TIP3    H133929   5.509   6.926   0.405 -2.3344  2.7239  0.2110
 4098TIP3    H233930   5.489   6.882   0.261  1.2248  0.2475  0.3343
 4099TIP3   OH233931   3.428   5.538   7.748  0.1013  0.4308 -0.1807
 4099TIP3    H133932   3.357   5.489   7.790  0.5718 -1.1110 -1.1219
 4099TIP3    H233933   3.386   5.581   7.673  0.0282 -0.0657 -0.4349
 4100TIP3   OH233934   5.186   0.671   7.838 -0.3967  0.3408 -0.0636
 4100TIP3    H133935   5.266   0.706   7.878 -0.2112 -0.7749  0.5762
 4100TIP3    H233936   5.116   0.699   7.897 -0.4869  1.2497 -0.5819
 4101TIP3   OH233937   6.752   3.334   1.441  0.0028  0.1755 -0.0287
 4101TIP3    H133938   6.763   3.397   1.369  0.3653 -0.2785 -0.3757
 4101TIP3    H233939   6.781   3.250   1.404 -2.3038 -0.6149 -0.2084
 4102TIP3   OH233940   3.622   5.014   1.108 -0.1549 -0.0453 -0.2000
 4102TIP3    H133941   3.561   5.022   1.035 -0.5286  3.3323  0.3121
 4102TIP3    H233942   3.572   5.042   1.185  0.5607 -2.3928  1.2401
 4103TIP3   OH233943   0.611   2.612   2.487  0.1585  0.5477 -0.0144
 4103TIP3    H133944   0.700   2.590   2.515 -0.4866 -1.1074  0.8753
 4103TIP3    H233945   0.601   2.705   2.508  2.0469  1.0827 -1.2262
 4104TIP3   OH233946   4.253   5.885   0.100 -0.0626  0.5987  0.7409
 4104TIP3    H133947   4.247   5.825   0.025 -0.3816  0.5219  0.8277
 4104TIP3    H233948   4.345   5.879   0.128  0.6281  2.1436 -0.9023
 4105TIP3   OH233949   1.113   2.145   7.266 -0.1973  0.8142  0.7813
 4105TIP3    H133950   1.094   2.080   7.334 -0.5584  1.1631  1.0186
 4105TIP3    H233951   1.051   2.125   7.196  1.2990 -0.6353 -0.2065
 4106TIP3   OH233952   3.237   2.587   1.217 -0.2656 -0.2993  0.2810
 4106TIP3    H133953   3.227   2.558   1.308  0.1004 -0.3954  0.2903
 4106TIP3    H233954   3.293   2.521   1.176  0.1093  0.0891  0.1569
 4107TIP3   OH233955   2.823   2.199   0.363 -0.0553  0.4085  0.0106
 4107TIP3    H133956   2.911   2.224   0.390  0.0970  0.5777 -0.6427
 4107TIP3    H233957   2.799   2.128   0.423 -0.3647  1.8363  1.6756
 4108TIP3   OH233958   6.178   3.372   5.783 -0.4663 -0.0699  0.1062
 4108TIP3    H133959   6.123   3.433   5.734 -1.6834 -0.9995  0.2526
 4108TIP3    H233960   6.266   3.387   5.749 -0.5174  2.5003  0.8954
 4109TIP3   OH233961   3.215   6.284   5.864 -0.8007  0.1654 -0.0066
 4109TIP3    H133962   3.231   6.351   5.931 -1.2473 -0.1463  0.4221
 4109TIP3    H233963   3.251   6.203   5.901 -2.6983 -0.4121  0.7062
 4110TIP3   OH233964   2.695   2.774   1.267 -0.1783 -0.0211 -0.9478
 4110TIP3    H133965   2.706   2.836   1.340 -0.8389  0.2511 -1.0640
 4110TIP3    H233966   2.779   2.731   1.259  0.0559  0.3042 -0.3419
 4111TIP3   OH233967   4.826   1.819   7.270  0.2081 -0.4092  0.4043
 4111TIP3    H133968   4.912   1.782   7.250 -0.2335 -1.1917 -0.0961
 4111TIP3    H233969   4.777   1.747   7.309  0.2980  0.4748  2.2454
 4112TIP3   OH233970   3.954   5.731   1.380 -0.3964  0.3083  0.0196
 4112TIP3    H133971   3.892   5.664   1.351 -0.2830 -0.7573  2.0253
 4112TIP3    H233972   3.905   5.813   1.375 -1.2235 -0.2064 -0.5293
 4113TIP3   OH233973   1.215   3.782   1.868  0.1348 -0.1938 -0.1762
 4113TIP3    H133974   1.210   3.824   1.955 -0.2554  1.2695 -0.8724
 4113TIP3    H233975   1.266   3.703   1.883 -0.6435 -0.4263  1.5635
 4114TIP3   OH233976   0.615   1.189   6.816 -0.0869 -0.0828 -0.5626
 4114TIP3    H133977   0.539   1.197   6.874 -0.2684 -0.1859 -0.7801
 4114TIP3    H233978   0.624   1.275   6.776 -0.0032 -0.0307 -0.4311
 4115TIP3   OH233979   4.683   2.567   5.746  0.4730 -0.1230 -0.1473
 4115TIP3    H133980   4.610   2.506   5.741  1.1272 -1.1012  1.3790
 4115TIP3    H233981   4.762   2.512   5.745  1.0631  0.5670  1.9611
 4116TIP3   OH233982   6.831   5.154   7.530  0.6912  0.4607  0.0747
 4116TIP3    H133983   6.826   5.079   7.472  0.2001  0.3233  0.2868
 4116TIP3    H233984   6.888   5.126   7.601  1.0053  0.5064 -0.1574
 4117TIP3   OH233985   0.263   1.177   6.427 -0.2267  0.1125  0.2158
 4117TIP3    H133986   0.308   1.116   6.368 -0.4695  0.0606  0.0848
 4117TIP3    H233987   0.330   1.201   6.492  1.0627  2.5964 -1.8322
 4118TIP3   OH233988   0.168   2.473   7.271 -0.1937 -0.2862 -0.0312
 4118TIP3    H133989   0.174   2.489   7.177  1.2596 -0.2462  0.0459
 4118TIP3    H233990   0.246   2.515   7.308 -0.5473 -0.6174  1.1478
 4119TIP3   OH233991   0.400   0.124   1.084 -0.5776  0.8524  0.0758
 4119TIP3    H133992   0.488   0.105   1.053 -0.5386  1.8884 -0.4730
 4119TIP3    H233993   0.412   0.150   1.175 -0.3498  0.7863  0.0663
 4120TIP3   OH233994   2.292   2.642   1.761 -0.8021  0.3332 -0.5338
 4120TIP3    H133995   2.384   2.643   1.789 -0.9656  0.3217  0.0187
 4120TIP3    H233996   2.243   2.659   1.841 -1.4052 -1.8724 -0.3736
 4121TIP3   OH233997   1.870   1.918   6.508 -0.4032  0.0325 -0.6303
 4121TIP3    H133998   1.827   1.854   6.451  0.5687 -1.9231  0.7089
 4121TIP3    H233999   1.942   1.869   6.548 -0.1828  1.7266  1.1775
 4122TIP3   OH234000   4.605   2.544   7.619  0.3751 -0.4026  0.2356
 4122TIP3    H134001   4.649   2.529   7.703  1.8945 -1.8836 -0.7676
 4122TIP3    H234002   4.605   2.458   7.577  1.1168  0.6182 -1.9625
 4123TIP3   OH234003   5.547   4.324   1.653  0.3516 -0.2450 -0.3782
 4123TIP3    H134004   5.495   4.244   1.649  0.1335 -0.0715 -1.3970
 4123TIP3    H234005   5.516   4.377   1.579  0.4587  0.8076  0.3071
 4124TIP3   OH234006   5.442   4.574   7.664  0.3000 -0.3667 -0.0531
 4124TIP3    H134007   5.382   4.577   7.589  0.4988  0.5186 -0.1920
 4124TIP3    H234008   5.450   4.481   7.685 -1.4330 -0.4788  0.2299
 4125TIP3   OH234009   5.869   5.588   6.920 -0.2428 -0.2403 -0.0781
 4125TIP3    H134010   5.885   5.575   7.014 -1.9047 -1.5966  0.0619
 4125TIP3    H234011   5.895   5.504   6.880  0.2850  0.2658 -0.8335
 4126TIP3   OH234012   0.456   5.168   1.018  0.1772 -0.2998  0.3176
 4126TIP3    H134013   0.468   5.258   1.048 -0.9807 -0.2278  0.6066
 4126TIP3    H234014   0.474   5.172   0.924  1.5783 -0.0744  0.5771
 4127TIP3   OH234015   6.854   2.171   1.593 -0.0917 -0.1870  0.1259
 4127TIP3    H134016   6.833   2.224   1.669  1.8705  1.0302 -0.1282
 4127TIP3    H234017   6.896   2.231   1.532 -0.9046 -1.3008 -1.6316
 4128TIP3   OH234018   3.283   5.354   6.279 -0.5732  0.7430 -0.5702
 4128TIP3    H134019   3.328   5.438   6.289  0.4033  0.2393 -0.6203
 4128TIP3    H234020   3.353   5.290   6.273 -1.2856 -0.3319  1.5670
 4129TIP3   OH234021   5.153   4.219   5.921  0.4693  0.0944 -0.1208
 4129TIP3    H134022   5.222   4.216   5.855 -1.0243 -0.8092 -1.7408
 4129TIP3    H234023   5.168   4.301   5.968  3.8876 -1.0485  1.0639
 4130TIP3   OH234024   1.111   3.548   6.377 -0.8686  0.2457  0.1345
 4130TIP3    H134025   1.045   3.526   6.310 -0.2551 -2.3355  0.2752
 4130TIP3    H234026   1.127   3.466   6.423  1.4787  1.1067  1.0082
 4131TIP3   OH234027   6.015   2.981   0.159 -0.2543 -0.2164  0.2339
 4131TIP3    H134028   5.946   3.015   0.102 -0.9589 -0.3622  0.9870
 4131TIP3    H234029   5.982   2.898   0.190  1.2386 -1.4193 -1.1846
 4132TIP3   OH234030   3.388   4.711   0.925 -0.0166  0.1422  0.0962
 4132TIP3    H134031   3.342   4.793   0.943 -0.7521  0.0299 -1.1772
 4132TIP3    H234032   3.321   4.643   0.930 -0.1677  0.0354 -2.2510
 4133TIP3   OH234033   4.178   7.032   7.974  0.3254  0.6100 -0.7448
 4133TIP3    H134034   4.200   6.949   7.932 -0.3119 -0.1885  0.4441
 4133TIP3    H234035   4.191   7.016   8.068  1.5967  2.2987 -0.5762
 4134TIP3   OH234036   5.790   3.455   7.149  0.0238 -0.0846  0.0163
 4134TIP3    H134037   5.712   3.471   7.096 -0.4744  1.3055  1.0772
 4134TIP3    H234038   5.837   3.539   7.147  0.8508 -0.5312  0.4033
 4135TIP3   OH234039   0.762   2.196   7.927 -0.4717  0.2396  0.1117
 4135TIP3    H134040   0.801   2.193   7.839 -3.0652  0.1220 -1.1220
 4135TIP3    H234041   0.801   2.274   7.967  0.5785  0.4537 -1.2185
 4136TIP3   OH234042   6.106   5.369   0.188 -0.2829 -0.3035 -0.4980
 4136TIP3    H134043   6.051   5.447   0.179 -1.9102 -1.4546 -1.0574
 4136TIP3    H234044   6.099   5.325   0.103 -0.4579 -1.7124  0.2214
 4137TIP3   OH234045   1.673   1.783   7.031 -0.0401 -0.6139  0.2090
 4137TIP3    H134046   1.725   1.781   6.950 -0.3769  1.4703 -0.0975
 4137TIP3    H234047   1.664   1.690   7.055  0.4958 -1.2563 -1.8483
 4138TIP3   OH234048   1.225   3.942   1.246 -0.1881  0.6946 -0.2479
 4138TIP3    H134049   1.266   3.887   1.312  0.7434 -0.3833 -1.6517
 4138TIP3    H234050   1.212   3.883   1.171 -2.3049  1.5570 -0.6392
 4139TIP3   OH234051   1.733   2.295   6.823 -0.3890 -0.3197 -0.6033
 4139TIP3    H134052   1.777   2.233   6.764 -0.0253 -0.2524 -0.4087
 4139TIP3    H234053   1.646   2.307   6.785  0.9314  2.4497 -3.2157
 4140TIP3   OH234054   1.581   4.052   7.574 -0.3234  0.1516  0.4521
 4140TIP3    H134055   1.615   4.140   7.594  0.3983 -0.3382  1.4137
 4140TIP3    H234056   1.643   4.017   7.510  0.0573 -0.1018  0.9540
 4141TIP3   OH234057   0.513   2.659   2.236  0.3039  0.1293 -0.0239
 4141TIP3    H134058   0.571   2.615   2.174  1.0971  1.2745 -0.1411
 4141TIP3    H234059   0.569   2.679   2.311  0.2099  1.6205 -0.3077
 4142TIP3   OH234060   6.963   2.978   6.800 -0.2171  0.3917  0.0634
 4142TIP3    H134061   6.953   2.914   6.730  1.6208  1.2570 -1.0633
 4142TIP3    H234062   7.014   2.933   6.867 -0.0434  0.2792 -0.1459
 4143TIP3   OH234063   5.249   6.614   0.296 -0.2539  0.4678  0.1064
 4143TIP3    H134064   5.255   6.706   0.323  1.1136  0.9558 -1.6306
 4143TIP3    H234065   5.340   6.587   0.284 -0.6097 -1.3331  1.1655
 4144TIP3   OH234066   4.033   7.111   6.797 -0.6367 -0.2728 -0.5886
 4144TIP3    H134067   4.125   7.127   6.818 -0.6203  0.3008 -1.0698
 4144TIP3    H234068   4.005   7.045   6.860 -0.0428 -0.0471 -0.0801
 4145TIP3   OH234069   6.407   4.010   2.343 -0.4108  0.1587  0.6357
 4145TIP3    H134070   6.489   4.022   2.393 -0.3758 -0.3382  0.6967
 4145TIP3    H234071   6.431   4.031   2.253  0.0433 -0.9655  0.4736
 4146TIP3   OH234072   1.068   0.189   7.935 -0.0227  0.1231 -0.1573
 4146TIP3    H134073   1.129   0.244   7.886 -0.6570  0.5320 -0.5028
 4146TIP3    H234074   1.112   0.105   7.941  0.4563  0.3283 -0.6517
 4147TIP3   OH234075   3.516   1.753   0.913  0.3194  0.3893  0.2314
 4147TIP3    H134076   3.577   1.694   0.957  1.0165  1.6112  0.9345
 4147TIP3    H234077   3.538   1.840   0.946 -1.2333  0.9596 -0.1542
 4148TIP3   OH234078   1.360   2.910   0.328 -0.1410  0.5038 -0.0099
 4148TIP3    H134079   1.402   2.973   0.268 -1.9917 -1.0077 -3.1235
 4148TIP3    H234080   1.432   2.854   0.357  0.5238 -0.8476 -3.6958
 4149TIP3   OH234081   4.295   1.757   7.594 -0.2901 -0.0264 -0.2064
 4149TIP3    H134082   4.264   1.696   7.662  1.8535 -0.1687  0.7239
 4149TIP3    H234083   4.346   1.702   7.535 -0.3925  0.4682 -0.7517
 4150TIP3   OH234084   6.804   4.595   7.350  0.0841 -0.0570 -0.1564
 4150TIP3    H134085   6.782   4.688   7.345 -2.4796 -0.5771 -0.1230
 4150TIP3    H234086   6.777   4.560   7.265 -0.6839 -1.0697  0.4889
 4151TIP3   OH234087   4.706   3.716   1.573  1.4011 -0.2835  0.3829
 4151TIP3    H134088   4.649   3.639   1.575  3.8006 -2.1695  0.1844
 4151TIP3    H234089   4.793   3.683   1.594  2.5283  2.4378  0.4947
 4152TIP3   OH234090   5.259   3.263   0.550  0.6864  0.0335 -0.1506
 4152TIP3    H134091   5.342   3.248   0.595  1.1460 -1.2527 -1.3497
 4152TIP3    H234092   5.195   3.212   0.599  0.7528  0.3816  0.3034
 4153TIP3   OH234093   1.482   4.457   0.523 -0.1614 -0.0543 -0.0774
 4153TIP3    H134094   1.540   4.384   0.546 -0.7191 -1.5583 -2.9440
 4153TIP3    H234095   1.508   4.528   0.582  2.2563 -1.6997  1.0125
 4154TIP3   OH234096   6.147   4.178   1.622 -0.2429  0.0119 -0.1922
 4154TIP3    H134097   6.132   4.227   1.702 -0.0661  0.2081 -0.2793
 4154TIP3    H234098   6.189   4.240   1.563  0.9913 -0.5412  0.0670
 4155TIP3   OH234099   3.476   5.165   6.231 -0.3394 -0.4315  0.4370
 4155TIP3    H134100   3.392   5.124   6.209 -1.3468  1.4363  0.6223
 4155TIP3    H234101   3.526   5.096   6.275 -2.6858 -0.9712  2.4484
 4156TIP3   OH234102   5.273   6.500   6.996  0.2982  0.6778 -0.8545
 4156TIP3    H134103   5.216   6.542   6.933 -2.0466 -0.7370  0.1662
 4156TIP3    H234104   5.301   6.570   7.054 -1.3513  1.3003 -0.7495
 4157TIP3   OH234105   2.081   5.306   0.622  0.3054 -0.0866  0.3810
 4157TIP3    H134106   2.027   5.247   0.570  0.7283 -1.5070  1.5004
 4157TIP3    H234107   2.051   5.394   0.598 -0.6600 -0.7546 -0.9698
 4158TIP3   OH234108   2.553   6.869   6.838  0.0515 -0.2653  0.3220
 4158TIP3    H134109   2.545   6.862   6.743 -2.7495 -0.3989  0.4669
 4158TIP3    H234110   2.515   6.787   6.871 -0.5632  0.4785  1.5424
 4159TIP3   OH234111   3.824   6.132   7.523  0.2684  0.1811  0.2589
 4159TIP3    H134112   3.810   6.072   7.596  0.3250  0.5797  0.6053
 4159TIP3    H234113   3.836   6.076   7.447  3.6514 -0.4225  1.0711
 4160TIP3   OH234114   2.302   2.454   6.181 -0.8813  0.2687 -0.2195
 4160TIP3    H134115   2.330   2.485   6.267  0.2653  0.0615 -0.5040
 4160TIP3    H234116   2.266   2.532   6.138 -0.5189  0.5960  0.0700
 4161TIP3   OH234117   2.229   0.741   2.159 -0.6377  0.0843 -0.2302
 4161TIP3    H134118   2.306   0.685   2.148  0.1478  1.1749 -0.5466
 4161TIP3    H234119   2.245   0.787   2.242 -1.5096 -0.5213  0.2769
 4162TIP3   OH234120   3.828   6.852   1.340  0.6347 -0.4711 -0.0717
 4162TIP3    H134121   3.850   6.765   1.306  1.5458 -0.4906  0.5279
 4162TIP3    H234122   3.890   6.866   1.411  1.3402  1.1867 -0.9511
 4163TIP3   OH234123   4.811   6.269   6.413  0.3542  0.6087  0.0012
 4163TIP3    H134124   4.817   6.362   6.436  1.9480  0.8855 -1.3722
 4163TIP3    H234125   4.901   6.238   6.412 -0.1182 -0.8231 -0.1298
 4164TIP3   OH234126   6.027   1.914   1.629  0.8264 -0.5157 -0.0710
 4164TIP3    H134127   6.060   2.001   1.610  0.6377 -0.1649  1.1414
 4164TIP3    H234128   6.103   1.866   1.662  0.9130 -0.8047 -0.6663
 4165TIP3   OH234129   5.244   4.829   5.791 -0.2612 -0.2623 -0.0510
 4165TIP3    H134130   5.318   4.783   5.751  0.7911  0.4021  1.0812
 4165TIP3    H234131   5.183   4.759   5.816  0.3179 -0.8738 -0.3220
 4166TIP3   OH234132   2.874   0.067   0.421  0.0471 -0.3420  0.0985
 4166TIP3    H134133   2.902   0.040   0.508  2.0726  2.1668  0.3631
 4166TIP3    H234134   2.810   0.137   0.438  2.4265  2.0840 -0.2187
 4167TIP3   OH234135   0.807   4.059   1.861 -0.2879  0.2843 -0.0537
 4167TIP3    H134136   0.758   4.006   1.923 -0.5965 -1.0685 -1.3690
 4167TIP3    H234137   0.761   4.046   1.777  1.3381  0.2842 -0.9907
 4168TIP3   OH234138   5.786   1.771   1.406 -0.5017 -0.6673 -0.3574
 4168TIP3    H134139   5.845   1.715   1.354 -0.1230  0.0620 -0.7190
 4168TIP3    H234140   5.700   1.756   1.367 -0.7517 -2.4915  0.7989
 4169TIP3   OH234141   2.301   0.314   6.849  0.4204  0.4792 -0.3050
 4169TIP3    H134142   2.225   0.303   6.791  1.6344  0.4148 -1.9705
 4169TIP3    H234143   2.272   0.280   6.933 -0.9609 -0.8323 -1.2521
 4170TIP3   OH234144   3.961   4.330   7.061 -0.2434  0.7139 -0.3479
 4170TIP3    H134145   4.048   4.348   7.095  0.3121  0.3190 -1.5391
 4170TIP3    H234146   3.904   4.393   7.107  0.4810  0.2742  1.2077
 4171TIP3   OH234147   4.334   3.033   7.039 -0.3635  0.0619 -0.7350
 4171TIP3    H134148   4.392   3.019   7.114 -1.3036 -0.2252 -0.0522
 4171TIP3    H234149   4.389   3.080   6.975  1.1174 -1.6702 -0.7972
 4172TIP3   OH234150   5.550   2.239   7.848  0.1867  0.9113  0.3296
 4172TIP3    H134151   5.536   2.206   7.937 -1.2889 -0.2245 -0.2797
 4172TIP3    H234152   5.632   2.288   7.854  0.6599  0.0171  2.0934
 4173TIP3   OH234153   5.030   2.693   1.250 -0.3533  0.1060 -0.1968
 4173TIP3    H134154   5.021   2.613   1.197  1.6964  0.0723 -0.5577
 4173TIP3    H234155   5.010   2.664   1.339  1.3399 -1.0818 -0.1615
 4174TIP3   OH234156   3.259   0.618   1.040  0.1508  0.6376  0.0467
 4174TIP3    H134157   3.195   0.552   1.066 -0.7132  0.6645 -1.8701
 4174TIP3    H234158   3.344   0.575   1.051 -0.3999 -0.8543 -1.1981
 4175TIP3   OH234159   4.973   6.255   6.761  0.2698 -0.1482  0.2387
 4175TIP3    H134160   5.003   6.345   6.751  1.4009 -0.6760 -1.8512
 4175TIP3    H234161   4.878   6.260   6.752  0.2911  0.8734  0.5354
 4176TIP3   OH234162   2.160   1.673   6.924 -0.4628 -0.0656  0.6453
 4176TIP3    H134163   2.143   1.730   6.849 -2.3576 -0.3399  0.8373
 4176TIP3    H234164   2.255   1.678   6.936 -0.3960  1.8913 -0.2586
 4177TIP3   OH234165   1.624   1.914   7.251  0.0842 -1.0577 -0.0686
 4177TIP3    H134166   1.531   1.900   7.231 -0.0017 -0.2685 -0.2649
 4177TIP3    H234167   1.670   1.889   7.171 -0.1730  0.9830 -0.9248
 4178TIP3   OH234168   3.606   5.965   0.146  0.6217  0.0408  0.3438
 4178TIP3    H134169   3.685   6.008   0.112 -0.2066  2.3158  1.0931
 4178TIP3    H234170   3.548   5.956   0.070  2.1082 -3.2035 -0.5930
 4179TIP3   OH234171   4.926   0.461   2.132  0.0841 -0.1665  0.3725
 4179TIP3    H134172   4.868   0.423   2.198 -0.0291 -1.1360 -0.2593
 4179TIP3    H234173   4.895   0.551   2.121  0.0999  0.0069  1.6123
 4180TIP3   OH234174   4.716   1.472   8.098  0.2213  0.3411  0.1705
 4180TIP3    H134175   4.657   1.398   8.113  1.3492 -0.3338  1.5484
 4180TIP3    H234176   4.665   1.532   8.044 -1.0154 -1.0754 -0.3327
 4181TIP3   OH234177   0.065   5.209   7.450 -0.5415 -1.2319 -0.1024
 4181TIP3    H134178  -0.022   5.228   7.416  0.8831 -0.0024 -3.4397
 4181TIP3    H234179   0.078   5.116   7.435 -0.6505 -1.0662 -1.2628
 4182TIP3   OH234180   0.697   0.023   7.750  0.3345 -0.4246 -0.0440
 4182TIP3    H134181   0.617  -0.011   7.710 -0.8896  1.3804  0.7084
 4182TIP3    H234182   0.747   0.060   7.677  1.0709 -2.5480 -0.6757
 4183TIP3   OH234183   2.585   0.881   7.552  0.1967  0.2594  0.2276
 4183TIP3    H134184   2.595   0.799   7.601  1.0418 -0.2304 -0.7325
 4183TIP3    H234185   2.529   0.857   7.478 -1.8403  1.2023  1.3842
 4184TIP3   OH234186   1.765   2.159   0.981 -0.1340 -0.2683 -0.1825
 4184TIP3    H134187   1.711   2.080   0.974 -0.5939 -0.0614  0.8877
 4184TIP3    H234188   1.703   2.231   0.969  0.0647 -0.0470  0.1253
 4185TIP3   OH234189   3.945   7.112   0.009 -0.4950  0.2854  0.0628
 4185TIP3    H134190   3.883   7.044  -0.016  0.2559  0.1774 -1.6521
 4185TIP3    H234191   4.025   7.064   0.032 -1.0563  0.4024  2.5530
 4186TIP3   OH234192   3.135   0.730   6.435  0.0606  0.0296 -0.2943
 4186TIP3    H134193   3.206   0.775   6.480 -0.0460  1.0010 -1.0635
 4186TIP3    H234194   3.177   0.658   6.388  0.3169 -0.3221  0.4709
 4187TIP3   OH234195   6.907   6.806   7.839 -0.1554 -0.5627 -0.0470
 4187TIP3    H134196   6.906   6.856   7.758  0.1610  0.1013  0.3514
 4187TIP3    H234197   6.960   6.858   7.899 -3.2673  0.7740  1.7500
 4188TIP3   OH234198   5.614   5.050   7.246  0.4538 -0.4652 -0.0451
 4188TIP3    H134199   5.567   5.061   7.163  2.1369  1.3509 -0.8268
 4188TIP3    H234200   5.565   5.103   7.308  1.4062  1.4576 -0.8662
 4189TIP3   OH234201   1.561   2.339   7.786  0.0137 -0.5385 -0.2092
 4189TIP3    H134202   1.470   2.365   7.798 -0.1492 -0.2313 -1.8673
 4189TIP3    H234203   1.609   2.386   7.854 -0.9297  0.0874  0.0397
 4190TIP3   OH234204   5.795   5.596   0.646  0.0180  0.2188  0.1583
 4190TIP3    H134205   5.776   5.522   0.704  2.4132  0.4744  1.3793
 4190TIP3    H234206   5.817   5.556   0.562 -2.0354 -0.2208 -0.2406
 4191TIP3   OH234207   2.073   5.908   7.637  0.2222 -0.1040  0.4207
 4191TIP3    H134208   2.099   5.863   7.718  2.4552  0.7166  0.2254
 4191TIP3    H234209   2.037   5.992   7.667  1.6255  0.4679  0.5961
 4192TIP3   OH234210   5.149   3.446   7.338  0.2461 -0.8518  0.3774
 4192TIP3    H134211   5.151   3.387   7.414  1.1458 -0.0610  0.9894
 4192TIP3    H234212   5.069   3.498   7.351  1.1506  0.2985  1.6120
 4193TIP3   OH234213   0.498   6.559   2.145  0.2145  0.0890 -0.3836
 4193TIP3    H134214   0.411   6.521   2.157  0.3935  0.2045  1.5700
 4193TIP3    H234215   0.493   6.644   2.189  0.8946  0.7670 -1.5596
 4194TIP3   OH234216   3.940   1.836   7.620 -0.3801  0.1068 -0.0768
 4194TIP3    H134217   3.957   1.858   7.529 -1.2665 -2.9337 -1.1069
 4194TIP3    H234218   3.856   1.789   7.618  0.6576 -2.0279  1.9052
 4195TIP3   OH234219   3.595   6.411   7.376 -0.3597 -0.1771  0.0640
 4195TIP3    H134220   3.534   6.480   7.400  0.3502  0.5658 -0.2372
 4195TIP3    H234221   3.661   6.413   7.445 -0.1425 -0.3194 -0.1401
 4196TIP3   OH234222   1.271   5.691   1.941  0.5152  0.2119  0.1483
 4196TIP3    H134223   1.303   5.636   2.013  1.5198  0.8188  0.1867
 4196TIP3    H234224   1.319   5.660   1.864  0.3096  0.3412 -0.0332
 4197TIP3   OH234225   2.176   0.877   2.411 -0.4187  0.1390 -0.0992
 4197TIP3    H134226   2.115   0.950   2.409  0.1385  0.6162  0.1028
 4197TIP3    H234227   2.255   0.913   2.451 -0.4162 -0.7788  0.7704
 4198TIP3   OH234228   3.028   4.740   2.018 -0.1878 -0.0056 -0.3367
 4198TIP3    H134229   3.071   4.811   1.970  1.0260  1.0655  2.1611
 4198TIP3    H234230   3.049   4.757   2.109 -1.9852 -2.2148  0.5720
 4199TIP3   OH234231   2.782   5.027   1.846 -0.0471  0.4442  0.2014
 4199TIP3    H134232   2.744   5.112   1.872 -1.3130  0.0039 -0.1053
 4199TIP3    H234233   2.789   4.978   1.928 -0.4669  0.4198  0.2278
 4200TIP3   OH234234   5.367   7.032   6.918  0.4277 -0.0423  0.1392
 4200TIP3    H134235   5.350   7.067   6.830 -1.7035 -0.2316  0.4147
 4200TIP3    H234236   5.302   7.076   6.973  1.9692  0.3649  1.7351
 4201TIP3   OH234237   3.040   5.199   6.956  0.4332 -0.4212  0.3131
 4201TIP3    H134238   3.102   5.254   7.005 -1.2136  0.8673  1.0719
 4201TIP3    H234239   3.022   5.125   7.015  1.2312 -0.7973  0.0907
 4202TIP3   OH234240   2.849   0.678   1.757  0.1708  0.0749  0.1608
 4202TIP3    H134241   2.776   0.677   1.818 -0.5597 -1.5274 -0.6751
 4202TIP3    H234242   2.924   0.708   1.809 -1.0012  1.5365  1.0802
 4203TIP3   OH234243   2.011   4.346   0.625 -0.3856 -0.0659 -0.1797
 4203TIP3    H134244   1.970   4.283   0.566 -0.2252  0.4840 -0.9070
 4203TIP3    H234245   2.101   4.353   0.593  0.5166 -1.7028  1.7522
 4204TIP3   OH234246   2.940   2.434   7.699  0.0468 -0.5743  0.2536
 4204TIP3    H134247   2.882   2.415   7.772  0.2318 -1.3632  0.1987
 4204TIP3    H234248   3.010   2.488   7.737 -0.0100 -0.7399  0.5956
 4205TIP3   OH234249   4.188   5.409   0.928 -0.2616  0.0843 -0.0142
 4205TIP3    H134250   4.159   5.449   1.010  0.2849 -0.6802  0.5691
 4205TIP3    H234251   4.113   5.358   0.898  0.2225 -1.3931  1.1720
 4206TIP3   OH234252   2.200   0.488   6.187 -0.1606 -0.1211  0.0604
 4206TIP3    H134253   2.143   0.488   6.264  0.7126 -1.6972  0.7481
 4206TIP3    H234254   2.281   0.448   6.217  0.5693  0.1697 -1.4331
 4207TIP3   OH234255   6.621   0.497   0.593 -0.2453 -0.5518  0.3690
 4207TIP3    H134256   6.698   0.446   0.618 -1.1842 -1.9995  0.4049
 4207TIP3    H234257   6.598   0.465   0.506 -0.1355  0.7020 -0.1440
 4208TIP3   OH234258   3.159   3.204   7.506  0.6317 -0.1761 -0.2099
 4208TIP3    H134259   3.102   3.193   7.430  3.3696 -0.6382 -2.3784
 4208TIP3    H234260   3.160   3.299   7.521  0.4141 -0.0279 -1.0633
 4209TIP3   OH234261   6.144   1.538   0.413 -0.4477 -0.5074  0.4363
 4209TIP3    H134262   6.223   1.487   0.435 -0.8219 -1.0592  0.5154
 4209TIP3    H234263   6.126   1.515   0.321  1.4273  2.1999 -0.7507
 4210TIP3   OH234264   5.389   2.072   0.308  0.6669  0.3249  0.0117
 4210TIP3    H134265   5.473   2.117   0.301 -0.1904  2.1026  0.4862
 4210TIP3    H234266   5.327   2.129   0.262 -0.4924 -0.3097  0.7261
 4211TIP3   OH234267   0.339   2.503   0.933  0.0118  0.4262  0.0576
 4211TIP3    H134268   0.268   2.566   0.945 -2.1454 -1.4378 -1.9541
 4211TIP3    H234269   0.358   2.507   0.839  1.6088 -0.1501  0.3331
 4212TIP3   OH234270   0.249   0.735   0.324  0.4674 -0.1344  0.3456
 4212TIP3    H134271   0.236   0.769   0.236 -1.0226  0.4189  0.7475
 4212TIP3    H234272   0.317   0.791   0.362 -1.1480  1.7669  0.6114
 4213TIP3   OH234273   4.545   2.352   0.273  0.1606  0.0381 -0.2421
 4213TIP3    H134274   4.623   2.335   0.221 -0.9123  0.8106 -2.1965
 4213TIP3    H234275   4.542   2.280   0.336  1.2205 -1.2539 -1.6051
 4214TIP3   OH234276   2.785   5.889   7.307  0.3857  0.0251 -0.1660
 4214TIP3    H134277   2.755   5.979   7.316  0.7376  0.2465 -1.0629
 4214TIP3    H234278   2.728   5.839   7.365 -0.1499  0.7558 -0.0420
 4215TIP3   OH234279   4.291   1.835   0.160 -0.0730 -0.2473  0.3134
 4215TIP3    H134280   4.365   1.783   0.191  0.4084 -1.0241 -1.9407
 4215TIP3    H234281   4.275   1.802   0.071 -0.4465  2.7528 -0.8211
 4216TIP3   OH234282   0.757   6.906   8.089  0.1580 -0.0949  0.5697
 4216TIP3    H134283   0.804   6.828   8.061 -0.6051 -0.6912  0.9193
 4216TIP3    H234284   0.776   6.914   8.182 -1.1365 -0.8774  0.9358
 4217TIP3   OH234285   0.265   1.660   6.122  0.3323  0.5168  0.2022
 4217TIP3    H134286   0.208   1.585   6.136  0.0732  0.6154 -0.2892
 4217TIP3    H234287   0.316   1.667   6.202 -1.3336  1.2905  1.2497
 4218TIP3   OH234288   1.701   5.217   0.792 -0.1039  0.2936  0.2135
 4218TIP3    H134289   1.684   5.250   0.880  0.9482  0.3360  0.4059
 4218TIP3    H234290   1.727   5.294   0.742 -2.8164  0.6996 -0.7562
 4219TIP3   OH234291   6.554   5.516   6.464  0.4245 -0.0807 -0.2396
 4219TIP3    H134292   6.470   5.521   6.510  0.8836 -2.0220  0.9237
 4219TIP3    H234293   6.578   5.607   6.448 -2.0207  0.5297 -0.8755
 4220TIP3   OH234294   2.220   6.031   0.072  0.8576 -0.5011 -0.2243
 4220TIP3    H134295   2.168   6.071   0.002  0.6382  0.3153  0.3972
 4220TIP3    H234296   2.171   6.047   0.152  0.9513 -1.7080  0.0981
 4221TIP3   OH234297   5.943   6.696   1.330  0.3281  0.2519 -0.2332
 4221TIP3    H134298   5.993   6.631   1.379  0.2631 -0.5721 -1.2304
 4221TIP3    H234299   5.992   6.777   1.341  1.3239 -0.3217 -0.3412
 4222TIP3   OH234300   4.092   0.990   7.743  0.2099 -0.3452  0.4282
 4222TIP3    H134301   4.120   1.078   7.719 -3.7090  1.4260  1.5726
 4222TIP3    H234302   4.135   0.972   7.826  1.3421  0.2711 -0.0037
 4223TIP3   OH234303   3.828   3.177   7.124  0.1234  0.0004  0.1244
 4223TIP3    H134304   3.798   3.089   7.101 -2.4016  0.4262  1.4683
 4223TIP3    H234305   3.817   3.228   7.044  2.2814 -0.9995 -0.8760
 4224TIP3   OH234306   6.860   3.088   1.339 -0.4489  0.0686  0.2237
 4224TIP3    H134307   6.787   3.025   1.337  0.5790 -1.1738  0.5097
 4224TIP3    H234308   6.900   3.080   1.252 -0.4147  0.4606  0.2043
 4225TIP3   OH234309   1.662   4.351   0.024 -0.7017  0.2342 -0.0056
 4225TIP3    H134310   1.597   4.304   0.075  1.3368 -2.9344 -0.0330
 4225TIP3    H234311   1.614   4.425  -0.015 -3.8628 -1.0928  1.0760
 4226TIP3   OH234312   2.681   5.414   6.764 -0.2599  0.0920 -0.1173
 4226TIP3    H134313   2.728   5.488   6.725  0.6673 -0.9665 -1.0688
 4226TIP3    H234314   2.597   5.452   6.792 -1.0991  0.9380 -3.3385
 4227TIP3   OH234315   2.212   6.868   6.370  0.0024 -0.4185  0.7442
 4227TIP3    H134316   2.294   6.869   6.320 -2.3687  2.3158 -3.8097
 4227TIP3    H234317   2.183   6.778   6.365  1.7633 -1.0356  0.7300
 4228TIP3   OH234318   1.024   4.479   7.757  0.0849 -0.3953  0.1087
 4228TIP3    H134319   1.082   4.451   7.828 -0.4692  0.4471  0.9147
 4228TIP3    H234320   0.942   4.502   7.801 -0.1758  0.4302 -0.7749
 4229TIP3   OH234321   3.832   1.352   1.202  0.0087 -0.4108 -0.1673
 4229TIP3    H134322   3.923   1.366   1.226  0.0479 -1.6447  0.4928
 4229TIP3    H234323   3.834   1.279   1.140 -0.4768  0.0164 -0.6991
 4230TIP3   OH234324   4.127   0.884   0.168 -0.3073  0.3445 -0.3913
 4230TIP3    H134325   4.035   0.887   0.144 -1.2891  0.5287  2.8587
 4230TIP3    H234326   4.165   0.817   0.111 -2.9232 -1.2124 -0.4436
 4231TIP3   OH234327   2.532   5.603   1.526  0.1921  0.0619  0.0684
 4231TIP3    H134328   2.608   5.546   1.538  0.0126 -0.5182 -1.3143
 4231TIP3    H234329   2.462   5.560   1.574  0.8474  0.9070  1.8495
 4232TIP3   OH234330   6.298   3.100   0.518 -0.1906 -0.4048 -0.3366
 4232TIP3    H134331   6.241   3.143   0.581 -0.6067 -1.4587  0.0411
 4232TIP3    H234332   6.261   3.122   0.432 -0.5299 -0.1998 -0.1377
 4233TIP3   OH234333   6.551   2.030   0.593  0.3738  0.1750  0.3652
 4233TIP3    H134334   6.548   2.122   0.568  2.9225  1.1136  2.9328
 4233TIP3    H234335   6.632   1.997   0.554  0.8170 -0.2063  1.5582
 4234TIP3   OH234336   4.256   2.194   0.620  0.1032 -0.4784  0.4328
 4234TIP3    H134337   4.285   2.183   0.710  1.0307  3.1741  0.7104
 4234TIP3    H234338   4.335   2.180   0.567 -0.5173 -2.9986  0.0534
 4235TIP3   OH234339   6.398   2.035   1.831 -0.0161 -0.1222 -0.3946
 4235TIP3    H134340   6.408   2.125   1.801 -0.0225  1.2507  3.2075
 4235TIP3    H234341   6.479   2.016   1.878 -0.0918 -1.9597 -0.9295
 4236TIP3   OH234342   6.218   7.036   7.968 -0.2455  0.0250 -0.1288
 4236TIP3    H134343   6.261   6.976   8.030  1.4653  1.1513 -0.1487
 4236TIP3    H234344   6.272   7.032   7.890 -0.0458  1.6321 -0.0975
 4237TIP3   OH234345   0.164   3.783   2.042  0.0717 -0.0380  0.2074
 4237TIP3    H134346   0.086   3.835   2.063 -0.7734 -1.4780  0.7795
 4237TIP3    H234347   0.235   3.847   2.042 -1.1180  1.3515 -0.5283
 4238TIP3   OH234348   2.985   6.332   1.514 -0.2808  0.1472  1.1736
 4238TIP3    H134349   3.016   6.374   1.594 -1.6796  2.2334  0.7140
 4238TIP3    H234350   2.971   6.405   1.453  2.5008 -1.4836 -1.6612
 4239TIP3   OH234351   0.887   1.505   0.080  0.0294  0.3637  0.0874
 4239TIP3    H134352   0.912   1.579   0.136  1.4994 -0.1566  0.1375
 4239TIP3    H234353   0.969   1.473   0.043 -0.8695  0.6215 -2.3245
 4240TIP3   OH234354   2.382   4.331   7.183  0.2599 -0.9197  0.1579
 4240TIP3    H134355   2.330   4.381   7.247  0.3520 -0.4501 -0.1280
 4240TIP3    H234356   2.317   4.282   7.133  0.1993 -1.4217  0.7226
 4241TIP3   OH234357   1.390   3.544   6.353 -0.5406  0.2279  0.6452
 4241TIP3    H134358   1.313   3.598   6.332  0.6108  1.0800 -1.7172
 4241TIP3    H234359   1.358   3.454   6.348 -1.9431  0.5688  2.2990
 4242TIP3   OH234360   0.584   3.475   7.566  0.7612  0.6171 -0.1021
 4242TIP3    H134361   0.630   3.494   7.484  1.3000  2.5742  0.5881
 4242TIP3    H234362   0.652   3.444   7.625  0.1863 -1.9174 -0.6644
 4243TIP3   OH234363   0.563   0.754   6.689  0.4528  0.4535  0.2028
 4243TIP3    H134364   0.639   0.795   6.731  1.9454  0.2987 -2.1827
 4243TIP3    H234365   0.532   0.820   6.627  0.7564 -0.7138 -1.2363
 4244TIP3   OH234366   2.543   2.062   6.706 -0.1147 -0.2565  0.0005
 4244TIP3    H134367   2.473   2.125   6.687  0.0077 -0.5931 -1.7167
 4244TIP3    H234368   2.600   2.066   6.630 -0.9803 -3.6263 -1.0213
 4245TIP3   OH234369   5.661   0.232   7.172  0.0200  0.3193  0.4868
 4245TIP3    H134370   5.644   0.260   7.082  0.8711 -0.1106  0.1798
 4245TIP3    H234371   5.598   0.162   7.188 -0.2634  0.5313  0.2909
 4246TIP3   OH234372   4.307   4.071   7.594  0.0857  0.0455  1.0475
 4246TIP3    H134373   4.234   4.121   7.631 -1.0823 -1.7422  1.3030
 4246TIP3    H234374   4.356   4.135   7.542 -2.0010  1.2169  0.3745
 4247TIP3   OH234375   5.905   0.542   7.009  0.6105  0.9740 -0.8452
 4247TIP3    H134376   5.993   0.549   6.970  1.4948  2.9628  1.3147
 4247TIP3    H234377   5.921   0.518   7.100 -1.1288  1.0810 -0.4853
 4248TIP3   OH234378   3.860   5.513   2.446 -0.2480 -1.1349 -0.3508
 4248TIP3    H134379   3.772   5.548   2.430 -0.3136 -1.8003 -1.5522
 4248TIP3    H234380   3.917   5.562   2.386  0.5949  0.7454  1.8287
 4249TIP3   OH234381   3.344   2.866   1.047 -0.6833  0.0957  0.1390
 4249TIP3    H134382   3.268   2.818   1.013  0.5704 -0.8825 -1.4390
 4249TIP3    H234383   3.362   2.933   0.981  1.3198 -1.3268 -0.8820
 4250TIP3   OH234384   3.333   5.721   0.223 -0.3789  0.0372 -0.3500
 4250TIP3    H134385   3.387   5.668   0.163  0.4733  1.7651 -1.2047
 4250TIP3    H234386   3.376   5.711   0.308 -0.1156 -0.4808 -0.5341
 4251TIP3   OH234387   7.082   6.660   1.114 -0.6522 -0.3132 -0.0478
 4251TIP3    H134388   7.171   6.625   1.112 -0.6016 -0.2425 -2.5717
 4251TIP3    H234389   7.092   6.753   1.136  0.0191 -0.1268 -1.0661
 4252TIP3   OH234390   1.584   6.631   1.629 -0.0106  0.3373  0.1835
 4252TIP3    H134391   1.615   6.553   1.676 -1.9473  0.0631  1.0852
 4252TIP3    H234392   1.613   6.704   1.683 -1.2005  0.0690  1.2126
 4253TIP3   OH234393   6.761   4.784   7.042  0.9131  0.0696 -0.0035
 4253TIP3    H134394   6.727   4.701   7.075 -1.6064  0.4351 -1.4044
 4253TIP3    H234395   6.770   4.839   7.119 -1.0053 -0.3421  0.5702
 4254TIP3   OH234396   6.422   5.168   0.256  0.4029 -0.2459 -0.1638
 4254TIP3    H134397   6.329   5.147   0.257  0.7140 -1.7149  0.9961
 4254TIP3    H234398   6.449   5.163   0.348  1.5709  0.4744 -0.4401
 4255TIP3   OH234399   3.913   3.780   1.548 -0.2563 -0.4649 -0.1758
 4255TIP3    H134400   3.830   3.749   1.586 -0.1672 -1.3808 -0.6984
 4255TIP3    H234401   3.972   3.705   1.555  1.7630  1.2012  3.5680
 4256TIP3   OH234402   1.243   7.069   6.691 -0.7198 -0.0148  0.3214
 4256TIP3    H134403   1.277   7.107   6.611 -1.9310 -1.5346 -0.9893
 4256TIP3    H234404   1.155   7.105   6.700 -1.9621 -2.4613 -1.0479
 4257TIP3   OH234405   4.515   5.336   1.602 -0.3179 -0.0490  0.3187
 4257TIP3    H134406   4.437   5.370   1.558 -0.5300 -1.9263 -0.8603
 4257TIP3    H234407   4.481   5.291   1.680 -0.1370  1.3969  1.2649
 4258TIP3   OH234408   0.807   4.045   7.243  0.2049  0.6909  0.3744
 4258TIP3    H134409   0.843   4.021   7.328 -1.0166 -1.2131  0.4168
 4258TIP3    H234410   0.713   4.024   7.250  0.2334 -0.3193 -1.6901
 4259TIP3   OH234411   3.590   2.503   6.437  0.2105  0.4040  0.1347
 4259TIP3    H134412   3.529   2.432   6.417  0.3500  0.2040  0.4180
 4259TIP3    H234413   3.675   2.471   6.406  0.3323  0.3132  0.5641
 4260TIP3   OH234414   1.583   1.168   7.219 -0.5153 -0.2912 -0.2379
 4260TIP3    H134415   1.498   1.167   7.175 -0.3321 -0.4616 -0.5885
 4260TIP3    H234416   1.576   1.241   7.281 -1.1181 -0.6633  0.1457
 4261TIP3   OH234417   4.832   1.663   1.087  0.0102  0.4820 -0.0876
 4261TIP3    H134418   4.751   1.662   1.138 -1.3557  0.6392 -2.1276
 4261TIP3    H234419   4.821   1.592   1.024  1.6763  0.2469 -0.1606
 4262TIP3   OH234420   2.557   0.413   8.127 -0.0994 -0.2356  0.2021
 4262TIP3    H134421   2.564   0.317   8.130 -0.0049 -0.2170  0.8681
 4262TIP3    H234422   2.574   0.440   8.217  2.8060  0.6109 -0.5148
 4263TIP3   OH234423   4.742   3.114   2.353  0.2799 -0.0490 -0.4255
 4263TIP3    H134424   4.687   3.180   2.312 -0.8311 -1.6841 -1.6888
 4263TIP3    H234425   4.752   3.144   2.443 -1.5267  1.0245 -0.5290
 4264TIP3   OH234426   0.555   2.761   7.633 -0.1658  0.3036 -0.1672
 4264TIP3    H134427   0.620   2.696   7.661  0.2028  0.6985 -0.0985
 4264TIP3    H234428   0.527   2.803   7.714 -0.7689 -0.1047 -0.1598
 4265TIP3   OH234429   4.865   3.211   0.808  0.2105  0.4124  0.3265
 4265TIP3    H134430   4.866   3.265   0.728 -2.5722 -0.2764 -0.2833
 4265TIP3    H234431   4.892   3.271   0.877  0.9621  1.5170 -0.8698
 4266TIP3   OH234432   5.442   2.694   1.421 -0.4072 -0.0040 -0.0320
 4266TIP3    H134433   5.409   2.731   1.340 -1.3179  0.8321  0.7006
 4266TIP3    H234434   5.537   2.688   1.408 -0.4275  1.0759 -0.7782
 4267TIP3   OH234435   2.379   3.818   0.017 -0.4552 -0.2808 -0.7200
 4267TIP3    H134436   2.441   3.890   0.027 -1.3823  0.1785  3.1498
 4267TIP3    H234437   2.330   3.839  -0.063  2.2094  0.9547 -2.1608
 4268TIP3   OH234438   1.056   1.783   1.479 -0.0059 -0.4327  0.1296
 4268TIP3    H134439   1.080   1.839   1.553  1.7547 -1.5555  0.4742
 4268TIP3    H234440   0.967   1.755   1.497  0.0588  0.0918  1.3288
 4269TIP3   OH234441   1.942   0.282   0.767 -0.1633 -0.2602  0.1794
 4269TIP3    H134442   1.998   0.204   0.761  0.1613 -0.0254  0.1077
 4269TIP3    H234443   1.889   0.280   0.687  1.0487  0.4965 -0.6903
 4270TIP3   OH234444   2.659   1.101   0.687  0.3003  0.2872  0.1192
 4270TIP3    H134445   2.630   1.062   0.769 -1.6691 -0.8516 -1.0379
 4270TIP3    H234446   2.744   1.060   0.669  0.9035  0.7823  1.6883
 4271TIP3   OH234447   3.911   3.873   1.263 -0.0899  0.3962  0.7492
 4271TIP3    H134448   3.896   3.877   1.358 -1.7745 -1.3417  0.6344
 4271TIP3    H234449   3.936   3.782   1.247 -0.9380  0.3780 -0.5906
 4272TIP3   OH234450   0.988   4.091   6.759  1.2678 -0.3125  0.7643
 4272TIP3    H134451   0.937   4.067   6.837  2.1510 -0.1015  1.4232
 4272TIP3    H234452   1.053   4.153   6.791  0.9251  0.6680 -0.3698
 4273TIP3   OH234453   6.627   3.482   6.937 -0.8308  0.2529  0.0847
 4273TIP3    H134454   6.632   3.464   7.031 -0.2907  0.6740  0.1423
 4273TIP3    H234455   6.647   3.399   6.895 -1.4310 -0.0265  0.3390
 4274TIP3   OH234456   7.073   5.202   1.335  0.0276 -0.1902 -0.5000
 4274TIP3    H134457   6.994   5.256   1.334 -0.5512 -1.0226 -0.4376
 4274TIP3    H234458   7.055   5.135   1.401  1.2402  0.2642  0.3211
 4275TIP3   OH234459   2.907   5.962   0.241 -1.0185  0.5359 -0.2557
 4275TIP3    H134460   2.926   5.870   0.259 -2.1516  0.5715  1.3566
 4275TIP3    H234461   2.889   6.000   0.327  1.6124  2.8351 -0.5604
 4276TIP3   OH234462   4.354   5.856   0.608 -0.6783  0.1950  0.0725
 4276TIP3    H134463   4.434   5.844   0.659  0.0957  0.9845 -0.9154
 4276TIP3    H234464   4.368   5.806   0.528 -2.0164 -1.3093  0.7163
 4277TIP3   OH234465   0.787   2.093   0.957  0.0765 -0.0579  0.1975
 4277TIP3    H134466   0.744   2.178   0.969  1.2555  0.3827  1.6370
 4277TIP3    H234467   0.841   2.083   1.035 -1.9274 -3.3075  1.3398
 4278TIP3   OH234468   5.436   4.847   0.521 -0.6746 -0.7794 -0.3054
 4278TIP3    H134469   5.495   4.874   0.591 -2.1705  0.8522  0.3955
 4278TIP3    H234470   5.426   4.925   0.466 -1.4444 -1.3041 -0.9446
 4279TIP3   OH234471   5.669   6.712   0.052 -0.4804 -0.0111  0.2948
 4279TIP3    H134472   5.749   6.662   0.035 -1.6676 -1.8309 -0.2270
 4279TIP3    H234473   5.604   6.675  -0.008 -1.9276  0.8691  1.2507
 4280TIP3   OH234474   2.448   5.834   1.403  0.3991 -0.0584 -0.0166
 4280TIP3    H134475   2.527   5.868   1.362  0.4921  0.8401  0.8681
 4280TIP3    H234476   2.477   5.753   1.446  0.4799 -0.5590 -0.9957
 4281TIP3   OH234477   0.677   6.657   1.543  0.3012 -0.2583  0.3750
 4281TIP3    H134478   0.711   6.603   1.472  2.3856  1.9038 -0.4369
 4281TIP3    H234479   0.597   6.696   1.507  0.7897  0.0259 -0.4349
 4282TIP3   OH234480   4.285   1.300   7.286 -0.4713  0.8877 -0.2560
 4282TIP3    H134481   4.217   1.252   7.333  0.9625  1.2275  2.3444
 4282TIP3    H234482   4.356   1.236   7.275 -0.5330  0.9933 -1.5054
 4283TIP3   OH234483   2.135   0.478   1.285  0.5550  0.1785  0.1543
 4283TIP3    H134484   2.187   0.498   1.363  0.4226 -0.1593  0.3308
 4283TIP3    H234485   2.048   0.514   1.304 -0.0283 -1.5545  0.9719
 4284TIP3   OH234486   5.216   2.713   0.927  0.2830 -0.2758  0.3113
 4284TIP3    H134487   5.286   2.751   0.874 -0.5206 -0.3451 -0.8125
 4284TIP3    H234488   5.252   2.629   0.956  0.3059 -0.7885 -1.1205
 4285TIP3   OH234489   2.116   4.107   6.158 -0.4512  0.1392 -0.6305
 4285TIP3    H134490   2.138   4.085   6.067 -0.7629 -3.2398 -0.0250
 4285TIP3    H234491   2.056   4.037   6.185 -0.6482  1.2522  2.0999
 4286TIP3   OH234492   4.762   2.176   6.548 -0.0604  0.6132  0.0782
 4286TIP3    H134493   4.737   2.083   6.550  0.2613  0.5246  2.1681
 4286TIP3    H234494   4.814   2.184   6.467  1.5171 -1.5002  0.7708
 4287TIP3   OH234495   6.189   2.760   1.726 -0.0906  0.0620  0.1145
 4287TIP3    H134496   6.198   2.738   1.634 -2.3050  0.4658 -0.2766
 4287TIP3    H234497   6.211   2.853   1.731 -1.9297  0.5753 -0.4508
 4288TIP3   OH234498   2.059   5.089   7.766 -0.0764 -0.1340 -0.2085
 4288TIP3    H134499   2.034   5.181   7.755 -0.1183 -0.1381 -0.1442
 4288TIP3    H234500   2.023   5.045   7.689 -1.5426 -0.4075  0.6053
 4289TIP3   OH234501   2.390   4.771   0.324 -0.2266  0.0537  0.4780
 4289TIP3    H134502   2.311   4.784   0.272 -0.6152 -1.1098  0.7434
 4289TIP3    H234503   2.358   4.739   0.408  0.4871  0.3771  0.8815
 4290TIP3   OH234504   4.290   0.969   6.145  0.4762 -0.2310 -0.0404
 4290TIP3    H134505   4.347   1.021   6.088 -0.6314  0.5968 -0.4413
 4290TIP3    H234506   4.349   0.922   6.203  1.6315 -0.7153 -1.5474
 4291TIP3   OH234507   2.015   2.418   1.911 -0.5863 -0.2939  0.0830
 4291TIP3    H134508   2.023   2.513   1.926 -1.5353 -0.2221  0.1473
 4291TIP3    H234509   1.950   2.409   1.842  0.3410 -0.8610 -0.7353
 4292TIP3   OH234510   2.846   4.852   7.452  0.0857 -0.1402  0.3994
 4292TIP3    H134511   2.797   4.868   7.372  0.8204  0.3743  0.0396
 4292TIP3    H234512   2.846   4.937   7.497  1.0346 -0.0141  0.1717
 4293TIP3   OH234513   1.259   2.578   0.341  0.1041  0.2052  0.3607
 4293TIP3    H134514   1.320   2.528   0.395  0.0870 -2.9539 -2.1778
 4293TIP3    H234515   1.175   2.573   0.387  0.3495 -1.3354  0.7029
 4294TIP3   OH234516   2.917   0.777   7.562  0.5135  0.6006  0.4739
 4294TIP3    H134517   2.872   0.838   7.504  1.2758  0.7110 -0.0173
 4294TIP3    H234518   2.884   0.797   7.649  0.6065  1.5760  0.2904
 4295TIP3   OH234519   0.696   2.917   1.097  0.0442 -0.4478  0.3813
 4295TIP3    H134520   0.788   2.896   1.112  0.0594  0.1918  1.2418
 4295TIP3    H234521   0.650   2.835   1.113  0.4148 -0.6547  0.3910
 4296TIP3   OH234522   6.266   3.097   7.221 -0.4072  0.3832  0.1950
 4296TIP3    H134523   6.211   3.166   7.184  0.1012 -0.0885 -1.5751
 4296TIP3    H234524   6.326   3.073   7.149  1.4449  0.1827  1.7167
 4297TIP3   OH234525   2.003   4.114   7.060  0.3244  0.0817  0.2607
 4297TIP3    H134526   1.995   4.120   7.155  0.1547 -0.2407  0.2711
 4297TIP3    H234527   2.095   4.131   7.042 -0.0515  2.4851  0.2722
 4298TIP3   OH234528   5.255   1.635   0.199  1.1995 -0.3864  0.2187
 4298TIP3    H134529   5.351   1.634   0.201  1.2760  0.4599 -1.4752
 4298TIP3    H234530   5.230   1.634   0.291  2.8692  1.1044  0.7564
 4299TIP3   OH234531   5.760   2.334   0.074 -0.1810  0.2773 -0.2025
 4299TIP3    H134532   5.758   2.374   0.161 -2.4714 -0.4999  0.1723
 4299TIP3    H234533   5.834   2.273   0.078 -1.1719 -0.8802  1.7581
 4300TIP3   OH234534   6.090   6.851   6.460 -0.5972 -0.9259  0.0716
 4300TIP3    H134535   6.015   6.800   6.428 -0.5180 -0.9532 -0.0670
 4300TIP3    H234536   6.156   6.786   6.481 -0.1902 -0.8345 -0.8884
 4301TIP3   OH234537   5.519   1.599   7.756  1.0105  0.5114 -0.3145
 4301TIP3    H134538   5.536   1.609   7.662  1.1895  1.8752 -0.1645
 4301TIP3    H234539   5.604   1.615   7.797  0.4295  2.6065  0.1912
 4302TIP3   OH234540   2.092   3.377   0.683 -0.5726  0.2147 -0.0782
 4302TIP3    H134541   2.121   3.295   0.724 -1.4588  0.2531  0.6633
 4302TIP3    H234542   2.115   3.367   0.591 -1.6731 -1.3788 -0.2274
 4303TIP3   OH234543   7.120   2.684   6.503  0.4356  0.2102 -0.2418
 4303TIP3    H134544   7.109   2.607   6.447 -0.3547  0.8370 -0.9866
 4303TIP3    H234545   7.215   2.692   6.514  0.7001  0.5746 -2.2737
 4304TIP3   OH234546   1.750   3.599   0.946 -0.9104  0.2920  0.0140
 4304TIP3    H134547   1.682   3.577   0.882  0.4165 -0.7371 -1.1179
 4304TIP3    H234548   1.762   3.518   0.997 -3.0042  1.5166  2.7041
 4305TIP3   OH234549   4.435   3.493   0.391 -0.2275  0.2970 -0.3620
 4305TIP3    H134550   4.503   3.559   0.378  1.0478 -0.9798 -0.4061
 4305TIP3    H234551   4.419   3.493   0.485 -0.8848  1.2743 -0.4618
 4306TIP3   OH234552   2.981   2.962   1.576 -0.0833 -0.3312  0.0619
 4306TIP3    H134553   2.929   2.964   1.657  0.2814 -0.2364  0.2989
 4306TIP3    H234554   3.041   2.888   1.589 -0.2853 -0.5610 -0.2909
 4307TIP3   OH234555   4.456   0.786   0.453 -0.0842 -0.1083 -0.7619
 4307TIP3    H134556   4.516   0.814   0.384  1.7535  0.2848  0.9040
 4307TIP3    H234557   4.508   0.727   0.507 -0.8818  0.9407  1.2531
 4308TIP3   OH234558   5.997   6.374   6.511  0.0999 -0.3157  0.0032
 4308TIP3    H134559   5.937   6.318   6.461 -0.4451  1.7683 -1.8460
 4308TIP3    H234560   6.056   6.410   6.445 -1.4318  3.5726  0.4843
 4309TIP3   OH234561   0.592   1.310   2.133 -0.2563  0.0248  0.5635
 4309TIP3    H134562   0.662   1.328   2.196 -0.9414  0.1491  1.3036
 4309TIP3    H234563   0.521   1.274   2.186 -0.9727  0.4616 -0.0952
 4310TIP3   OH234564   4.134   3.715   0.325 -0.1234  0.6762 -0.5000
 4310TIP3    H134565   4.225   3.744   0.336  0.6308  0.0271 -3.7297
 4310TIP3    H234566   4.083   3.795   0.321  0.6422  1.1652 -0.7661
 4311TIP3   OH234567   3.079   6.701   0.515 -0.5131  0.2246  0.0809
 4311TIP3    H134568   3.059   6.609   0.497 -0.3866  0.3148 -0.5067
 4311TIP3    H234569   3.032   6.750   0.448 -1.1357  0.6337  0.8010
 4312TIP3   OH234570   6.499   0.107   1.052 -0.3123  0.4714  0.4637
 4312TIP3    H134571   6.429   0.122   1.116 -1.3867  2.8559 -1.1144
 4312TIP3    H234572   6.557   0.044   1.095 -2.5356 -0.3794  2.5156
 4313TIP3   OH234573   1.347   3.924   0.549 -0.1164 -0.2181  0.1629
 4313TIP3    H134574   1.331   3.970   0.467  2.6791 -0.9218 -0.8645
 4313TIP3    H234575   1.275   3.951   0.606 -0.9818  1.9254 -1.8168
 4314TIP3   OH234576   2.150   5.759   5.508  0.0190  0.4510 -0.0029
 4314TIP3    H134577   2.144   5.680   5.562 -0.2354  0.5767  0.1544
 4314TIP3    H234578   2.222   5.809   5.548  0.1211  0.3411 -0.0480
 4315TIP3   OH234579   1.916   4.920   7.521  0.0454 -0.9098 -0.1625
 4315TIP3    H134580   1.844   4.863   7.551  0.4317 -1.9609 -1.1446
 4315TIP3    H234581   1.881   4.963   7.442 -0.4236  0.6462  0.8539
 4316TIP3   OH234582   3.644   5.410   0.435 -0.5269 -0.1936 -0.0825
 4316TIP3    H134583   3.653   5.503   0.413  0.4197 -0.3593 -0.4585
 4316TIP3    H234584   3.607   5.409   0.523  1.6557  0.6028  0.9112
 4317TIP3   OH234585   6.718   5.982   7.622  0.3912  0.5079 -0.4573
 4317TIP3    H134586   6.708   5.934   7.704 -1.3537  1.7597  0.1087
 4317TIP3    H234587   6.644   5.954   7.568  1.7139 -0.5832 -1.8189
 4318TIP3   OH234588   1.664   4.763   0.937 -0.2515  0.1983  0.4221
 4318TIP3    H134589   1.711   4.834   0.980  0.7450  0.5932 -1.2225
 4318TIP3    H234590   1.581   4.758   0.983 -0.3572  2.4632  0.5910
 4319TIP3   OH234591   3.780   6.904   0.774 -0.3402 -0.3320 -0.3108
 4319TIP3    H134592   3.743   6.991   0.766 -0.0137 -0.1716 -0.1037
 4319TIP3    H234593   3.873   6.919   0.791 -0.1523 -0.7266 -0.9355
 4320TIP3   OH234594   1.338   4.821   0.058  0.4965  0.0965  0.3128
 4320TIP3    H134595   1.371   4.762   0.126  1.6722  0.0868 -0.2425
 4320TIP3    H234596   1.308   4.898   0.107 -0.4718 -0.6685  0.9883
 4321TIP3   OH234597   4.868   2.206   5.980 -0.0017  0.1403 -0.0687
 4321TIP3    H134598   4.955   2.203   5.941 -0.8696 -0.3596 -2.1128
 4321TIP3    H234599   4.856   2.120   6.019 -0.7273 -1.0097 -2.6157
 4322TIP3   OH234600   1.141   3.467   0.066 -0.4681  0.5815  0.4887
 4322TIP3    H134601   1.093   3.543   0.098 -0.7201  0.3471  0.6661
 4322TIP3    H234602   1.110   3.455  -0.024 -2.1340 -0.6785  1.1722
 4323TIP3   OH234603   2.388   6.385   7.205  0.3802  0.7174  0.2464
 4323TIP3    H134604   2.375   6.479   7.196  0.0938  0.8539  1.8507
 4323TIP3    H234605   2.313   6.345   7.160  0.0626  1.2746  0.2796
 4324TIP3   OH234606   5.923   3.044   6.741  0.0474 -0.3439  0.0119
 4324TIP3    H134607   5.979   3.022   6.816 -0.1288 -1.9929 -0.2846
 4324TIP3    H234608   5.937   3.137   6.727 -0.8384  0.2896  2.8225
 4325TIP3   OH234609   2.205   3.856   7.088  0.3625 -0.1508  0.7575
 4325TIP3    H134610   2.247   3.901   7.162  0.0948 -0.0739  0.8613
 4325TIP3    H234611   2.267   3.868   7.016  1.9523 -2.5059  1.5983
 4326TIP3   OH234612   2.375   2.888   1.554 -0.4090  0.3490 -0.1659
 4326TIP3    H134613   2.362   2.950   1.625  0.3101 -1.1697  1.3619
 4326TIP3    H234614   2.445   2.831   1.585  0.3448 -0.0096 -2.3595
 4327TIP3   OH234615   1.849   2.904   7.922  0.0443  0.2761 -0.4570
 4327TIP3    H134616   1.780   2.846   7.888  1.5768 -1.0903 -1.4141
 4327TIP3    H234617   1.912   2.844   7.963  1.4540  1.3131 -1.0392
 4328TIP3   OH234618   3.957   1.485   6.410 -0.3530  0.0072  0.1602
 4328TIP3    H134619   3.886   1.469   6.473  0.0951 -3.3050 -0.0030
 4328TIP3    H234620   4.036   1.453   6.454  0.6456  1.3312 -0.6062
 4329TIP3   OH234621   2.817   6.104   1.656  0.1346 -0.0112  0.3513
 4329TIP3    H134622   2.797   6.147   1.740  2.9894 -0.0998  1.1579
 4329TIP3    H234623   2.844   6.176   1.598  0.6983 -0.2412  0.3292
 4330TIP3   OH234624   1.778   1.004   8.082 -0.1189 -0.0353 -0.5264
 4330TIP3    H134625   1.829   1.084   8.065 -0.3829  0.1656 -0.3733
 4330TIP3    H234626   1.783   0.956   7.999 -0.8367  0.6293 -0.9701
 4331TIP3   OH234627   2.760   5.270   0.708  0.2738 -0.3110 -0.3224
 4331TIP3    H134628   2.687   5.226   0.664 -0.3730 -0.3762  0.7975
 4331TIP3    H234629   2.719   5.336   0.763  1.0882 -0.1086  0.0523
 4332TIP3   OH234630   3.997   2.320   0.882 -0.0441  0.6095  0.6622
 4332TIP3    H134631   4.056   2.246   0.896  1.1920  1.4570  0.0545
 4332TIP3    H234632   3.953   2.332   0.966 -0.9747 -1.3853  0.5303
 4333TIP3   OH234633   3.915   5.325   1.448 -0.6869 -0.2996  0.2145
 4333TIP3    H134634   3.992   5.383   1.451 -1.2575  0.4230  1.7400
 4333TIP3    H234635   3.871   5.348   1.366  1.3542 -1.6265 -1.3644
 4334TIP3   OH234636   3.473   0.327   5.656  0.1800 -0.4228 -0.0521
 4334TIP3    H134637   3.465   0.417   5.688 -0.2239 -1.2632  2.5030
 4334TIP3    H234638   3.565   0.305   5.670 -0.1133 -0.9742  1.2163
 4335TIP3   OH234639   5.353   2.334   7.689  0.5566  0.3273  0.1934
 4335TIP3    H134640   5.386   2.335   7.599  1.4746  0.4424  0.5176
 4335TIP3    H234641   5.431   2.320   7.742  0.2233  1.5642  1.0553
 4336TIP3   OH234642   3.969   0.501   1.049 -0.2029 -0.3947 -0.5439
 4336TIP3    H134643   4.009   0.458   1.124 -0.1972  1.2656  0.4687
 4336TIP3    H234644   4.042   0.516   0.988  0.2795  0.3951  0.2024
 4337TIP3   OH234645   1.626   4.581   0.747  0.4892  0.1980  0.2544
 4337TIP3    H134646   1.667   4.626   0.821  1.3276 -2.4178  1.5121
 4337TIP3    H234647   1.564   4.520   0.788  1.9994 -2.3599 -1.0218
 4338TIP3   OH234648   3.923   0.750   7.484  0.6372  0.5306  0.4904
 4338TIP3    H134649   3.969   0.672   7.452  0.5116  0.5067  0.3665
 4338TIP3    H234650   3.904   0.730   7.576  2.8921  1.4636  1.2419
 4339TIP3   OH234651   1.663   3.011   7.115 -0.5281  1.0130  0.3293
 4339TIP3    H134652   1.568   3.027   7.112 -0.5384  1.2320  1.3759
 4339TIP3    H234653   1.673   2.935   7.172 -0.0686  1.0487  0.2982
 4340TIP3   OH234654   1.876   4.323   7.840  0.1754  0.0068 -0.8534
 4340TIP3    H134655   1.941   4.361   7.781  0.3303  0.4046 -0.4393
 4340TIP3    H234656   1.866   4.389   7.909  1.8061 -1.4309  0.8803
 4341TIP3   OH234657   3.401   2.366   6.724  0.3088  0.0299  0.2849
 4341TIP3    H134658   3.317   2.400   6.753 -1.2528 -2.8435 -0.4297
 4341TIP3    H234659   3.379   2.284   6.680  3.4627 -0.5558 -0.4276
 4342TIP3   OH234660   5.424   4.918   6.786  0.2539 -0.0673 -0.1638
 4342TIP3    H134661   5.342   4.946   6.746  0.6324  0.5819 -0.5050
 4342TIP3    H234662   5.398   4.851   6.849 -0.5487  0.2214 -0.1740
 4343TIP3   OH234663   1.735   0.172   0.591  0.6680  0.1422  0.6159
 4343TIP3    H134664   1.700   0.261   0.586  0.5810  0.0825  0.0944
 4343TIP3    H234665   1.711   0.141   0.678 -0.5235  0.1314  0.2965
 4344TIP3   OH234666   3.604   0.685   8.027  0.1445 -0.2952 -0.4531
 4344TIP3    H134667   3.529   0.745   8.033  1.1593  1.0137 -0.4905
 4344TIP3    H234668   3.645   0.690   8.113  1.1637  0.3176 -0.9640
 4345TIP3   OH234669   6.573   1.037   6.818  0.1801 -0.1125 -0.0769
 4345TIP3    H134670   6.603   1.069   6.733 -1.4880  0.3111 -0.5356
 4345TIP3    H234671   6.589   1.111   6.878  0.9180 -0.2421 -0.1052
 4346TIP3   OH234672   4.324   5.204   0.614  0.5236 -0.1539  0.2781
 4346TIP3    H134673   4.361   5.266   0.551 -0.1864 -0.3489 -0.3401
 4346TIP3    H234674   4.263   5.151   0.563 -1.6667  1.0360  1.4955
 4347TIP3   OH234675   4.100   4.639   1.744  0.7699  0.3056  0.0130
 4347TIP3    H134676   4.134   4.713   1.795  0.3438  0.9118 -0.5728
 4347TIP3    H234677   4.024   4.609   1.793  1.1813 -0.0070  0.4661
 4348TIP3   OH234678   6.367   1.902   1.531 -0.1331 -0.0764 -0.1937
 4348TIP3    H134679   6.457   1.932   1.542 -0.1186 -0.5381  1.0472
 4348TIP3    H234680   6.360   1.825   1.587 -1.4887  0.3230  0.2160
 4349TIP3   OH234681   5.756   1.539   0.469  0.5110  0.0821 -0.0901
 4349TIP3    H134682   5.826   1.584   0.515 -0.4688  1.6693 -0.0673
 4349TIP3    H234683   5.691   1.608   0.451  0.7420 -0.4581 -3.6427
 4350TIP3   OH234684   6.195   3.560   6.355  0.0199  0.5660  0.1065
 4350TIP3    H134685   6.118   3.578   6.302  0.2644  1.8431  0.1309
 4350TIP3    H234686   6.238   3.646   6.364  2.2604 -0.3278 -1.1686
 4351TIP3   OH234687   1.300   4.361   0.298  0.3480 -0.1057 -0.5030
 4351TIP3    H134688   1.364   4.313   0.245  2.2158  0.7957  0.8097
 4351TIP3    H234689   1.344   4.375   0.381 -1.3051  1.2494  0.1981
 4352TIP3   OH234690   6.829   4.150   6.042 -0.0840 -0.6780 -0.2160
 4352TIP3    H134691   6.738   4.162   6.017  0.4192  0.9588 -1.4151
 4352TIP3    H234692   6.874   4.227   6.008  1.8732 -1.7802 -0.2678
 4353TIP3   OH234693   6.173   3.413   6.063  0.1305  0.1498  0.0437
 4353TIP3    H134694   6.112   3.482   6.089  1.0479  0.5935  1.1195
 4353TIP3    H234695   6.153   3.397   5.971 -1.8989 -0.0477  0.4648
 4354TIP3   OH234696   1.009   2.631   0.644  0.1160 -0.0979 -0.4568
 4354TIP3    H134697   0.921   2.661   0.665  0.5875  1.2375 -0.2868
 4354TIP3    H234698   1.062   2.655   0.720  0.8868  0.3235 -1.1096
 4355TIP3   OH234699   1.447   6.838   7.080  0.5367  0.1292 -0.2926
 4355TIP3    H134700   1.428   6.878   7.164 -0.0175 -0.3872 -0.1616
 4355TIP3    H234701   1.365   6.793   7.056  0.4153  0.9655 -1.5038
 4356TIP3   OH234702   1.132   0.821   1.009  0.2475  0.2159  0.7106
 4356TIP3    H134703   1.191   0.839   1.082 -0.5085  0.2817  1.3156
 4356TIP3    H234704   1.190   0.803   0.935  1.0525  1.6521  0.9404
 4357TIP3   OH234705   5.415   6.280   7.013 -0.3056  0.0403  0.3155
 4357TIP3    H134706   5.368   6.361   6.993 -1.9119 -0.7464  0.7190
 4357TIP3    H234707   5.432   6.286   7.107 -0.2849 -0.0243  0.3155
 4358TIP3   OH234708   6.894   5.817   1.532 -0.5511 -0.5492 -0.2273
 4358TIP3    H134709   6.864   5.764   1.458  2.2617 -2.3924 -0.2239
 4358TIP3    H234710   6.853   5.778   1.609 -0.0482 -1.5086 -0.4283
 4359TIP3   OH234711   2.926   0.575   6.886  0.2193  0.3939  0.2146
 4359TIP3    H134712   2.935   0.480   6.890  2.0924  0.5705  2.4891
 4359TIP3    H234713   3.015   0.608   6.899 -0.3792  2.4761 -0.5667
 4360TIP3   OH234714   0.491   4.780   7.240  0.7379  0.2299  0.0005
 4360TIP3    H134715   0.506   4.870   7.270  1.1837  0.0598  0.2966
 4360TIP3    H234716   0.454   4.790   7.152  0.0107  0.7206  0.3520
 4361TIP3   OH234717   6.756   2.306   7.936  0.1212 -0.1742  0.1056
 4361TIP3    H134718   6.771   2.261   7.853  1.3997  2.5351 -1.2556
 4361TIP3    H234719   6.676   2.266   7.971  0.5379 -2.6021 -1.5258
 4362TIP3   OH234720   5.857   2.785   6.715  0.2014  0.0720 -0.1955
 4362TIP3    H134721   5.893   2.777   6.626  0.4635  1.1659 -0.1938
 4362TIP3    H234722   5.881   2.873   6.743 -1.8415  0.5702  0.1041
 4363TIP3   OH234723   3.174   3.439   6.168 -0.2051  0.3494 -0.1979
 4363TIP3    H134724   3.116   3.367   6.195 -1.1449  1.3139  0.4128
 4363TIP3    H234725   3.246   3.395   6.123 -0.8503 -0.9686 -0.0068
 4364TIP3   OH234726   5.384   3.187   7.998 -0.0556 -0.5258  0.3654
 4364TIP3    H134727   5.463   3.240   7.996 -0.0203 -0.5368 -1.9234
 4364TIP3    H234728   5.325   3.231   7.936 -1.7678 -0.6502  1.8298
 4365TIP3   OH234729   6.660   4.906   7.830  0.3764  0.9073  0.0095
 4365TIP3    H134730   6.643   5.000   7.838 -2.7285  0.5417 -0.9961
 4365TIP3    H234731   6.629   4.884   7.742  1.5518 -0.9967  0.0226
 4366TIP3   OH234732   4.968   5.032   7.181  0.3644  0.5831 -0.4654
 4366TIP3    H134733   4.911   5.098   7.220  1.8671  1.0045  1.1184
 4366TIP3    H234734   5.013   4.992   7.255  0.9000 -0.9102 -1.5413
 4367TIP3   OH234735   0.487   4.216   7.592  0.9615 -0.0806  1.0483
 4367TIP3    H134736   0.471   4.191   7.501  1.0870 -1.1436  1.3076
 4367TIP3    H234737   0.577   4.251   7.592  0.1745  2.0907  0.3553
 4368TIP3   OH234738   2.797   2.393   7.972 -0.0307  0.7634 -0.2579
 4368TIP3    H134739   2.739   2.465   7.996 -0.4950  1.2197 -2.5156
 4368TIP3    H234740   2.841   2.370   8.054 -1.3823  2.2177  0.9560
 4369TIP3   OH234741   1.485   2.370   7.242 -0.3056  0.0573 -0.2792
 4369TIP3    H134742   1.526   2.424   7.310 -1.3256  1.1498 -0.4962
 4369TIP3    H234743   1.558   2.321   7.203  0.3545 -0.2602  1.2920
 4370TIP3   OH234744   2.372   0.764   6.978 -0.3380  0.1813  0.2964
 4370TIP3    H134745   2.294   0.748   7.031  2.2734 -0.4320  4.4020
 4370TIP3    H234746   2.431   0.692   6.999  1.3407  0.4708 -2.8335
 4371TIP3   OH234747   3.985   1.528   0.443 -0.1686  0.3336 -1.0491
 4371TIP3    H134748   4.019   1.441   0.463  0.4096  0.6893 -0.3996
 4371TIP3    H234749   3.924   1.515   0.371 -1.5657 -0.8967  0.2686
 4372TIP3   OH234750   2.242   3.766   6.125 -0.6109  0.2612  0.1270
 4372TIP3    H134751   2.152   3.798   6.128 -0.7595 -0.0644 -0.5459
 4372TIP3    H234752   2.276   3.798   6.041 -0.3852 -0.3400 -0.0173
 4373TIP3   OH234753   5.564   5.625   1.079  0.6901 -0.1432 -0.4316
 4373TIP3    H134754   5.628   5.658   1.016  1.3524 -0.5940 -0.0004
 4373TIP3    H234755   5.544   5.537   1.049  1.6888 -0.6973  0.4841
 4374TIP3   OH234756   0.716   3.137   7.493 -0.5584 -0.0249  0.1063
 4374TIP3    H134757   0.748   3.198   7.427 -1.0631  0.4635  0.3076
 4374TIP3    H234758   0.637   3.178   7.528 -1.0817 -0.9432  0.0234
 4375TIP3   OH234759   5.639   4.545   7.120  0.6353 -0.0163 -0.0883
 4375TIP3    H134760   5.573   4.482   7.150  0.2088 -0.8886 -2.5899
 4375TIP3    H234761   5.700   4.552   7.193 -0.8248 -1.1812  1.3304
 4376TIP3   OH234762   5.885   6.625   2.037 -0.0642  0.0778 -0.0056
 4376TIP3    H134763   5.824   6.616   1.964 -2.1206 -0.4274  1.6907
 4376TIP3    H234764   5.905   6.535   2.064  0.9364  0.2518 -0.1021
 4377TIP3   OH234765   4.473   2.780   0.532  0.0803 -0.4061 -0.1561
 4377TIP3    H134766   4.423   2.734   0.599  0.9807  0.4397  1.1330
 4377TIP3    H234767   4.412   2.844   0.496 -0.3758 -0.7879 -0.0684
 4378TIP3   OH234768   5.277   2.827   6.033 -0.4918 -0.3976 -0.0933
 4378TIP3    H134769   5.357   2.879   6.041 -0.5913 -0.1014 -0.9379
 4378TIP3    H234770   5.216   2.884   5.987 -0.1322 -1.7212 -2.3752
 4379TIP3   OH234771   1.120   3.182   6.131 -0.1344  0.4161 -0.2091
 4379TIP3    H134772   1.053   3.251   6.134  0.0842  0.5986  1.1014
 4379TIP3    H234773   1.200   3.228   6.107  0.0072  0.6286  0.6452
 4380TIP3   OH234774   7.030   0.238   6.997  0.1448 -0.5887  0.0859
 4380TIP3    H134775   7.066   0.194   7.074  3.2612  0.6584 -0.5285
 4380TIP3    H234776   7.060   0.328   7.004  1.0080 -0.5455 -2.8121
 4381TIP3   OH234777   4.065   5.994   0.297  0.3148  0.6263 -0.2311
 4381TIP3    H134778   4.127   5.931   0.260 -0.8223 -0.5716 -0.1810
 4381TIP3    H234779   4.087   5.999   0.390  0.7073  0.6533 -0.3273
 4382TIP3   OH234780   0.237   1.322   6.110 -0.6274 -0.0923  0.4422
 4382TIP3    H134781   0.262   1.346   6.021  1.3923 -2.9593  0.0727
 4382TIP3    H234782   0.154   1.274   6.099 -0.0870 -0.9458 -0.0076
 4383TIP3   OH234783   3.836   5.622   0.036 -0.2318  0.7752  0.0719
 4383TIP3    H134784   3.805   5.643   0.124 -1.0997  0.7733 -0.2299
 4383TIP3    H234785   3.832   5.705  -0.012  0.5063  0.8395  0.0984
 4384TIP3   OH234786   4.955   3.762   6.677 -0.2059 -0.1149  0.0120
 4384TIP3    H134787   5.004   3.723   6.749  0.7701 -2.3799 -1.7532
 4384TIP3    H234788   4.892   3.696   6.651 -1.3580  1.1268 -0.4770
 4385TIP3   OH234789   1.634   4.311   7.677  0.1887 -0.0897 -0.1560
 4385TIP3    H134790   1.591   4.380   7.728 -1.3587 -0.4797 -0.8878
 4385TIP3    H234791   1.726   4.317   7.703 -0.0984  1.4916  0.6516
 4386TIP3   OH234792   1.913   0.467   7.986  0.1863 -0.1298 -0.5648
 4386TIP3    H134793   1.941   0.529   8.054 -0.2308  0.5777 -1.0235
 4386TIP3    H234794   1.820   0.453   8.003  0.4879 -1.4284  0.1417
 4387TIP3   OH234795   6.978   5.364   7.401 -0.1282  0.4686 -0.9514
 4387TIP3    H134796   6.953   5.437   7.344  0.5601  1.3270 -0.1858
 4387TIP3    H234797   6.895   5.329   7.433 -0.4613  1.1631 -1.0410
 4388TIP3   OH234798   1.923   1.054   6.463 -0.0636 -0.1228  0.1442
 4388TIP3    H134799   1.905   1.146   6.444 -0.8982 -0.2361  0.3411
 4388TIP3    H234800   2.004   1.055   6.514  0.2402  0.4550 -0.3369
 4389TIP3   OH234801   1.258   5.524   7.105  0.2769  0.0436 -0.0111
 4389TIP3    H134802   1.182   5.506   7.161 -0.8845 -0.0534 -1.5557
 4389TIP3    H234803   1.315   5.448   7.118  0.1858  0.1687  1.2585
 4390TIP3   OH234804   0.495   5.084   6.889  0.5800 -0.9424 -0.2416
 4390TIP3    H134805   0.419   5.028   6.877  0.3472 -0.7223  0.1725
 4390TIP3    H234806   0.555   5.033   6.943 -0.0558 -0.4294  0.9935
 4391TIP3   OH234807   0.954   5.567   7.781 -0.0873 -0.1727  0.3260
 4391TIP3    H134808   0.995   5.600   7.701 -0.7805  0.0188  0.0376
 4391TIP3    H234809   0.906   5.642   7.816  0.5359 -0.1401  1.1539
 4392TIP3   OH234810   3.891   2.289   7.154 -0.5207  0.0714  0.1490
 4392TIP3    H134811   3.984   2.309   7.143  0.2078 -1.8767  2.0226
 4392TIP3    H234812   3.872   2.224   7.086 -0.2306 -0.2398  0.3587
 4393TIP3   OH234813   4.927   4.070   0.874 -0.1734 -0.4882 -0.6931
 4393TIP3    H134814   4.984   4.145   0.894  1.3433 -2.1344  1.6580
 4393TIP3    H234815   4.882   4.052   0.956 -1.3537 -1.4850 -1.5382
 4394TIP3   OH234816   4.115   0.612   6.105  0.2003  0.2275 -0.1620
 4394TIP3    H134817   4.171   0.576   6.036 -0.9593 -0.1856 -0.9187
 4394TIP3    H234818   4.033   0.634   6.061 -1.0180 -1.1802  1.2854
 4395TIP3   OH234819   3.141   4.480   0.475  0.3430 -0.5438  0.3962
 4395TIP3    H134820   3.223   4.433   0.494  1.0717  0.0049 -1.2607
 4395TIP3    H234821   3.168   4.571   0.465 -0.7733 -0.0431  1.6150
 4396TIP3   OH234822   6.290   6.663   1.315 -0.2764  0.1395 -0.2905
 4396TIP3    H134823   6.257   6.581   1.352  0.5574 -0.4877 -0.9127
 4396TIP3    H234824   6.272   6.655   1.222  0.2924  0.4409 -0.4229
 4397TIP3   OH234825   2.881   1.127   7.664  0.1864 -0.2188  0.1362
 4397TIP3    H134826   2.823   1.115   7.588  0.0425  1.5820 -0.0683
 4397TIP3    H234827   2.938   1.200   7.640  2.1704 -1.5422  0.5948
 4398TIP3   OH234828   0.627   3.657   6.233 -0.5611 -0.2162  0.4535
 4398TIP3    H134829   0.642   3.743   6.194 -0.8507  0.1409  1.1196
 4398TIP3    H234830   0.532   3.651   6.242 -0.6510 -1.1294 -0.7335
 4399TIP3   OH234831   6.801   6.185   7.174 -0.1053 -1.2001  0.5170
 4399TIP3    H134832   6.753   6.155   7.096 -2.6131  0.3097  1.3453
 4399TIP3    H234833   6.745   6.160   7.248  0.0467  1.1138  1.5111
 4400TIP3   OH234834   2.172   2.193   0.512  0.0335  0.1923 -0.1390
 4400TIP3    H134835   2.111   2.137   0.464 -1.5087  2.7064 -1.2994
 4400TIP3    H234836   2.225   2.235   0.444  0.6188  0.7523  0.6430
 4401TIP3   OH234837   2.987   5.800   7.510 -0.5224 -0.4562 -0.0367
 4401TIP3    H134838   2.927   5.866   7.474  0.3945  1.0298  1.0399
 4401TIP3    H234839   2.990   5.732   7.443 -2.7064 -0.1676 -0.5201
 4402TIP3   OH234840   4.848   1.891   1.347 -0.3479 -0.7680  0.3398
 4402TIP3    H134841   4.928   1.892   1.400 -0.0908  0.3624 -0.0521
 4402TIP3    H234842   4.802   1.812   1.375 -0.0929 -0.3391  2.0668
 4403TIP3   OH234843   3.489   0.368   1.491  0.2679 -0.4199  0.7281
 4403TIP3    H134844   3.580   0.349   1.514  0.3670 -1.8822 -0.7204
 4403TIP3    H234845   3.460   0.292   1.441 -1.5005  0.3977  0.4211
 4404TIP3   OH234846   2.547   0.121   5.480  0.2082 -0.2899  0.6617
 4404TIP3    H134847   2.571   0.211   5.502  1.9206 -0.7186  0.6647
 4404TIP3    H234848   2.630   0.076   5.466 -0.6268 -1.7494  0.1131
 4405TIP3   OH234849   1.819   6.158   8.031 -0.1237  0.1313 -0.0150
 4405TIP3    H134850   1.737   6.176   8.076  0.0220 -0.3494  0.4563
 4405TIP3    H234851   1.850   6.244   8.002  1.2597  0.9269  3.3704
 4406TIP3   OH234852   6.063   7.098   0.420  0.9449 -0.1618  0.0106
 4406TIP3    H134853   6.154   7.127   0.420  0.6087  1.0153 -1.2277
 4406TIP3    H234854   6.067   7.005   0.443  2.2200  0.4235  2.4345
 4407TIP3   OH234855   6.985   0.577   0.848  0.2234 -0.3608 -1.1633
 4407TIP3    H134856   6.984   0.602   0.940  0.3086 -1.4355 -0.8633
 4407TIP3    H234857   6.916   0.629   0.808 -1.2826 -1.4451 -0.0668
 4408TIP3   OH234858   0.992   0.855   7.382 -0.2989 -0.1929 -0.5631
 4408TIP3    H134859   1.013   0.792   7.450 -1.5806  0.6569  0.6587
 4408TIP3    H234860   1.039   0.935   7.407  1.6808 -0.7002 -2.3355
 4409TIP3   OH234861   5.802   1.778   7.314  0.0446 -0.2044  0.0190
 4409TIP3    H134862   5.830   1.702   7.364 -2.0788 -0.9707  0.1415
 4409TIP3    H234863   5.713   1.795   7.344  0.4124  2.2669 -0.1044
 4410TIP3   OH234864   0.646   5.554   2.047 -0.7231 -0.4880 -0.1425
 4410TIP3    H134865   0.729   5.567   2.001 -0.2902  0.7357  0.9271
 4410TIP3    H234866   0.633   5.459   2.046  1.8184 -0.9439  1.5386
 4411TIP3   OH234867   6.638   5.770   7.125  0.0576  0.1770  0.1698
 4411TIP3    H134868   6.583   5.848   7.127 -1.1197 -0.5016 -2.1161
 4411TIP3    H234869   6.686   5.777   7.042  0.1287 -1.3672  0.0459
 4412TIP3   OH234870   5.944   1.944   0.100  0.1843 -0.1216 -0.0506
 4412TIP3    H134871   5.995   1.868   0.072 -0.5044 -0.2294 -1.0687
 4412TIP3    H234872   5.978   2.017   0.048 -2.0301 -0.5805 -2.3761
 4413TIP3   OH234873   4.878   2.622   0.308  0.0737  0.5797  0.2867
 4413TIP3    H134874   4.796   2.613   0.357  0.4082 -1.8421  0.5280
 4413TIP3    H234875   4.944   2.642   0.374  0.2333 -0.9805  0.6324
 4414TIP3   OH234876   2.090   5.460   0.300  0.2541  0.3653  0.4480
 4414TIP3    H134877   2.019   5.397   0.290  0.0850  0.6107  0.0724
 4414TIP3    H234878   2.164   5.420   0.256 -0.3008  1.1383 -1.2638
 4415TIP3   OH234879   2.732   0.761   6.876 -0.5503 -0.0799 -0.0314
 4415TIP3    H134880   2.810   0.707   6.886 -0.0286  0.7569  0.5382
 4415TIP3    H234881   2.661   0.698   6.864  0.2767 -0.8405 -1.1097
 4416TIP3   OH234882   1.295   5.980   7.807 -0.1018  0.0048 -0.5059
 4416TIP3    H134883   1.244   5.937   7.739 -0.3014  0.5080 -0.6788
 4416TIP3    H234884   1.305   6.070   7.777  0.0756  0.1553 -0.0187
 4417TIP3   OH234885   1.029   2.311   1.601 -0.6885 -0.6649  0.1843
 4417TIP3    H134886   1.109   2.267   1.571  0.3686  1.5987 -0.5028
 4417TIP3    H234887   1.037   2.311   1.697  0.3757 -0.0983  0.1123
 4418TIP3   OH234888   0.464   4.235   7.094  0.3004 -0.2708 -0.2421
 4418TIP3    H134889   0.524   4.238   7.168  0.5912  0.4542 -0.5007
 4418TIP3    H234890   0.485   4.312   7.042  0.0460 -0.7192 -1.0401
 4419TIP3   OH234891   0.634   7.093   2.251  0.4227  0.1695 -0.4304
 4419TIP3    H134892   0.542   7.070   2.239  0.3428  1.3288 -2.5204
 4419TIP3    H234893   0.680   7.009   2.249 -0.5036 -0.3596 -0.1463
 4420TIP3   OH234894   3.061   4.864   1.674 -0.0911  0.1362  0.3564
 4420TIP3    H134895   2.966   4.862   1.686 -0.2730  2.5021 -0.0808
 4420TIP3    H234896   3.095   4.892   1.760  0.3536 -1.8272  0.8588
 4421TIP3   OH234897   6.109   3.981   7.046 -0.1362  0.2758 -0.3452
 4421TIP3    H134898   6.107   3.999   7.140  0.2232 -0.4702 -0.1863
 4421TIP3    H234899   6.197   3.946   7.030 -0.8403 -1.4736 -0.5933
 4422TIP3   OH234900   4.234   4.703   0.569 -0.9552  0.4301 -0.2270
 4422TIP3    H134901   4.141   4.706   0.546 -0.8077  1.0679 -0.7801
 4422TIP3    H234902   4.235   4.685   0.663 -1.6479  0.7548 -0.1509
 4423TIP3   OH234903   2.282   5.086   0.587  0.0202 -0.0075  0.4557
 4423TIP3    H134904   2.246   5.171   0.562 -0.2915 -0.2990 -0.0942
 4423TIP3    H234905   2.218   5.022   0.556  0.5279 -0.4737  0.3482
 4424TIP3   OH234906   4.696   5.861   6.622 -0.6255 -0.2435 -0.1310
 4424TIP3    H134907   4.642   5.855   6.701 -1.6793  1.6714 -0.6627
 4424TIP3    H234908   4.666   5.940   6.578  2.3336  0.6967 -0.7016
 4425TIP3   OH234909   4.500   3.220   1.145  0.1495 -0.3547  0.9564
 4425TIP3    H134910   4.564   3.149   1.151 -0.1177 -0.5520  1.5580
 4425TIP3    H234911   4.481   3.227   1.051  0.2171 -1.0433  0.8844
 4426TIP3   OH234912   5.788   6.656   1.785  0.1328  0.3301  0.0858
 4426TIP3    H134913   5.729   6.719   1.827  0.4599 -0.6160  2.0836
 4426TIP3    H234914   5.776   6.671   1.691  0.6903  3.7986  0.4392
 4427TIP3   OH234915   0.470   5.498   7.451  0.1489  0.1163 -0.3337
 4427TIP3    H134916   0.513   5.412   7.452 -1.7330 -0.8778  0.6777
 4427TIP3    H234917   0.384   5.481   7.411 -1.5423  0.7916  2.7372
 4428TIP3   OH234918   0.441   6.367   7.163 -0.2092  0.0403 -0.5658
 4428TIP3    H134919   0.374   6.299   7.159  0.2085 -0.3113 -2.9753
 4428TIP3    H234920   0.519   6.327   7.124 -0.2208  2.1073 -3.0157
 4429TIP3   OH234921   1.896   5.319   6.704 -0.2875 -0.0623  0.2831
 4429TIP3    H134922   1.893   5.324   6.800 -1.6831  0.5037  0.2335
 4429TIP3    H234923   1.845   5.241   6.683 -2.8333  1.5957 -0.0918
 4430TIP3   OH234924   3.021   6.995   1.290 -0.0435 -0.5375  0.1459
 4430TIP3    H134925   3.110   6.962   1.276 -0.3559 -1.9441  1.2964
 4430TIP3    H234926   3.007   6.987   1.384 -0.1343  3.0127  0.5844
 4431TIP3   OH234927   1.587   6.885   0.788 -0.8570 -0.1639 -0.3866
 4431TIP3    H134928   1.559   6.976   0.777  1.1154  0.7317  1.2381
 4431TIP3    H234929   1.681   6.887   0.771 -0.8832 -2.0602 -0.9589
 4432TIP3   OH234930   6.958   6.949   0.334 -0.3460  0.0434 -0.2500
 4432TIP3    H134931   7.031   7.004   0.307  0.5154 -1.1105 -0.3327
 4432TIP3    H234932   6.943   6.891   0.259 -0.7272 -0.3547  0.1256
 4433TIP3   OH234933   2.076   6.364   6.525 -0.7795  0.0062 -0.1083
 4433TIP3    H134934   2.052   6.312   6.448 -0.5537 -1.0199  0.4955
 4433TIP3    H234935   2.043   6.314   6.600 -1.0075  0.9902  0.4787
 4434TIP3   OH234936   2.052   3.899   6.376 -0.5471  0.1686  0.5023
 4434TIP3    H134937   2.111   3.835   6.414 -0.1456  0.0766 -0.2531
 4434TIP3    H234938   2.032   3.865   6.289 -0.3607  1.0349  0.1038
 4435TIP3   OH234939   5.645   0.568   0.240 -0.0944  0.3023  0.4871
 4435TIP3    H134940   5.605   0.552   0.325  0.9976 -0.1977  0.9228
 4435TIP3    H234941   5.688   0.486   0.218 -2.7267 -0.6199 -1.9242
 4436TIP3   OH234942   2.840   0.954   0.269  0.0794  0.0128  0.4718
 4436TIP3    H134943   2.867   1.038   0.307  4.7652 -1.8516  1.9474
 4436TIP3    H234944   2.781   0.915   0.334 -0.3962  1.1894  0.7740
 4437TIP3   OH234945   3.176   0.047   6.557 -0.3418 -0.6259 -0.0528
 4437TIP3    H134946   3.223   0.084   6.483  0.2511 -0.0220  0.6128
 4437TIP3    H234947   3.198  -0.046   6.557  1.5828 -0.2051  0.7697
 4438TIP3   OH234948   6.470   3.525   7.651 -0.2961  0.2978 -0.0965
 4438TIP3    H134949   6.418   3.567   7.719 -0.9311 -1.3307  0.4584
 4438TIP3    H234950   6.526   3.463   7.698 -0.9458 -1.0556 -1.0564
 4439TIP3   OH234951   1.146   2.761   1.678 -0.0871  0.9074 -0.4321
 4439TIP3    H134952   1.196   2.806   1.746 -0.9728  1.7090 -0.2942
 4439TIP3    H234953   1.199   2.685   1.656 -0.7997 -0.6677  2.7420
 4440TIP3   OH234954   1.179   3.985   5.957 -0.5602 -0.5645 -0.1572
 4440TIP3    H134955   1.230   4.058   5.923 -0.0156 -0.7048  0.3491
 4440TIP3    H234956   1.131   4.021   6.031 -1.2211 -0.4314 -0.6323
 4441TIP3   OH234957   4.073   5.852   6.975  0.7973 -0.0459 -0.4359
 4441TIP3    H134958   4.127   5.774   6.971  0.6324 -0.0983 -2.9078
 4441TIP3    H234959   4.131   5.920   7.010  0.4704 -1.5306  3.4294
 4442TIP3   OH234960   3.120   3.845   6.225  0.0806 -0.3024  0.0285
 4442TIP3    H134961   3.146   3.937   6.222 -0.6198 -0.1121 -1.0155
 4442TIP3    H234962   3.191   3.798   6.182 -0.8430  0.1303 -2.1587
 4443TIP3   OH234963   0.544   4.670   0.511 -0.1773  0.1079 -0.5720
 4443TIP3    H134964   0.624   4.721   0.507 -0.6194  0.8016 -0.7957
 4443TIP3    H234965   0.538   4.627   0.426  0.8706 -1.3943  0.0756
 4444TIP3   OH234966   0.005   4.469   7.697 -0.4586  0.1362 -0.6341
 4444TIP3    H134967   0.077   4.436   7.643 -0.5035 -0.9818 -0.0269
 4444TIP3    H234968  -0.061   4.400   7.695 -1.4759  1.0894 -1.0667
 4445TIP3   OH234969   1.883   3.209   0.228 -0.4316 -0.1000 -0.5867
 4445TIP3    H134970   1.801   3.253   0.209 -1.0465 -1.5986 -1.6319
 4445TIP3    H234971   1.951   3.270   0.197 -0.9844  1.9311  1.8944
 4446TIP3   OH234972   0.325   3.313   6.648 -0.1303 -0.2857  0.7918
 4446TIP3    H134973   0.232   3.300   6.667  0.4217 -1.3601  3.1720
 4446TIP3    H234974   0.333   3.407   6.634 -1.4685 -0.0636  1.3115
 4447TIP3   OH234975   0.024   4.427   1.109  0.0807  0.2055  0.0148
 4447TIP3    H134976   0.055   4.478   1.184  0.4593  0.7249 -0.4821
 4447TIP3    H234977  -0.064   4.399   1.133 -0.3455  1.5501  0.0869
 4448TIP3   OH234978   2.111   0.923   8.072  0.5140 -0.4130  0.4097
 4448TIP3    H134979   2.190   0.974   8.091 -0.9770  3.1590 -1.8989
 4448TIP3    H234980   2.128   0.881   7.989  0.6582 -1.2797  0.8691
 4449TIP3   OH234981   2.441   5.634   2.101 -0.5863  0.4612  0.3255
 4449TIP3    H134982   2.532   5.642   2.130 -0.8516 -1.0099  1.6617
 4449TIP3    H234983   2.436   5.548   2.061 -1.0485  1.1666 -1.2164
 4450TIP3   OH234984   1.568   1.017   7.803 -0.1385  0.3419 -0.3388
 4450TIP3    H134985   1.482   0.996   7.840  0.0079 -0.9657 -0.6821
 4450TIP3    H234986   1.626   0.950   7.838  0.6403  0.8913 -0.5453
 4451TIP3   OH234987   5.067   4.965   1.207  0.1360  0.8259  0.1750
 4451TIP3    H134988   5.131   4.948   1.137 -0.7243  1.4748 -0.7990
 4451TIP3    H234989   5.008   5.030   1.170 -0.0320  1.5974  1.7194
 4452TIP3   OH234990   5.564   6.405   7.483  0.3115  0.7667  0.5063
 4452TIP3    H134991   5.623   6.457   7.429  0.6434 -0.9249 -0.8394
 4452TIP3    H234992   5.621   6.358   7.543  0.1692  0.7112  0.5979
 4453TIP3   OH234993   1.740   3.200   1.464 -0.2040 -0.1924 -0.3295
 4453TIP3    H134994   1.684   3.142   1.412  3.4019 -3.0905 -1.4418
 4453TIP3    H234995   1.726   3.287   1.426 -2.0594 -1.1976 -2.1692
 4454TIP3   OH234996   6.285   0.966   7.143  0.3473  0.0994 -0.7511
 4454TIP3    H134997   6.282   1.056   7.110  0.7628  0.3819 -0.0272
 4454TIP3    H234998   6.309   0.975   7.235 -1.5304 -0.6180 -0.1462
 4455TIP3   OH234999   0.336   1.589   0.104 -0.1107 -0.0232 -0.0982
 4455TIP3    H135000   0.328   1.534   0.182  0.5189  0.0962  0.0580
 4455TIP3    H235001   0.425   1.623   0.108 -0.8477  1.9543  0.4335
 4456TIP3   OH235002   5.888   3.525   0.548  0.0678  0.2985 -0.4901
 4456TIP3    H135003   5.818   3.472   0.509  0.9848  0.3553 -2.3249
 4456TIP3    H235004   5.966   3.470   0.540  0.7732  1.3704 -1.1956
 4457TIP3   OH235005   3.172   1.281   0.586 -0.7716 -0.5017  0.4240
 4457TIP3    H135006   3.101   1.239   0.538  2.1595 -1.9144 -3.1364
 4457TIP3    H235007   3.216   1.210   0.632  1.5713 -0.8453 -2.0620
 4458TIP3   OH235008   6.120   0.918   6.916  0.4195  0.2430 -0.2781
 4458TIP3    H135009   6.178   0.936   6.990 -0.0882 -1.0944  0.4914
 4458TIP3    H235010   6.167   0.952   6.840  0.5413  2.5042  0.7305
 4459TIP3   OH235011   7.001   4.495   0.873  0.7038 -0.0966 -0.7250
 4459TIP3    H135012   7.035   4.498   0.962  0.9185 -0.2387 -0.8014
 4459TIP3    H235013   7.073   4.525   0.818  0.4924  0.2269 -0.8306
 4460TIP3   OH235014   2.749   2.516   6.223 -0.2800  0.3905  0.0670
 4460TIP3    H135015   2.834   2.478   6.204 -0.0716  0.8052  0.1713
 4460TIP3    H235016   2.687   2.466   6.169  0.1332  0.6862 -0.6760
 4461TIP3   OH235017   0.374   6.552   0.013 -0.0989  0.5155  0.3489
 4461TIP3    H135018   0.381   6.503   0.095 -0.6862  0.9686  0.6869
 4461TIP3    H235019   0.434   6.626   0.024  0.5915  0.0270 -0.0548
 4462TIP3   OH235020   4.879   1.431   0.807  0.4391  0.3130 -0.1334
 4462TIP3    H135021   4.860   1.387   0.890 -0.0336  1.0117  0.1362
 4462TIP3    H235022   4.798   1.421   0.756  0.4388  0.6001 -0.1889
 4463TIP3   OH235023   6.154   0.690   1.945 -0.0671  0.3391 -0.2349
 4463TIP3    H135024   6.114   0.704   1.859 -1.0330  1.3067  0.3420
 4463TIP3    H235025   6.115   0.609   1.977 -0.1232  0.2719 -0.4685
 4464TIP3   OH235026   1.361   1.644   2.405 -0.1144  0.1290  0.0400
 4464TIP3    H135027   1.407   1.570   2.366  0.7149  1.2163 -1.1166
 4464TIP3    H235028   1.269   1.631   2.382 -0.3525 -1.6968  1.7774
 4465TIP3   OH235029   6.309   6.884   0.053 -0.3364 -0.0225  0.4134
 4465TIP3    H135030   6.326   6.957   0.112 -0.3287 -0.1463  0.5680
 4465TIP3    H235031   6.268   6.817   0.109 -2.4702  0.7132 -0.1854
 4466TIP3   OH235032   2.977   2.452   7.157  0.8713  0.1865  0.3415
 4466TIP3    H135033   2.945   2.381   7.101  0.5995  1.9527 -1.8543
 4466TIP3    H235034   2.899   2.502   7.180  1.2544  0.6734  0.5930
 4467TIP3   OH235035   5.144   1.668   2.245  0.5527  0.2148  0.4537
 4467TIP3    H135036   5.056   1.699   2.265  0.4135  0.8774 -1.0149
 4467TIP3    H235037   5.200   1.745   2.254  1.1158 -0.3362  1.9860
 4468TIP3   OH235038   7.116   5.775   2.584  0.4337  0.0119 -0.0297
 4468TIP3    H135039   7.110   5.832   2.661 -1.4526 -0.0963 -0.0471
 4468TIP3    H235040   7.095   5.833   2.510  0.1571 -0.3292 -0.2215
 4469TIP3   OH235041   6.795   5.326   1.378  0.7445 -0.2979 -0.0864
 4469TIP3    H135042   6.739   5.402   1.398  0.7647 -0.6261  1.3265
 4469TIP3    H235043   6.749   5.252   1.418  1.1920 -0.8915 -0.6585
 4470TIP3   OH235044   0.513   6.280   0.743  0.1502 -0.2741  0.5167
 4470TIP3    H135045   0.597   6.304   0.784 -0.2406 -0.2834  1.3420
 4470TIP3    H235046   0.457   6.356   0.759 -0.9508 -1.4719  2.7091
 4471TIP3   OH235047   0.767   2.522   7.674  0.1761  0.6623 -0.9770
 4471TIP3    H135048   0.757   2.432   7.643 -0.6653  0.1334  0.7121
 4471TIP3    H235049   0.843   2.518   7.733 -0.0099  1.0111 -0.7129
 4472TIP3   OH235050   2.696   4.491   6.800 -0.0269 -0.0142 -0.4398
 4472TIP3    H135051   2.637   4.536   6.861 -0.6685  0.3927 -1.3359
 4472TIP3    H235052   2.770   4.551   6.791  0.9655 -0.9002  1.3365
 4473TIP3   OH235053   0.220   1.094   6.782 -0.2300  0.1640 -0.1925
 4473TIP3    H135054   0.303   1.088   6.734  1.0634  2.2384  1.5621
 4473TIP3    H235055   0.158   1.127   6.718  0.6241 -0.2234 -1.2493
 4474TIP3   OH235056   3.048   5.308   7.584  0.3735  0.0391 -0.1739
 4474TIP3    H135057   2.974   5.304   7.524  1.4800 -0.8131 -1.5208
 4474TIP3    H235058   3.037   5.392   7.630 -0.5734  0.6454 -1.4512
 4475TIP3   OH235059   2.146   6.156   7.975  0.2220  0.0636 -0.3789
 4475TIP3    H135060   2.138   6.235   7.922  0.2130  0.7690  0.6503
 4475TIP3    H235061   2.082   6.095   7.937 -0.5516  0.9300 -0.5012
 4476TIP3   OH235062   7.059   6.378   7.955  0.1912 -0.4509  0.2151
 4476TIP3    H135063   7.083   6.445   8.020  0.5880 -0.4422  0.0624
 4476TIP3    H235064   7.143   6.343   7.925  0.1906  1.5537 -2.4404
 4477TIP3   OH235065   4.354   0.447   7.815 -0.0550  0.5265  0.2879
 4477TIP3    H135066   4.423   0.404   7.866  0.9513  1.1327 -0.5169
 4477TIP3    H235067   4.323   0.378   7.756 -1.6266 -0.3445  2.0350
 4478TIP3   OH235068   3.287   3.803   0.537  0.2757  0.8060 -0.1293
 4478TIP3    H135069   3.372   3.824   0.500  0.9309  1.2273  1.5282
 4478TIP3    H235070   3.286   3.847   0.623 -1.5287  0.6705 -0.0282
 4479TIP3   OH235071   2.396   4.151   0.709  0.0281  0.6423  0.3781
 4479TIP3    H135072   2.355   4.226   0.752  1.2901  1.5540  0.0615
 4479TIP3    H235073   2.437   4.188   0.630 -1.1622 -0.7711 -0.9618
 4480TIP3   OH235074   6.519   4.350   7.400  0.0352  0.6110 -0.0560
 4480TIP3    H135075   6.541   4.300   7.322 -0.8120 -0.3901  0.3361
 4480TIP3    H235076   6.579   4.317   7.467 -2.1373 -1.7175  0.8626
 4481TIP3   OH235077   2.443   5.442   0.699  0.5078 -0.6119  0.2842
 4481TIP3    H135078   2.412   5.475   0.615  0.0737  1.1473  1.0830
 4481TIP3    H235079   2.426   5.348   0.696 -1.1141 -0.3243 -0.9097
 4482TIP3   OH235080   5.436   4.394   1.933 -0.0554  0.1161  0.4617
 4482TIP3    H135081   5.448   4.402   1.838  1.6435  0.6678  0.6729
 4482TIP3    H235082   5.355   4.345   1.944 -0.8187  0.9351 -1.2611
 4483TIP3   OH235083   0.087   0.734   6.514  0.5190  0.1907 -0.2830
 4483TIP3    H135084   0.179   0.726   6.488  0.5104  0.1266 -0.2938
 4483TIP3    H235085   0.071   0.656   6.568  0.3909  0.0559 -0.5171
 4484TIP3   OH235086   4.064   3.685   7.659  0.1269 -0.2106  0.2931
 4484TIP3    H135087   4.004   3.699   7.586  0.8155  4.9879  0.3460
 4484TIP3    H235088   4.007   3.670   7.734 -0.9010  0.1099 -0.3955
 4485TIP3   OH235089   4.078   2.497   7.293  0.3859 -0.0744  0.5203
 4485TIP3    H135090   3.993   2.519   7.331 -0.1791 -0.8034 -0.2513
 4485TIP3    H235091   4.137   2.565   7.323 -0.1593 -0.2997  2.1770
 4486TIP3   OH235092   3.239   3.474   8.064  0.3226 -0.0424  0.4245
 4486TIP3    H135093   3.152   3.513   8.053  0.6993  0.9333  0.7795
 4486TIP3    H235094   3.227   3.382   8.042 -0.6747  0.1977 -0.0932
 4487TIP3   OH235095   5.763   7.003   6.406 -0.5537 -0.2480  0.1469
 4487TIP3    H135096   5.829   7.004   6.336 -2.0499 -0.9885 -1.3679
 4487TIP3    H235097   5.681   7.026   6.361 -1.3504  0.6793  1.9684
 4488TIP3   OH235098   5.228   0.900   1.775 -0.2490  0.8752  0.2043
 4488TIP3    H135099   5.298   0.917   1.838 -0.1171  0.5450  0.1497
 4488TIP3    H235100   5.149   0.937   1.815 -0.4228 -0.4574  1.1646
 4489TIP3   OH235101   3.049   1.171   6.243 -0.3957 -0.7137 -0.4479
 4489TIP3    H135102   3.051   1.154   6.337 -2.9483 -2.6383 -0.6338
 4489TIP3    H235103   2.957   1.158   6.218 -0.1982  1.6889 -2.9066
 4490TIP3   OH235104   4.385   1.234   1.069  0.9857 -0.2218  0.0154
 4490TIP3    H135105   4.347   1.287   1.139 -0.9896  0.0170 -1.1873
 4490TIP3    H235106   4.324   1.162   1.057  0.8913  0.1330 -1.9505
 4491TIP3   OH235107   7.027   5.199   0.939 -0.2507 -0.0930 -0.2398
 4491TIP3    H135108   7.108   5.206   0.991 -0.0931 -0.3126 -0.4577
 4491TIP3    H235109   6.958   5.223   1.001 -0.0965 -0.6664  0.1620
 4492TIP3   OH235110   6.362   5.845   7.716  0.0309  0.5663 -0.3487
 4492TIP3    H135111   6.326   5.757   7.707  0.2282  0.3578  0.7380
 4492TIP3    H235112   6.455   5.835   7.696  0.0756  0.4988 -0.1134
 4493TIP3   OH235113   2.410   0.775   0.436  0.7129 -0.0438  0.3874
 4493TIP3    H135114   2.435   0.864   0.411  0.9820 -0.0536  0.6076
 4493TIP3    H235115   2.383   0.733   0.354  2.2642 -0.2970 -0.0294
 4494TIP3   OH235116   0.405   2.376   1.156 -0.2180  0.1863  0.2740
 4494TIP3    H135117   0.384   2.430   1.079 -0.1360 -0.0084  0.1136
 4494TIP3    H235118   0.363   2.292   1.138  1.7668 -0.6727 -0.6856
 4495TIP3   OH235119   4.304   4.842   1.053  0.5303 -0.0891  0.7499
 4495TIP3    H135120   4.370   4.856   1.121  1.1461 -0.1074  0.1629
 4495TIP3    H235121   4.309   4.920   0.998 -0.5616  0.3182  1.2036
 4496TIP3   OH235122   3.493   3.962   6.250 -0.6470  0.1967 -0.0492
 4496TIP3    H135123   3.420   4.018   6.223  1.1206  1.7429 -1.8732
 4496TIP3    H235124   3.489   3.887   6.191  0.0966  1.0259 -1.1907
 4497TIP3   OH235125   0.741   4.695   1.385 -0.6160 -0.7978 -0.0472
 4497TIP3    H135126   0.789   4.777   1.398 -0.7190 -0.8701  0.8498
 4497TIP3    H235127   0.768   4.640   1.458 -0.7305 -1.4773 -0.5149
 4498TIP3   OH235128   1.794   2.264   6.409  0.1814 -0.3847  0.4792
 4498TIP3    H135129   1.815   2.343   6.360  1.1802 -0.6751  0.4275
 4498TIP3    H235130   1.713   2.232   6.369 -0.9684  1.2883  1.3400
 4499TIP3   OH235131   1.360   5.777   7.214 -0.4731  0.6794  0.0840
 4499TIP3    H135132   1.433   5.717   7.201 -0.2862  0.8176  0.4930
 4499TIP3    H235133   1.396   5.863   7.194 -0.8611  0.6245 -0.9624
 4500TIP3   OH235134   4.371   4.500   0.453  0.1922  0.0158  0.9862
 4500TIP3    H135135   4.345   4.428   0.510 -1.1590  0.0305  0.4284
 4500TIP3    H235136   4.321   4.576   0.485 -0.2739  0.1165  0.0688
 4501TIP3   OH235137   3.324   6.567   7.623  0.0603  0.3842  0.0385
 4501TIP3    H135138   3.300   6.480   7.590  1.7433 -0.0869 -0.0130
 4501TIP3    H235139   3.330   6.621   7.544 -0.6320  0.4606  0.0356
 4502TIP3   OH235140   1.929   6.160   7.705  0.5154  0.3358 -0.1859
 4502TIP3    H135141   1.923   6.190   7.615  0.7369  0.0724 -0.2893
 4502TIP3    H235142   1.892   6.231   7.757 -1.2216 -0.2217 -0.6137
 4503TIP3   OH235143   4.679   5.818   1.780 -0.5716 -0.0371  0.2706
 4503TIP3    H135144   4.721   5.883   1.837  0.6035 -0.1503 -0.4335
 4503TIP3    H235145   4.670   5.863   1.696 -0.0872 -0.6531 -0.1195
 4504TIP3   OH235146   1.181   3.646   7.906  0.2523 -0.0006  0.3375
 4504TIP3    H135147   1.106   3.690   7.945  0.3317  0.8208 -0.4122
 4504TIP3    H235148   1.257   3.694   7.939  0.3675  0.0819 -0.0415
 4505TIP3   OH235149   4.014   2.369   7.625  0.3248 -0.4537  0.3407
 4505TIP3    H135150   4.093   2.317   7.642 -0.1721 -0.8086  1.6954
 4505TIP3    H235151   4.048   2.455   7.600  1.1886 -1.5935 -2.9303
 4506TIP3   OH235152   5.720   5.074   1.727  0.2666 -0.1810  0.2082
 4506TIP3    H135153   5.734   5.151   1.782  4.1756  0.4040 -1.3143
 4506TIP3    H235154   5.777   5.007   1.764  0.5547 -0.7761 -1.2534
 4507TIP3   OH235155   2.164   2.648   0.744  0.0143 -0.1637  0.8215
 4507TIP3    H135156   2.155   2.742   0.728  2.9060 -0.1737 -1.6714
 4507TIP3    H235157   2.152   2.640   0.839  0.0764  2.7832  1.1921
 4508TIP3   OH235158   2.802   3.367   7.722  0.2149 -0.0709 -0.2790
 4508TIP3    H135159   2.742   3.308   7.768  1.5500 -0.5141  0.9847
 4508TIP3    H235160   2.752   3.447   7.708 -1.0742 -0.8823 -0.4648
 4509TIP3   OH235161   1.556   4.533   7.867 -0.0912  0.1395 -0.0451
 4509TIP3    H135162   1.495   4.475   7.913  0.2209  1.2335  1.9050
 4509TIP3    H235163   1.502   4.575   7.800 -0.6747 -1.2718 -0.4890
 4510TIP3   OH235164   2.638   2.665   0.570 -0.2049  0.7341  0.0798
 4510TIP3    H135165   2.607   2.686   0.657  0.2132  0.7053  0.2369
 4510TIP3    H235166   2.672   2.575   0.577 -0.7481  0.4900 -0.2645
 4511TIP3   OH235167   1.472   3.346   0.960 -0.6323 -0.5835  0.4423
 4511TIP3    H135168   1.434   3.343   1.048 -0.0436  1.9326  0.8557
 4511TIP3    H235169   1.540   3.279   0.961 -2.0093 -2.0451  1.1694
 4512TIP3   OH235170   4.366   1.264   1.338 -0.0894 -0.2625  0.4729
 4512TIP3    H135171   4.448   1.312   1.344  0.9636 -2.0145  0.6429
 4512TIP3    H235172   4.391   1.177   1.308 -2.0205 -0.5101 -0.5535
 4513TIP3   OH235173   6.846   5.422   7.972  0.0046  0.1282  0.0318
 4513TIP3    H135174   6.843   5.327   7.987 -0.4597  0.0458 -0.4934
 4513TIP3    H235175   6.856   5.460   8.059 -0.6275 -0.3783  0.3384
 4514TIP3   OH235176   1.350   1.339   1.520 -0.0264  0.3905 -0.1125
 4514TIP3    H135177   1.268   1.388   1.529  1.0310  2.9000 -2.5121
 4514TIP3    H235178   1.402   1.366   1.596 -0.8376 -0.0615  0.6245
 4515TIP3   OH235179   3.070   0.777   7.960  0.0501 -0.4172  0.1934
 4515TIP3    H135180   3.015   0.723   8.016  1.3962 -1.5858  0.4369
 4515TIP3    H235181   3.026   0.862   7.959 -1.3750 -1.1086  0.9172
 4516TIP3   OH235182   7.118   1.081   6.929 -0.0436  0.6948  0.2043
 4516TIP3    H135183   7.070   1.144   6.875  2.5120  3.9345  1.3792
 4516TIP3    H235184   7.203   1.073   6.887  0.7229  0.4138  1.7292
 4517TIP3   OH235185   1.253   6.518   1.915  0.3523  0.1857  0.4617
 4517TIP3    H135186   1.325   6.458   1.891  1.5429  1.7299  0.0387
 4517TIP3    H235187   1.233   6.564   1.833 -0.2144  0.7069  0.8907
 4518TIP3   OH235188   4.867   1.799   7.835  0.1214  0.0244  0.2067
 4518TIP3    H135189   4.858   1.787   7.929  1.0742  1.2898  0.4973
 4518TIP3    H235190   4.960   1.784   7.817  0.3088  1.4881 -0.2180
 4519TIP3   OH235191   3.313   0.558   0.661 -0.2217 -0.3684  0.4669
 4519TIP3    H135192   3.379   0.601   0.716  0.6872 -1.2776  0.1156
 4519TIP3    H235193   3.296   0.620   0.590 -0.9949  0.5767  1.4414
 4520TIP3   OH235194   0.951   1.456   7.478  0.3677  0.9025  0.8304
 4520TIP3    H135195   0.867   1.497   7.458 -0.1243 -1.0933 -1.6707
 4520TIP3    H235196   0.966   1.476   7.570 -1.9526  2.8414  0.8794
 4521TIP3   OH235197   3.411   4.456   0.657 -0.3505  0.0214 -0.3376
 4521TIP3    H135198   3.415   4.551   0.663  2.5237  0.0104 -0.4272
 4521TIP3    H235199   3.501   4.430   0.638 -1.2431 -2.6704 -1.3347
 4522TIP3   OH235200   5.596   0.823   0.194  0.1670 -0.3570 -0.1216
 4522TIP3    H135201   5.621   0.730   0.197 -0.5920 -0.5585  0.1409
 4522TIP3    H235202   5.679   0.869   0.184  0.3908 -1.1752 -2.5968
 4523TIP3   OH235203   3.610   2.765   1.112 -0.0042  0.6280  0.4795
 4523TIP3    H135204   3.518   2.788   1.120 -0.8529 -1.5478 -1.7726
 4523TIP3    H235205   3.634   2.792   1.023  1.5576  1.0860  0.9943
 4524TIP3   OH235206   0.373   1.780   6.722 -0.0808  0.0853 -0.2084
 4524TIP3    H135207   0.426   1.815   6.649 -0.8889  0.7232 -0.5111
 4524TIP3    H235208   0.404   1.690   6.733 -0.5970 -0.3634 -2.0068
 4525TIP3   OH235209   5.261   2.763   1.964  0.6049 -0.4149  0.6599
 4525TIP3    H135210   5.177   2.724   1.989  0.2867 -0.7052 -0.7815
 4525TIP3    H235211   5.324   2.723   2.024 -0.3236  0.1768  2.0913
 4526TIP3   OH235212   6.294   2.820   0.583  0.4697  0.6111 -0.3096
 4526TIP3    H135213   6.320   2.909   0.605 -0.7788  0.8041  0.4702
 4526TIP3    H235214   6.241   2.829   0.504 -1.1721  0.8294  0.7512
 4527TIP3   OH235215   2.147   6.834   6.696 -0.0543  0.2266  0.7196
 4527TIP3    H135216   2.099   6.756   6.669 -0.0973  0.5512 -0.1695
 4527TIP3    H235217   2.175   6.875   6.614  1.3342  0.3095  1.2043
 4528TIP3   OH235218   0.601   5.540   6.009  0.0759  0.5747  0.2563
 4528TIP3    H135219   0.551   5.504   5.936 -0.0377  1.5306 -0.1556
 4528TIP3    H235220   0.691   5.510   5.993 -0.1612 -0.2086  0.3807
 4529TIP3   OH235221   5.429   0.415   1.369 -0.1892 -0.1693 -0.6760
 4529TIP3    H135222   5.340   0.414   1.406  0.2339 -0.3005  0.3683
 4529TIP3    H235223   5.477   0.477   1.424  1.3042 -2.7021  1.0529
 4530TIP3   OH235224   3.735   5.698   2.217  0.5719  0.0925  0.2020
 4530TIP3    H135225   3.644   5.689   2.245 -0.0671  1.6710 -1.1610
 4530TIP3    H235226   3.729   5.744   2.132  2.6279  0.1296  0.0275
 4531TIP3   OH235227   5.263   6.242   6.663  0.1435  0.1951  0.4452
 4531TIP3    H135228   5.329   6.309   6.685 -0.3831  0.6498  0.6775
 4531TIP3    H235229   5.212   6.282   6.593  2.1925 -1.4849 -2.1782
 4532TIP3   OH235230   0.737   5.472   7.930 -0.0696 -0.3893 -0.7256
 4532TIP3    H135231   0.733   5.422   8.012  0.0933 -0.2804 -0.6519
 4532TIP3    H235232   0.823   5.453   7.894 -0.2922 -0.7585 -1.0771
 4533TIP3   OH235233   1.321   3.342   0.238  0.4353 -0.1442  0.0496
 4533TIP3    H135234   1.269   3.418   0.212 -1.2439 -0.9972  0.7797
 4533TIP3    H235235   1.400   3.347   0.184 -1.4676 -0.1313 -2.9273
 4534TIP3   OH235236   5.922   0.563   0.110 -0.2481 -0.0156 -0.2639
 4534TIP3    H135237   5.906   0.497   0.178  1.9213 -0.0808  0.2785
 4534TIP3    H235238   5.957   0.514   0.036 -1.3261  0.2215 -0.9488
 4535TIP3   OH235239   1.802   1.265   1.697 -0.2748  0.8729  0.1312
 4535TIP3    H135240   1.864   1.328   1.735  1.2449 -0.4645 -0.0083
 4535TIP3    H235241   1.780   1.207   1.770 -1.4005  1.3438  0.1766
 4536TIP3   OH235242   1.001   5.005   6.391  0.1316 -0.0003 -0.1691
 4536TIP3    H135243   0.927   5.059   6.419 -0.2228 -0.5839  0.0556
 4536TIP3    H235244   1.050   5.060   6.331 -0.7137  0.2596 -0.6366
 4537TIP3   OH235245   0.778   2.390   1.288 -0.0814  0.3404  0.2025
 4537TIP3    H135246   0.815   2.441   1.360  0.6111  0.0208  0.0838
 4537TIP3    H235247   0.818   2.303   1.297 -0.6815  0.0340 -0.0345
 4538TIP3   OH235248   3.808   2.294   2.218 -0.1731  0.6154  0.3812
 4538TIP3    H135249   3.892   2.340   2.213 -0.1450  0.8882  2.3223
 4538TIP3    H235250   3.826   2.219   2.276 -0.7086 -0.7356 -1.1147
 4539TIP3   OH235251   6.006   6.265   1.010  0.4430 -0.2205  0.2965
 4539TIP3    H135252   5.925   6.304   0.979  0.7093  1.5912  1.6846
 4539TIP3    H235253   6.020   6.303   1.097  3.1614  0.1309 -0.1936
 4540TIP3   OH235254   4.447   4.219   7.827 -0.1280  0.1123  0.6864
 4540TIP3    H135255   4.417   4.276   7.756 -0.5829 -1.5979 -0.5547
 4540TIP3    H235256   4.542   4.214   7.816 -0.3572 -1.4721 -0.8938
 4541TIP3   OH235257   7.027   0.309   7.885  0.2693 -0.3194 -0.5511
 4541TIP3    H135258   6.938   0.343   7.893  0.4316  0.1637 -0.7700
 4541TIP3    H235259   7.020   0.239   7.820  0.0012 -0.4541 -0.3779
 4542TIP3   OH235260   5.058   2.437   1.144  0.6782  0.7678  0.0514
 4542TIP3    H135261   5.065   2.345   1.171 -0.4597  0.3297 -1.0544
 4542TIP3    H235262   5.146   2.460   1.113  1.1026  0.2254  0.8206
 4543TIP3   OH235263   5.925   6.890   0.069  0.3775  0.6289 -0.4966
 4543TIP3    H135264   5.881   6.899  -0.015 -0.2107  0.5888 -0.1946
 4543TIP3    H235265   6.018   6.902   0.048  0.4649 -1.3490 -1.4834
 4544TIP3   OH235266   2.483   2.332   8.119 -0.4247  0.2367  0.4667
 4544TIP3    H135267   2.494   2.364   8.029 -1.8535 -1.0144 -0.1826
 4544TIP3    H235268   2.503   2.409   8.173  0.6747  0.9650 -0.8772
 4545TIP3   OH235269   7.077   0.127   7.678  0.3394 -0.1207 -0.8084
 4545TIP3    H135270   7.156   0.095   7.634  0.4755 -0.8728 -0.0385
 4545TIP3    H235271   7.007   0.111   7.614  0.3593 -2.2648 -0.3600
 4546TIP3   OH235272   0.677   6.713   0.756  0.3840  0.0796 -0.0952
 4546TIP3    H135273   0.634   6.798   0.746 -2.8082 -1.4024  0.0203
 4546TIP3    H235274   0.698   6.686   0.667 -0.9032 -0.0817 -0.3650
 4547TIP3   OH235275   2.249   3.582   0.805 -0.3403 -0.3709  0.1362
 4547TIP3    H135276   2.187   3.521   0.763 -0.1026 -0.6426  0.1761
 4547TIP3    H235277   2.204   3.666   0.803 -0.2667 -0.3337 -0.8386
 4548TIP3   OH235278   5.739   4.285   0.489 -0.7058 -0.3227  0.1901
 4548TIP3    H135279   5.697   4.363   0.526 -1.5103  0.2284 -1.7676
 4548TIP3    H235280   5.723   4.216   0.553 -1.2453  0.7833  1.2808
 4549TIP3   OH235281   0.996   1.888   6.461  0.8097  0.0347  0.1601
 4549TIP3    H135282   1.030   1.944   6.391  0.4460 -0.1749 -0.1818
 4549TIP3    H235283   0.924   1.840   6.421  0.7001 -0.1992  0.6367
 4550TIP3   OH235284   3.189   1.610   7.239 -0.1815 -0.2282 -0.2674
 4550TIP3    H135285   3.279   1.596   7.209 -0.1757 -1.6458  0.3232
 4550TIP3    H235286   3.187   1.701   7.268  0.4670  0.4444 -2.2299
 4551TIP3   OH235287   1.904   1.995   6.236 -0.4603 -0.3090  0.1815
 4551TIP3    H135288   1.867   1.908   6.252  0.4718 -0.7341  0.0989
 4551TIP3    H235289   1.912   2.034   6.323  0.2007 -0.7703  0.3360
 4552TIP3   OH235290   5.265   3.063   1.855 -0.1537  0.2530 -0.1794
 4552TIP3    H135291   5.277   2.983   1.906  1.2135  0.1506 -0.6065
 4552TIP3    H235292   5.252   3.132   1.920  0.5815 -0.0281  0.2776
 4553TIP3   OH235293   3.056   5.528   7.026 -0.3178 -0.4172 -0.0089
 4553TIP3    H135294   3.132   5.469   7.018  1.0941  1.0087  1.9491
 4553TIP3    H235295   3.035   5.551   6.936  1.5976 -0.8859 -0.6404
 4554TIP3   OH235296   1.537   0.527   0.352  0.0596  0.2102  0.5695
 4554TIP3    H135297   1.444   0.547   0.366 -0.1100 -0.7559  0.8922
 4554TIP3    H235298   1.571   0.604   0.306 -1.7951 -1.0009 -3.1931
 4555TIP3   OH235299   4.931   6.665   0.286  0.3311 -0.0909  0.2362
 4555TIP3    H135300   4.909   6.744   0.335  0.0581  0.8000 -1.2652
 4555TIP3    H235301   5.027   6.661   0.290  0.3154 -0.0053  0.7834
 4556TIP3   OH235302   0.814   2.370   7.263  0.0489 -0.5847 -0.4719
 4556TIP3    H135303   0.802   2.449   7.317  1.1341 -0.5445 -0.2667
 4556TIP3    H235304   0.814   2.402   7.173 -0.2753 -0.4490 -0.4233
 4557TIP3   OH235305   4.233   0.052   1.963  0.0925 -0.7967 -0.1944
 4557TIP3    H135306   4.252   0.146   1.964 -0.4448 -0.6624 -1.2635
 4557TIP3    H235307   4.313   0.011   1.931 -0.1821 -0.5511 -1.2360
 4558TIP3   OH235308   4.433   2.185   6.101 -0.3152  0.3340 -0.1763
 4558TIP3    H135309   4.409   2.093   6.090  0.4959  0.0897  0.0405
 4558TIP3    H235310   4.471   2.209   6.016 -2.1316  0.9895 -0.8451
 4559TIP3   OH235311   5.119   1.789   0.024 -0.0450 -0.0635  0.3450
 4559TIP3    H135312   5.160   1.744   0.097  0.3349  0.5859  0.5433
 4559TIP3    H235313   5.192   1.814  -0.033 -0.1495  1.1066  0.7031
 4560TIP3   OH235314   5.487   0.432   8.001 -0.0945 -0.5338 -0.2143
 4560TIP3    H135315   5.502   0.506   7.942  0.7892 -1.8035 -1.6329
 4560TIP3    H235316   5.534   0.456   8.081  0.3878  0.3193 -0.7372
 4561TIP3   OH235317   1.762   0.949   1.773  0.2301 -0.2385  0.8832
 4561TIP3    H135318   1.789   0.999   1.850  2.1679 -2.1016  1.5026
 4561TIP3    H235319   1.673   0.920   1.794  0.2251  0.3941  1.8184
 4562TIP3   OH235320   6.424   4.130   0.830 -0.3637 -0.2112 -0.1887
 4562TIP3    H135321   6.349   4.071   0.826 -1.0867  0.7333 -1.2796
 4562TIP3    H235322   6.498   4.075   0.857 -1.0199 -1.6003 -1.1611
 4563TIP3   OH235323   1.605   6.334   1.531  0.3521 -0.8112  0.9053
 4563TIP3    H135324   1.633   6.411   1.482 -0.6544 -0.8931  0.1684
 4563TIP3    H235325   1.517   6.357   1.563  0.6864 -1.0497  2.0464
 4564TIP3   OH235326   4.571   6.636   6.282 -0.0725  0.3869  0.4911
 4564TIP3    H135327   4.602   6.713   6.331 -0.8227  0.9624  0.0921
 4564TIP3    H235328   4.489   6.666   6.242 -0.1268 -0.4842 -0.0531
 4565TIP3   OH235329   4.932   3.335   7.072  0.8343 -0.6305  0.5399
 4565TIP3    H135330   4.969   3.247   7.059 -1.7985 -1.5828 -1.4409
 4565TIP3    H235331   4.924   3.343   7.167  0.0188 -3.0917  0.7601
 4566TIP3   OH235332   0.803   5.559   1.253 -0.4083 -0.4925 -0.2851
 4566TIP3    H135333   0.745   5.610   1.310 -2.3033 -1.8391 -0.9325
 4566TIP3    H235334   0.880   5.542   1.307 -0.0402  2.2746  0.2433
 4567TIP3   OH235335   4.700   6.643   0.044 -0.4140  0.0365 -0.6111
 4567TIP3    H135336   4.772   6.685  -0.004  0.1599 -0.1913  0.0330
 4567TIP3    H235337   4.727   6.647   0.136 -1.5015  0.4775 -0.2936
 4568TIP3   OH235338   0.181   0.427   0.972  0.3539 -0.4559 -0.2574
 4568TIP3    H135339   0.252   0.429   1.036 -0.3194 -1.9812  0.5803
 4568TIP3    H235340   0.116   0.489   1.006  0.1198 -1.0550  0.4078
 4569TIP3   OH235341   1.223   2.374   7.246 -0.2266 -0.0978  0.1097
 4569TIP3    H135342   1.195   2.283   7.259  0.0310  0.0274  1.7843
 4569TIP3    H235343   1.318   2.372   7.254 -0.2783  0.4248  1.0278
 4570TIP3   OH235344   5.136   1.758   7.808  0.2904 -0.5775 -0.4685
 4570TIP3    H135345   5.199   1.803   7.864 -0.3252 -0.9521  0.5405
 4570TIP3    H235346   5.155   1.665   7.821 -0.8822 -0.7229  0.3618
 4571TIP3   OH235347   1.683   0.191   1.152  0.3443 -0.4732  0.4487
 4571TIP3    H135348   1.677   0.110   1.203  0.5672  0.2453  1.6356
 4571TIP3    H235349   1.596   0.230   1.160 -0.4129 -1.5196 -1.7665
 4572TIP3   OH235350   1.000   6.509   0.922  0.4231 -0.7676  0.1956
 4572TIP3    H135351   1.005   6.471   1.009  0.2406 -0.4619  0.3416
 4572TIP3    H235352   1.089   6.541   0.905  0.5666 -1.2115  0.0888
 4573TIP3   OH235353   2.627   4.302   0.860 -0.1586 -0.4603  0.4201
 4573TIP3    H135354   2.657   4.363   0.928 -1.1637 -0.0504  0.5019
 4573TIP3    H235355   2.534   4.321   0.850  0.1354  0.0998 -1.7007
 4574TIP3   OH235356   6.740   0.749   6.412 -0.0581 -0.5031  1.0272
 4574TIP3    H135357   6.678   0.765   6.341  0.9708 -2.1006 -0.3038
 4574TIP3    H235358   6.705   0.673   6.458  0.2548 -0.6095  1.0877
 4575TIP3   OH235359   0.742   2.282   0.227 -0.3419 -1.1571  0.5249
 4575TIP3    H135360   0.754   2.273   0.322 -1.7061  0.5890  0.9156
 4575TIP3    H235361   0.697   2.365   0.216 -1.2010 -1.8196 -1.5982
 4576TIP3   OH235362   6.016   2.797   2.027  0.5588 -0.1195 -0.0535
 4576TIP3    H135363   6.112   2.802   2.031  0.6647 -2.0468  1.4867
 4576TIP3    H235364   5.996   2.708   2.057 -1.6695 -0.2434 -1.6493
 4577TIP3   OH235365   0.922   6.215   1.534 -0.0854 -0.0126 -0.4416
 4577TIP3    H135366   0.942   6.124   1.557 -0.2127  0.2941  1.0342
 4577TIP3    H235367   1.008   6.257   1.530 -0.0851  0.0655  0.1805
 4578TIP3   OH235368   2.207   1.323   7.488 -0.3561  0.3088 -0.4368
 4578TIP3    H135369   2.195   1.228   7.479 -0.1002  0.3234 -0.9938
 4578TIP3    H235370   2.227   1.336   7.580  0.0348 -0.2317 -0.4365
 4579TIP3   OH235371   4.527   5.932   0.149  0.3211 -0.1248  0.2152
 4579TIP3    H135372   4.509   6.018   0.188  2.8879  1.5395 -1.8951
 4579TIP3    H235373   4.540   5.874   0.223 -1.4000  1.2765  1.7175
 4580TIP3   OH235374   5.700   1.465   6.552 -0.1444 -0.0016 -0.1879
 4580TIP3    H135375   5.689   1.466   6.457 -0.5813  1.4125 -0.1350
 4580TIP3    H235376   5.633   1.404   6.583  0.8947 -1.5580 -0.8597
 4581TIP3   OH235377   1.834   0.719   6.428 -0.6352  0.4878  0.1629
 4581TIP3    H135378   1.814   0.771   6.506 -1.2806  0.9200 -0.2850
 4581TIP3    H235379   1.776   0.643   6.435 -0.2187  0.1951  0.4417
 4582TIP3   OH235380   6.137   3.958   7.608 -0.2458  0.0827 -0.2516
 4582TIP3    H135381   6.114   3.935   7.698  0.6335 -0.3954 -0.1419
 4582TIP3    H235382   6.205   4.025   7.617 -0.9765  0.8804 -0.5688
 4583TIP3   OH235383   6.478   3.933   7.738  0.2394 -0.0466 -0.4187
 4583TIP3    H135384   6.446   3.844   7.747  0.4744 -0.0516  0.4767
 4583TIP3    H235385   6.495   3.944   7.644 -1.2252 -0.4250 -0.7419
 4584TIP3   OH235386   6.206   0.575   7.545  0.7184 -0.2766  0.0442
 4584TIP3    H135387   6.242   0.586   7.457  0.2112 -1.6182 -0.3386
 4584TIP3    H235388   6.236   0.653   7.592  1.6279  0.0904 -1.0956
 4585TIP3   OH235389   7.037   0.315   1.117 -0.2144  0.8690  0.1879
 4585TIP3    H135390   7.068   0.347   1.202 -0.4856  0.3161  0.5019
 4585TIP3    H235391   6.992   0.390   1.078 -1.0154  0.8215  1.0004
 4586TIP3   OH235392   2.499   5.726   5.793  0.4340  0.4464 -0.1431
 4586TIP3    H135393   2.562   5.742   5.863 -0.7892  1.8136  0.7126
 4586TIP3    H235394   2.414   5.743   5.833 -0.3637  0.3588 -1.7213
 4587TIP3   OH235395   0.341   6.937   1.823 -0.6370 -0.6792  0.1701
 4587TIP3    H135396   0.345   6.997   1.748  0.1651  0.2630  0.9426
 4587TIP3    H235397   0.312   6.991   1.896 -0.6811 -1.4196  0.7133
 4588TIP3   OH235398   1.311   4.146   0.966 -0.6940  0.2972 -0.1412
 4588TIP3    H135399   1.245   4.206   0.933 -0.2741  0.8711  0.0470
 4588TIP3    H235400   1.292   4.063   0.923 -1.4021  0.5116 -0.2486
 4589TIP3   OH235401   5.681   4.815   7.006 -0.0616 -0.2852 -0.3571
 4589TIP3    H135402   5.738   4.846   7.077  1.1048 -0.4732 -1.1878
 4589TIP3    H235403   5.623   4.752   7.049  0.5593 -0.3269  0.4655
 4590TIP3   OH235404   2.282   5.741   6.128 -0.1487  0.3451  0.1400
 4590TIP3    H135405   2.217   5.798   6.169  1.5235  1.0656  1.9704
 4590TIP3    H235406   2.269   5.754   6.034 -3.0818 -0.1347  0.3845
 4591TIP3   OH235407   2.516   4.981   7.495 -0.2767  0.6602 -0.0836
 4591TIP3    H135408   2.568   4.992   7.415  0.5427 -0.5164  0.2716
 4591TIP3    H235409   2.458   4.908   7.476  1.4758 -1.1242  1.1390
 4592TIP3   OH235410   4.783   1.932   0.518 -0.1112 -0.0428 -0.4564
 4592TIP3    H135411   4.860   1.951   0.571  0.2629  0.8648 -1.2917
 4592TIP3    H235412   4.769   1.838   0.529  0.8185 -0.1302  0.1026
 4593TIP3   OH235413   6.069   6.949   1.305 -0.2187  0.6016  0.5546
 4593TIP3    H135414   6.002   7.014   1.287  0.5681  1.1491 -0.5292
 4593TIP3    H235415   6.132   6.959   1.233 -0.3734 -1.7550  0.0074
 4594TIP3   OH235416   3.956   4.025   0.707 -0.8439  0.1345  0.2782
 4594TIP3    H135417   3.894   4.090   0.676  0.1363  1.7417  1.5279
 4594TIP3    H235418   3.901   3.952   0.736 -2.0765  1.0141  0.2354
 4595TIP3   OH235419   2.756   5.175   7.048 -0.5538 -0.3070  0.1103
 4595TIP3    H135420   2.810   5.253   7.053 -1.9646  0.6080  2.3319
 4595TIP3    H235421   2.814   5.108   7.010  1.5269  1.1016  0.6496
 4596TIP3   OH235422   3.345   5.627   6.667  0.2245 -0.0931  0.7191
 4596TIP3    H135423   3.380   5.543   6.698 -1.2167 -0.4492  1.4944
 4596TIP3    H235424   3.334   5.679   6.747  1.0889  0.8400  0.2474
 4597TIP3   OH235425   2.604   7.103   7.939  0.5347 -0.0965  0.4512
 4597TIP3    H135426   2.586   7.191   7.970  1.1438 -0.5095  2.1190
 4597TIP3    H235427   2.648   7.115   7.855  0.1234  1.1588  0.4042
 4598TIP3   OH235428   2.939   2.644   1.246 -0.7500  0.1745  0.0504
 4598TIP3    H135429   3.021   2.599   1.266 -1.3893 -0.2953  1.8299
 4598TIP3    H235430   2.912   2.608   1.161  0.2652 -0.5532  0.0150
 4599TIP3   OH235431   0.169   5.089   6.887  0.6879  0.1730 -0.2726
 4599TIP3    H135432   0.140   4.999   6.872  0.5307 -0.2374  2.0456
 4599TIP3    H235433   0.120   5.141   6.825 -1.6043 -1.0175  0.4335
 4600TIP3   OH235434   6.339   3.848   6.942  0.5437 -0.6647  0.4619
 4600TIP3    H135435   6.368   3.768   6.899 -0.7204  0.0995 -1.9426
 4600TIP3    H235436   6.391   3.918   6.902 -0.7222  0.0779  0.0491
 4601TIP3   OH235437   5.075   2.637   6.306  0.6862  0.7594 -0.1244
 4601TIP3    H135438   5.085   2.542   6.302  1.4458  0.6658  2.3199
 4601TIP3    H235439   5.163   2.670   6.288 -0.0780  1.2480 -3.7983
 4602TIP3   OH235440   2.969   4.780   0.346  0.5190  0.1215 -0.2174
 4602TIP3    H135441   2.961   4.875   0.353 -0.3587  0.0686 -0.4426
 4602TIP3    H235442   2.929   4.746   0.426 -1.6184 -0.1458 -1.3400
 4603TIP3   OH235443   0.111   5.027   1.632  0.0067 -0.2650  0.2236
 4603TIP3    H135444   0.022   5.022   1.597  0.2661  1.0096 -0.7018
 4603TIP3    H235445   0.141   4.936   1.634 -0.5813 -0.5324 -1.4406
 4604TIP3   OH235446   3.275   4.764   0.467 -0.1915 -0.2369  0.4282
 4604TIP3    H135447   3.335   4.734   0.536  0.0365 -1.2237 -0.1862
 4604TIP3    H235448   3.212   4.820   0.514  0.1531 -0.6190  1.3836
 4605TIP3   OH235449   5.187   1.529   0.997 -0.0527 -0.1760 -0.4349
 4605TIP3    H135450   5.159   1.460   0.936 -1.3432 -1.1752  1.2088
 4605TIP3    H235451   5.149   1.609   0.961  1.2940 -0.2954 -2.2610
 4606TIP3   OH235452   0.429   6.568   5.509  0.0760  0.1576  0.6617
 4606TIP3    H135453   0.483   6.575   5.588  1.6595  2.0589 -0.5011
 4606TIP3    H235454   0.492   6.557   5.438 -1.2749 -0.7316 -0.4587
 4607TIP3   OH235455   5.566   5.991   6.699  0.2308 -0.0092 -0.9803
 4607TIP3    H135456   5.652   6.032   6.694  0.7453 -0.3008  2.9426
 4607TIP3    H235457   5.504   6.064   6.695  0.9633  0.8373  1.4855
 4608TIP3   OH235458   6.288   5.544   8.035  0.5294 -0.0204  0.3469
 4608TIP3    H135459   6.362   5.581   7.987 -0.5396  0.2013 -1.2032
 4608TIP3    H235460   6.309   5.558   8.127  0.7114  3.5021 -0.0922
 4609TIP3   OH235461   1.356   6.286   7.271 -0.1736  0.1403 -0.0291
 4609TIP3    H135462   1.387   6.358   7.216  0.0755 -0.3205 -0.4986
 4609TIP3    H235463   1.313   6.329   7.345 -1.3351  0.7861 -1.0434
 4610TIP3   OH235464   5.095   5.737   6.677 -0.0350  0.6353  0.4227
 4610TIP3    H135465   5.186   5.764   6.686 -0.0855  0.5739  1.1723
 4610TIP3    H235466   5.051   5.814   6.641  0.6394  0.0649 -1.8436
 4611TIP3   OH235467   4.360   0.059   7.806 -0.5481 -0.7438  0.6236
 4611TIP3    H135468   4.400  -0.006   7.748  2.4548  0.5872  1.0261
 4611TIP3    H235469   4.348   0.012   7.889  0.0767 -1.2279  0.4496
 4612TIP3   OH235470   6.191   5.320   0.443 -0.1643  0.3314  0.0367
 4612TIP3    H135471   6.181   5.304   0.349 -0.7636  0.1429  0.1242
 4612TIP3    H235472   6.270   5.373   0.451  0.2256 -0.1541 -0.5224
 4613TIP3   OH235473   6.957   0.227   6.024 -0.1657  0.4515  0.4602
 4613TIP3    H135474   6.942   0.234   5.929  0.1600  0.8977  0.4411
 4613TIP3    H235475   6.953   0.133   6.041 -0.7023  0.3982  0.0828
 4614TIP3   OH235476   4.942   2.164   6.326  0.1791  0.4630  0.6115
 4614TIP3    H135477   5.031   2.130   6.321  0.4650  0.9870  1.8151
 4614TIP3    H235478   4.900   2.132   6.247  0.7358 -1.7884  1.1538
 4615TIP3   OH235479   0.582   1.451   1.417  0.6571 -0.5755 -0.3516
 4615TIP3    H135480   0.672   1.424   1.399  0.4908 -1.5440  0.1846
 4615TIP3    H235481   0.532   1.416   1.343  0.5784 -0.9491 -0.1264
 4616TIP3   OH235482   1.727   1.107   5.828 -0.2754  0.0111 -0.2141
 4616TIP3    H135483   1.734   1.027   5.879 -0.0206  0.1724  0.0007
 4616TIP3    H235484   1.813   1.119   5.788 -0.7099 -0.5896 -1.3943
 4617TIP3   OH235485   1.378   3.796   7.262  0.0662 -0.2746  0.1252
 4617TIP3    H135486   1.433   3.738   7.315 -0.6333 -0.5439  0.5706
 4617TIP3    H235487   1.368   3.875   7.314 -0.0597 -0.2717  0.0990
 4618TIP3   OH235488   1.170   1.112   1.470  0.5603 -0.1106 -0.2999
 4618TIP3    H135489   1.203   1.199   1.496  1.1807 -0.6554  0.8138
 4618TIP3    H235490   1.248   1.058   1.464  0.0416 -1.0321  0.8166
 4619TIP3   OH235491   1.942   0.502   0.928  0.3169  0.1866  0.3418
 4619TIP3    H135492   1.982   0.580   0.891 -0.7891  0.3432 -0.5922
 4619TIP3    H235493   1.981   0.429   0.879 -1.3916  0.4110 -1.4949
 4620TIP3   OH235494   4.142   3.299   5.803 -0.1712  0.3516  0.1757
 4620TIP3    H135495   4.160   3.289   5.897  1.5616 -0.3783 -0.1937
 4620TIP3    H235496   4.163   3.213   5.766 -1.3836  0.4652 -0.8126
 4621TIP3   OH235497   6.864   3.606   7.251 -0.3152 -0.3694  0.3902
 4621TIP3    H135498   6.772   3.613   7.276 -0.1788 -1.9527  1.5144
 4621TIP3    H235499   6.910   3.665   7.310 -0.7398  2.0326 -1.5223
 4622TIP3   OH235500   0.057   4.264   6.298 -0.2634  0.0945 -0.0648
 4622TIP3    H135501  -0.030   4.303   6.286  1.1283  3.8603  0.6333
 4622TIP3    H235502   0.094   4.261   6.210 -0.4509  0.1853 -0.1476
 4623TIP3   OH235503   6.211   1.491   0.100  0.5046  0.1142  0.5297
 4623TIP3    H135504   6.260   1.479   0.019 -0.1570 -1.1485  0.2913
 4623TIP3    H235505   6.258   1.439   0.165  0.3407  0.1383  0.6687
 4624TIP3   OH235506   1.209   0.364   0.335  0.6202  0.4503 -0.5056
 4624TIP3    H135507   1.134   0.391   0.281  1.0734  2.7025 -0.1241
 4624TIP3    H235508   1.215   0.432   0.402  1.9853 -0.6196  0.5117
 4625TIP3   OH235509   3.654   3.193   7.497  0.3375 -0.3744 -0.2043
 4625TIP3    H135510   3.703   3.242   7.432 -0.5569  0.3955 -0.3162
 4625TIP3    H235511   3.644   3.253   7.571 -1.3291 -0.1260 -0.5970
 4626TIP3   OH235512   2.428   5.878   0.172  0.3860 -0.0987 -0.1646
 4626TIP3    H135513   2.448   5.872   0.266  2.4153  1.7221 -0.4225
 4626TIP3    H235514   2.338   5.911   0.170  0.1873 -0.4711  1.1200
 4627TIP3   OH235515   1.316   0.503   1.040 -0.1577  0.7966  0.4211
 4627TIP3    H135516   1.227   0.495   1.074 -0.9036 -0.5839 -1.6444
 4627TIP3    H235517   1.343   0.413   1.020  1.3507  1.2726  0.1735
 4628TIP3   OH235518   4.738   2.337   1.682  0.2987  0.1515  0.2147
 4628TIP3    H135519   4.740   2.429   1.655  0.4265  0.0612 -0.0952
 4628TIP3    H235520   4.807   2.295   1.629  1.5906  0.2473  1.7355
 4629TIP3   OH235521   4.488   3.150   0.702 -0.4955 -0.2459  0.1583
 4629TIP3    H135522   4.497   3.093   0.626 -1.7664 -0.3524  0.0725
 4629TIP3    H235523   4.497   3.239   0.668 -0.7942 -0.3053 -0.0767
 4630TIP3   OH235524   3.538   4.865   2.089 -0.1639 -0.0675 -0.1574
 4630TIP3    H135525   3.457   4.904   2.054 -1.9822 -3.1068  0.3524
 4630TIP3    H235526   3.578   4.823   2.013  1.2360  1.7273 -0.4835
 4631TIP3   OH235527   2.330   1.188   1.330 -0.5356 -0.2943 -0.4346
 4631TIP3    H135528   2.331   1.117   1.394 -3.0238  0.0511  0.0944
 4631TIP3    H235529   2.338   1.144   1.245 -2.7905 -1.3487 -0.1645
 4632TIP3   OH235530   6.726   1.866   6.661  0.2179 -0.1980 -0.2174
 4632TIP3    H135531   6.779   1.871   6.581  2.1788 -1.1185  0.9390
 4632TIP3    H235532   6.783   1.822   6.724 -2.4903 -2.7725  0.6787
 4633TIP3   OH235533   4.658   4.321   1.163  0.1382  0.9012 -0.4023
 4633TIP3    H135534   4.621   4.343   1.078  2.3496  1.7475 -1.2322
 4633TIP3    H235535   4.665   4.405   1.208  1.5969  0.8967 -0.5583
 4634TIP3   OH235536   4.233   2.986   6.563  0.7056 -0.3670 -0.0747
 4634TIP3    H135537   4.267   3.045   6.495  1.1439 -1.8199 -1.1609
 4634TIP3    H235538   4.169   3.039   6.610  0.5010  0.7455 -1.5268
 4635TIP3   OH235539   5.558   5.712   6.936 -0.9131  0.5988 -0.7656
 4635TIP3    H135540   5.598   5.658   7.004 -0.4835 -1.5056 -2.5816
 4635TIP3    H235541   5.545   5.797   6.977  0.6275 -0.1768  1.4878
 4636TIP3   OH235542   0.138   3.085   6.894  0.2690 -0.1649 -0.4681
 4636TIP3    H135543   0.101   3.061   6.809  2.6540 -0.7037 -1.4634
 4636TIP3    H235544   0.113   3.013   6.952 -2.7466  0.9854 -0.2024
 4637TIP3   OH235545   4.591   5.081   7.651 -0.2728 -0.3537  0.0128
 4637TIP3    H135546   4.618   5.172   7.637 -1.7974  0.2365  0.7026
 4637TIP3    H235547   4.588   5.071   7.746 -1.3037 -0.7231 -0.0449
 4638TIP3   OH235548   5.510   1.793   1.315  0.2893  0.5689  0.0314
 4638TIP3    H135549   5.421   1.762   1.334  0.6308 -0.7126 -0.3192
 4638TIP3    H235550   5.539   1.834   1.396  0.5439 -1.9110  1.2900
 4639TIP3   OH235551   0.629   3.039   0.804  0.2960 -0.1117 -0.2959
 4639TIP3    H135552   0.633   3.134   0.792 -0.7029 -0.0112  0.0813
 4639TIP3    H235553   0.653   3.025   0.896  1.7531 -0.3534 -0.6856
 4640TIP3   OH235554   2.161   4.911   6.428 -0.1311  0.4958  0.0850
 4640TIP3    H135555   2.134   4.994   6.390 -0.4831  0.1426 -0.4547
 4640TIP3    H235556   2.216   4.871   6.360 -1.2455 -0.4044 -0.3266
 4641TIP3   OH235557   3.834   6.743   6.196  0.1054  0.1584  0.2943
 4641TIP3    H135558   3.756   6.688   6.189 -0.4898  0.9208  0.6982
 4641TIP3    H235559   3.836   6.793   6.115  0.1709  0.1422  0.2860
 4642TIP3   OH235560   1.617   6.526   0.568  0.1527 -0.0926  0.3683
 4642TIP3    H135561   1.543   6.543   0.510  0.5515  0.2843 -0.0334
 4642TIP3    H235562   1.588   6.556   0.654  0.0191  0.5268  0.1126
 4643TIP3   OH235563   6.361   4.276   6.177  0.3567 -0.0969 -0.1869
 4643TIP3    H135564   6.359   4.222   6.098 -0.7870 -0.8512  0.3286
 4643TIP3    H235565   6.268   4.288   6.200  0.6660 -0.3892  1.3527
 4644TIP3   OH235566   0.603   7.065   6.504 -0.0199  0.2030  0.7406
 4644TIP3    H135567   0.690   7.033   6.479 -1.1194 -1.8723 -0.7268
 4644TIP3    H235568   0.593   7.147   6.456  0.9032  0.1595  0.4517
 4645TIP3   OH235569   3.438   5.904   7.576 -0.2782 -0.0042  0.0065
 4645TIP3    H135570   3.361   5.960   7.576  0.0970  0.5208 -0.0092
 4645TIP3    H235571   3.472   5.912   7.665 -0.8161 -1.0492  0.3251
 4646TIP3   OH235572   5.945   4.303   0.017 -0.3789 -0.4800  0.0654
 4646TIP3    H135573   5.913   4.392   0.028  1.1678  0.0846  0.2437
 4646TIP3    H235574   5.885   4.249   0.069 -1.6018  0.3683 -0.4089
 4647TIP3   OH235575   5.361   0.524   0.981 -0.0706  0.4127  0.0131
 4647TIP3    H135576   5.386   0.606   0.938 -1.4793  0.5293 -0.6549
 4647TIP3    H235577   5.337   0.466   0.908  2.5948 -1.2739  0.3138
 4648TIP3   OH235578   3.703   1.753   7.502 -0.1332 -0.0449 -0.0201
 4648TIP3    H135579   3.627   1.737   7.558 -0.2572  0.8523  0.0717
 4648TIP3    H235580   3.675   1.821   7.441  1.1152  1.5206  1.0785
 4649TIP3   OH235581   6.897   5.652   6.400  0.4815  0.8151  0.1246
 4649TIP3    H135582   6.802   5.646   6.394  0.5250  0.7310 -0.5877
 4649TIP3    H235583   6.927   5.562   6.409  0.5299  0.7884 -0.2935
 4650TIP3   OH235584   6.810   2.535   1.577  0.7798  0.0238  0.1494
 4650TIP3    H135585   6.762   2.454   1.596  1.4976 -1.0927 -2.3471
 4650TIP3    H235586   6.845   2.562   1.661  0.6499 -2.3577  1.0579
 4651TIP3   OH235587   4.648   3.873   1.295  0.1981  0.6148  0.0069
 4651TIP3    H135588   4.717   3.870   1.229  0.9042  2.0195  0.6520
 4651TIP3    H235589   4.676   3.811   1.362 -0.0809 -0.1465 -0.5550
 4652TIP3   OH235590   4.642   0.044   7.013 -0.2036 -0.3207 -0.0564
 4652TIP3    H135591   4.650   0.117   7.075  1.0795  0.8516 -1.5079
 4652TIP3    H235592   4.660   0.084   6.928 -2.6973 -1.6832 -1.3464
 4653TIP3   OH235593   2.575   6.272   8.076 -0.4753  0.7033  0.2621
 4653TIP3    H135594   2.499   6.318   8.041  0.4904  1.8806 -0.3905
 4653TIP3    H235595   2.589   6.199   8.016 -1.0545  0.4985  0.3682
 4654TIP3   OH235596   3.713   0.271   0.592 -0.1141  0.1925 -0.2790
 4654TIP3    H135597   3.751   0.344   0.640  1.4037 -0.5775 -0.2444
 4654TIP3    H235598   3.626   0.301   0.566 -0.3381  1.2105  1.5342
 4655TIP3   OH235599   1.143   1.452   0.283 -0.0954 -0.1563 -0.2166
 4655TIP3    H135600   1.213   1.406   0.330 -0.5343 -2.6619 -1.8119
 4655TIP3    H235601   1.143   1.413   0.196 -1.7926  1.6302 -1.0971
 4656TIP3   OH235602   0.997   4.473   0.582 -0.7058 -0.1751 -0.5632
 4656TIP3    H135603   0.904   4.489   0.596 -0.3220  0.4144  1.6925
 4656TIP3    H235604   1.000   4.414   0.507 -2.9458 -0.8395 -0.2138
 4657TIP3   OH235605   2.037   0.048   0.085 -0.0392  0.5243  0.3163
 4657TIP3    H135606   2.067  -0.042   0.098 -1.1694  0.4778  3.5446
 4657TIP3    H235607   2.026   0.057  -0.009  0.6379 -2.5301 -0.1377
 4658TIP3   OH235608   6.303   2.048   0.332  0.0566 -0.3583 -0.0499
 4658TIP3    H135609   6.207   2.052   0.326 -0.0767 -1.8421  0.7467
 4658TIP3    H235610   6.320   2.004   0.415  1.3867 -2.0718 -1.1635
 4659TIP3   OH235611   2.748   6.815   6.332 -0.4644  0.1547  0.3464
 4659TIP3    H135612   2.782   6.815   6.242 -1.5266  2.3889 -0.1442
 4659TIP3    H235613   2.655   6.797   6.323 -0.3224 -1.0865  1.1759
 4660TIP3   OH235614   1.383   6.769   1.476  0.4214  0.7156  0.3408
 4660TIP3    H135615   1.472   6.773   1.512  0.5470  1.5263 -0.0283
 4660TIP3    H235616   1.366   6.858   1.446 -0.7052  0.6751  0.8308
 4661TIP3   OH235617   3.665   1.812   0.679 -0.6067  0.6266 -0.6674
 4661TIP3    H135618   3.740   1.861   0.645  0.3314 -1.2842 -1.5601
 4661TIP3    H235619   3.627   1.868   0.746  1.3506  1.8493 -0.5110
 4662TIP3   OH235620   0.735   5.020   6.050  0.0689  0.1986 -0.0074
 4662TIP3    H135621   0.818   4.985   6.080  0.0899  0.2212 -0.0396
 4662TIP3    H235622   0.725   4.986   5.961  0.9398  1.7064 -0.7225
 4663TIP3   OH235623   2.413   1.271   0.185  0.3686 -0.5576  0.1767
 4663TIP3    H135624   2.349   1.216   0.230 -1.8418  1.5107 -0.2204
 4663TIP3    H235625   2.439   1.337   0.250  1.6201 -0.9575  0.1178
 4664TIP3   OH235626   5.999   0.842   0.119  0.1567  0.4804 -0.2259
 4664TIP3    H135627   6.063   0.857   0.188  0.0866  0.5721 -0.1813
 4664TIP3    H235628   5.986   0.747   0.119  1.4438  0.2763 -1.2601
 4665TIP3   OH235629   3.227   1.248   6.622  0.7177  0.2892 -0.2326
 4665TIP3    H135630   3.277   1.175   6.584  1.8330 -0.8308  2.9660
 4665TIP3    H235631   3.144   1.209   6.649  2.2740 -0.7480  3.8311
 4666TIP3   OH235632   2.025   2.674   6.592  0.4563  0.5119  0.2302
 4666TIP3    H135633   2.070   2.594   6.619 -0.3324  0.4641  1.4576
 4666TIP3    H235634   2.021   2.728   6.671 -1.4249  0.5973  0.1305
 4667TIP3   OH235635   3.554   0.894   0.548  0.0112 -0.0995 -0.0424
 4667TIP3    H135636   3.467   0.890   0.509 -0.3188 -0.2222  0.7087
 4667TIP3    H235637   3.543   0.944   0.628  0.3058 -1.5173  0.9157
 4668TIP3   OH235638   6.055   2.593   7.835 -0.5306  0.1919  0.2103
 4668TIP3    H135639   6.003   2.615   7.758  0.2224 -0.0401 -0.3729
 4668TIP3    H235640   6.139   2.638   7.822 -0.3848  0.1375  0.8865
 4669TIP3   OH235641   7.054   1.884   0.503  0.9452 -0.1874 -0.1771
 4669TIP3    H135642   7.123   1.949   0.490 -1.3541  2.5701  0.3303
 4669TIP3    H235643   7.009   1.880   0.419  0.3362 -0.1985  0.1477
 4670TIP3   OH235644   3.249   6.952   0.962  0.0603 -0.1674 -0.2931
 4670TIP3    H135645   3.336   6.957   0.923 -0.2360 -0.3610 -0.9944
 4670TIP3    H235646   3.209   6.875   0.922 -0.1836 -0.4929  0.5540
 4671TIP3   OH235647   6.405   6.567   7.177 -0.7541 -0.0560 -0.0976
 4671TIP3    H135648   6.410   6.478   7.212 -0.4553 -0.5730 -1.3840
 4671TIP3    H235649   6.337   6.609   7.229 -0.6292 -0.9073  0.7953
 4672TIP3   OH235650   1.038   4.886   0.695  0.0066 -0.3608  0.2590
 4672TIP3    H135651   0.962   4.943   0.682 -0.0073 -0.5048 -0.2961
 4672TIP3    H235652   1.094   4.902   0.619  1.6265  1.4155  1.7161
 4673TIP3   OH235653   0.078   3.118   7.623  0.0745 -0.0725  0.6485
 4673TIP3    H135654   0.108   3.209   7.623  1.0722 -0.3599 -1.1512
 4673TIP3    H235655  -0.018   3.124   7.626  0.1458  0.9887  1.4615
 4674TIP3   OH235656   5.539   0.433   0.485 -0.0988  0.7615  0.2809
 4674TIP3    H135657   5.618   0.393   0.521  1.5172  2.9599 -0.6029
 4674TIP3    H235658   5.517   0.379   0.409  0.4704  0.0587  0.6078
 4675TIP3   OH235659   5.868   1.352   1.395 -0.2933  0.1353 -0.0671
 4675TIP3    H135660   5.790   1.408   1.396 -0.5685 -0.2237 -1.0578
 4675TIP3    H235661   5.835   1.263   1.385  0.2794  0.1556 -3.1269
 4676TIP3   OH235662   2.383   1.891   0.452  0.7219  0.2634 -0.0962
 4676TIP3    H135663   2.426   1.975   0.434 -0.3244  1.0751  0.9885
 4676TIP3    H235664   2.443   1.845   0.511  0.0477  1.4862  1.6077
 4677TIP3   OH235665   0.940   6.870   7.021 -0.3748  0.6947 -0.3488
 4677TIP3    H135666   1.008   6.927   7.057 -0.4404 -0.7823  2.4347
 4677TIP3    H235667   0.866   6.929   7.004  0.4988  1.8375 -0.2840
 4678TIP3   OH235668   1.208   5.455   7.499 -0.2961 -0.1739 -0.0405
 4678TIP3    H135669   1.174   5.388   7.558  2.3062  0.2136  2.0873
 4678TIP3    H235670   1.242   5.407   7.424 -2.2584 -0.8157 -0.5515
 4679TIP3   OH235671   2.109   6.233   0.768  0.0458 -0.1351  0.3149
 4679TIP3    H135672   2.181   6.175   0.741 -0.6208 -0.5927 -0.5637
 4679TIP3    H235673   2.151   6.316   0.788  0.7450 -0.1761 -0.8950
 4680TIP3   OH235674   4.441   3.040   7.551  0.0265  0.6620  0.6213
 4680TIP3    H135675   4.506   2.971   7.563 -1.3683 -1.1469 -1.5215
 4680TIP3    H235676   4.392   3.041   7.633  1.6740  0.9606  1.6529
 4681TIP3   OH235677   0.698   1.325   7.679 -0.0730 -0.0748  0.2363
 4681TIP3    H135678   0.717   1.235   7.652 -1.3079 -0.1169 -0.5830
 4681TIP3    H235679   0.767   1.346   7.742  1.7467 -0.6870 -1.4627
 4682TIP3   OH235680   2.247   5.924   6.499 -0.1853 -0.0443 -0.2579
 4682TIP3    H135681   2.299   5.980   6.441 -0.1486 -0.0834 -0.2634
 4682TIP3    H235682   2.266   5.835   6.468 -0.0819 -0.0716 -0.1157
 4683TIP3   OH235683   1.708   0.469   7.695  0.1353  0.0132 -0.5155
 4683TIP3    H135684   1.795   0.495   7.664  0.1662 -0.2800 -0.6770
 4683TIP3    H235685   1.720   0.449   7.788  0.2895 -0.2470 -0.5897
 4684TIP3   OH235686   2.139   6.441   1.880  0.1218 -0.9628  0.7246
 4684TIP3    H135687   2.167   6.358   1.842  1.1216 -0.2313 -0.1965
 4684TIP3    H235688   2.153   6.431   1.974  0.9998 -1.5533  0.5385
 4685TIP3   OH235689   0.433   4.831   5.662  0.5512  0.5766  0.6110
 4685TIP3    H135690   0.438   4.737   5.678 -0.0552  0.1852 -1.1878
 4685TIP3    H235691   0.341   4.853   5.680  0.3579  0.5263 -0.2515
 4686TIP3   OH235692   2.695   2.832   0.361  0.3225  0.3473 -0.2675
 4686TIP3    H135693   2.705   2.781   0.442  0.8770 -0.8412 -1.0606
 4686TIP3    H235694   2.621   2.791   0.316  1.1750 -0.1872 -1.2111
 4687TIP3   OH235695   0.619   2.167   6.033  0.4929 -0.0676  0.3976
 4687TIP3    H135696   0.532   2.158   6.072  0.3253  1.1625  0.3581
 4687TIP3    H235697   0.671   2.097   6.072 -0.6535 -1.1794 -0.0098
 4688TIP3   OH235698   0.821   3.824   2.107  0.1345  0.3728 -0.6481
 4688TIP3    H135699   0.735   3.865   2.098 -0.4947 -0.9564 -1.0121
 4688TIP3    H235700   0.865   3.842   2.025 -0.2275  0.1382 -0.8978
 4689TIP3   OH235701   1.405   1.753   8.084  0.0202  0.0978 -0.1565
 4689TIP3    H135702   1.363   1.744   8.170  1.0775  1.4677  0.5548
 4689TIP3    H235703   1.420   1.847   8.075 -0.7279  0.0641 -2.1961
 4690TIP3   OH235704   6.183   2.797   0.846 -0.0463 -0.5795  0.1937
 4690TIP3    H135705   6.194   2.702   0.849  0.9388 -0.5193 -0.8660
 4690TIP3    H235706   6.204   2.821   0.755 -0.6983  0.5994  0.3361
 4691TIP3   OH235707   3.076   4.270   1.790 -0.5804 -0.4346 -0.5068
 4691TIP3    H135708   3.085   4.233   1.879 -2.3336 -1.8075 -0.8335
 4691TIP3    H235709   3.098   4.197   1.732 -2.5927 -0.5721 -1.1780
 4692TIP3   OH235710   4.126   2.451   1.195 -0.7723 -0.6226 -0.1397
 4692TIP3    H135711   4.101   2.359   1.185  2.8356 -1.8151  0.4234
 4692TIP3    H235712   4.101   2.473   1.285 -1.7028 -0.9689 -0.2975
 4693TIP3   OH235713   6.753   4.255   6.883  0.6032 -0.0887 -0.2283
 4693TIP3    H135714   6.678   4.293   6.839  0.7425  2.0125  1.2142
 4693TIP3    H235715   6.826   4.312   6.861  1.1899 -0.4799  0.6160
 4694TIP3   OH235716   0.999   5.515   6.259  0.4296 -0.6334  0.5955
 4694TIP3    H135717   0.908   5.542   6.267  0.6636  0.1679  0.5806
 4694TIP3    H235718   1.006   5.479   6.170  0.5556  0.9907 -0.0780
 4695TIP3   OH235719   2.753   5.929   5.803  0.0711  0.5784 -0.1974
 4695TIP3    H135720   2.720   5.865   5.865 -0.1187  1.7442  0.9427
 4695TIP3    H235721   2.692   6.003   5.810  0.2733  0.9010 -1.4833
 4696TIP3   OH235722   0.292   7.031   7.097  0.3750  0.2734  0.5417
 4696TIP3    H135723   0.284   6.942   7.061  1.1867  0.4080  0.0107
 4696TIP3    H235724   0.206   7.048   7.136 -0.2741 -0.1967 -0.6138
 4697TIP3   OH235725   3.356   2.115   6.598  0.1314  0.0073  0.4606
 4697TIP3    H135726   3.376   2.036   6.547 -1.9825 -0.4010  0.1729
 4697TIP3    H235727   3.375   2.090   6.688 -0.3363 -0.8015  0.3520
 4698TIP3   OH235728   0.695   1.931   6.902 -0.2952  0.0289 -0.2185
 4698TIP3    H135729   0.644   1.935   6.820 -1.1134 -1.0576  0.2114
 4698TIP3    H235730   0.748   1.853   6.893  0.6153  0.6330 -0.2470
 4699TIP3   OH235731   1.850   6.296   7.206  0.0508  0.0800  0.1286
 4699TIP3    H135732   1.826   6.304   7.298  1.7499  1.5106  0.5096
 4699TIP3    H235733   1.863   6.202   7.192  0.3971 -0.0941  1.5238
 4700TIP3   OH235734   0.781   6.074   0.243  0.1819 -0.4626  0.2865
 4700TIP3    H135735   0.740   5.995   0.279 -2.1204  0.9516  0.9428
 4700TIP3    H235736   0.863   6.043   0.205 -0.5199 -3.1222  0.7606
 4701TIP3   OH235737   0.305   6.322   1.630 -0.2747  0.2186  0.1251
 4701TIP3    H135738   0.309   6.365   1.545  0.3425 -0.2910 -0.1072
 4701TIP3    H235739   0.329   6.231   1.612 -2.1249 -0.3901  0.4989
 4702TIP3   OH235740   3.329   5.216   7.867 -0.1259  0.2144 -0.2134
 4702TIP3    H135741   3.328   5.173   7.952  1.8296 -1.9667 -1.1775
 4702TIP3    H235742   3.252   5.273   7.867 -0.7534 -0.5096  2.5734
 4703TIP3   OH235743   2.708   1.272   6.597 -0.1212 -0.5078  0.1663
 4703TIP3    H135744   2.676   1.202   6.540 -0.5674 -0.0887 -0.1112
 4703TIP3    H235745   2.640   1.283   6.663 -0.1614 -0.1903  0.0761
 4704TIP3   OH235746   4.276   4.373   7.681  0.3614 -0.0736  0.4274
 4704TIP3    H135747   4.305   4.464   7.677 -0.9053  0.4507  2.1821
 4704TIP3    H235748   4.194   4.372   7.631  0.4518 -0.2903  0.2806
 4705TIP3   OH235749   5.601   6.082   0.028 -0.0102 -0.5424 -0.3960
 4705TIP3    H135750   5.681   6.029   0.023 -0.0135 -0.6629  0.5835
 4705TIP3    H235751   5.540   6.028   0.079 -0.8515 -0.6141 -1.4568
 4706TIP3   OH235752   2.347   1.827   0.196 -0.1232 -0.3096  0.1919
 4706TIP3    H135753   2.356   1.844   0.289 -0.1373 -0.5959  0.2450
 4706TIP3    H235754   2.417   1.880   0.156 -1.1885  1.1628  0.2102
 4707TIP3   OH235755   1.960   7.014   1.302 -0.5288 -0.2981  0.1407
 4707TIP3    H135756   1.870   7.020   1.269 -0.0934 -0.7991 -1.2111
 4707TIP3    H235757   1.956   6.946   1.369 -2.0262  2.6593  3.4102
 4708TIP3   OH235758   4.783   4.902   0.335  0.0309  0.3270 -0.2444
 4708TIP3    H135759   4.790   4.924   0.242  1.3410  1.5100  0.1070
 4708TIP3    H235760   4.863   4.936   0.374 -0.6765  0.1996  1.3957
 4709TIP3   OH235761   4.178   4.005   7.901  0.1312  0.0256 -0.6899
 4709TIP3    H135762   4.150   4.070   7.837 -0.3592 -2.0493 -2.7415
 4709TIP3    H235763   4.106   3.941   7.904 -0.5536  0.6929  3.1178
 4710TIP3   OH235764   2.826   4.577   1.945 -0.1509  0.5782 -0.3531
 4710TIP3    H135765   2.891   4.642   1.971  0.6030 -0.2076 -0.2261
 4710TIP3    H235766   2.861   4.539   1.865  0.6970 -1.3841  0.8609
 4711TIP3   OH235767   0.210   4.275   0.955 -1.0878  0.9456  0.3570
 4711TIP3    H135768   0.265   4.271   1.033  0.2846  1.8025 -0.5200
 4711TIP3    H235769   0.133   4.326   0.982 -1.6687 -0.5544  1.6890
 4712TIP3   OH235770   5.769   3.625   6.676  0.9402  0.1053 -0.1494
 4712TIP3    H135771   5.805   3.685   6.742  0.4630 -0.3394  0.5270
 4712TIP3    H235772   5.722   3.560   6.727  1.1370 -0.6385 -0.9028
 4713TIP3   OH235773   1.441   2.017   8.089  0.8402  0.6264  0.3691
 4713TIP3    H135774   1.389   2.039   8.166  0.2434  0.4649  0.0247
 4713TIP3    H235775   1.522   2.066   8.099  0.9901  0.2107  1.3549
 4714TIP3   OH235776   1.671   0.523   0.948 -0.4544  0.2954  1.3197
 4714TIP3    H135777   1.670   0.601   0.892 -0.2551 -1.2963 -1.0172
 4714TIP3    H235778   1.764   0.500   0.956 -0.6411 -1.1362 -0.1822
 4715TIP3   OH235779   0.763   5.537   1.700  0.2117 -0.3762  0.6843
 4715TIP3    H135780   0.684   5.498   1.663 -0.2059 -0.4327  1.6101
 4715TIP3    H235781   0.746   5.631   1.702  0.1434 -0.3925  0.9311
 4716TIP3   OH235782   0.092   2.068   6.430 -0.2907  0.2881  0.4412
 4716TIP3    H135783   0.088   2.154   6.389 -0.0046  1.0158  1.8664
 4716TIP3    H235784   0.123   2.085   6.519  0.3050 -1.3540  0.5894
 4717TIP3   OH235785   7.107   6.952   0.918  0.2677  0.1466 -0.4852
 4717TIP3    H135786   7.021   6.960   0.877  0.2450  1.9152 -0.1773
 4717TIP3    H235787   7.145   7.039   0.910  2.6062 -0.9044 -1.7811
 4718TIP3   OH235788   2.842   0.016   7.122 -0.1474  0.5533 -0.2926
 4718TIP3    H135789   2.769   0.077   7.132 -0.5907  0.0317 -0.2619
 4718TIP3    H235790   2.800  -0.070   7.110  0.4579 -0.0815  1.6629
 4719TIP3   OH235791   2.303   0.641   7.438 -0.6192 -0.1856 -0.0900
 4719TIP3    H135792   2.359   0.706   7.396 -0.2066 -1.6401 -1.9044
 4719TIP3    H235793   2.236   0.692   7.482  0.8658  1.5253  0.3109
 4720TIP3   OH235794   6.737   0.058   1.692 -0.1280 -0.2408 -0.1808
 4720TIP3    H135795   6.768   0.089   1.777  0.0533 -2.0779  0.4836
 4720TIP3    H235796   6.748   0.132   1.633  0.2520  0.9076  1.2827
 4721TIP3   OH235797   5.699   1.137   1.128 -0.0440 -0.3704  0.5604
 4721TIP3    H135798   5.609   1.159   1.152 -0.4994 -0.3804 -1.0215
 4721TIP3    H235799   5.718   1.191   1.051  1.7244  0.4848  1.5252
 4722TIP3   OH235800   4.559   2.832   0.898 -0.7581  0.4992 -0.1631
 4722TIP3    H135801   4.619   2.857   0.828 -2.1174  1.5806 -0.9931
 4722TIP3    H235802   4.575   2.898   0.967 -1.2324  1.0036 -0.5300
 4723TIP3   OH235803   6.347   3.159   7.495  0.4016 -0.2605 -0.1323
 4723TIP3    H135804   6.304   3.119   7.420  2.0778 -1.4825 -0.4959
 4723TIP3    H235805   6.328   3.252   7.487 -0.7820 -0.5647 -1.1515
 4724TIP3   OH235806   7.021   6.831   7.545 -0.8788 -0.0624  0.4417
 4724TIP3    H135807   6.959   6.870   7.483  0.4308  0.2862 -0.6926
 4724TIP3    H235808   7.054   6.754   7.500 -2.2073 -1.6168  2.0053
 4725TIP3   OH235809   0.950   1.224   0.206 -0.0370  0.6274  0.9706
 4725TIP3    H135810   0.975   1.308   0.168 -2.1528  1.6235  1.6184
 4725TIP3    H235811   0.865   1.203   0.166  1.3712 -2.3718 -0.8557
 4726TIP3   OH235812   2.927   3.927   6.441 -0.4195 -0.1293 -0.0563
 4726TIP3    H135813   2.999   3.880   6.399 -1.8661 -1.0264 -1.6720
 4726TIP3    H235814   2.902   3.994   6.378 -0.0222  1.2313  1.1667
 4727TIP3   OH235815   1.115   4.187   1.286  0.0811 -0.0378  0.2843
 4727TIP3    H135816   1.023   4.166   1.298  0.4189 -0.4526  2.7037
 4727TIP3    H235817   1.157   4.103   1.269 -0.0016  0.2106 -1.3308
 4728TIP3   OH235818   6.696   1.737   6.039 -0.0673  0.7240  0.1231
 4728TIP3    H135819   6.637   1.689   5.981  0.4765  0.2651 -0.0562
 4728TIP3    H235820   6.783   1.722   6.003  0.1620  1.4182  0.3708
 4729TIP3   OH235821   1.975   0.825   1.312  0.0904 -0.5397 -0.4423
 4729TIP3    H135822   1.974   0.786   1.399 -3.0025 -1.1492 -0.6371
 4729TIP3    H235823   1.980   0.919   1.327  0.8766 -0.6967  0.3131
 4730TIP3   OH235824   1.910   3.801   0.595  0.2652  0.3753  0.6625
 4730TIP3    H135825   1.886   3.713   0.564  0.6684 -0.4425  2.5256
 4730TIP3    H235826   1.975   3.832   0.532 -1.2158  0.1370 -1.0696
 4731TIP3   OH235827   4.079   0.586   0.141 -0.1719  0.3951 -0.0548
 4731TIP3    H135828   4.057   0.495   0.119  0.2498  0.3457 -0.2751
 4731TIP3    H235829   4.009   0.613   0.200  0.7558 -0.7480  1.6878
 4732TIP3   OH235830   6.268   6.172   1.224  0.0537 -0.0034  0.5471
 4732TIP3    H135831   6.207   6.240   1.253  0.7090  0.7907  0.1241
 4732TIP3    H235832   6.266   6.106   1.293  0.2262  0.9737  1.5081
 4733TIP3   OH235833   3.956   5.854   0.626 -0.4005  0.0707 -0.3719
 4733TIP3    H135834   3.908   5.844   0.708 -0.8955 -0.1768 -0.6842
 4733TIP3    H235835   4.045   5.876   0.652 -0.7672  0.9059  0.2154
 4734TIP3   OH235836   0.389   1.557   5.892 -0.7826 -0.0763  0.2996
 4734TIP3    H135837   0.484   1.564   5.890 -0.6612 -0.1462  2.9405
 4734TIP3    H235838   0.360   1.641   5.929 -1.8253  0.0983 -0.8135
 4735TIP3   OH235839   1.983   2.311   7.525  0.1614 -0.1301  0.3467
 4735TIP3    H135840   2.044   2.243   7.554 -1.6907 -1.4760  1.2268
 4735TIP3    H235841   1.988   2.379   7.592 -0.9646 -1.2824  1.6262
 4736TIP3   OH235842   6.765   0.276   1.284 -0.4946  0.0317  0.0747
 4736TIP3    H135843   6.762   0.304   1.193 -0.8578  0.1485  0.1227
 4736TIP3    H235844   6.687   0.315   1.324  0.1300  0.7417  0.6453
 4737TIP3   OH235845   6.843   5.569   7.283  0.5056 -0.6508  0.3098
 4737TIP3    H135846   6.759   5.544   7.323  0.1070 -0.0160 -0.1007
 4737TIP3    H235847   6.858   5.658   7.313  0.9738 -0.7233  0.2834
 4738TIP3   OH235848   6.143   0.915   2.115  0.0789 -0.6102  0.3848
 4738TIP3    H135849   6.145   0.857   2.039 -0.5400  0.0918 -0.1822
 4738TIP3    H235850   6.234   0.943   2.127 -0.0139  0.4275 -1.0280
 4739TIP3   OH235851   0.201   0.869   5.913 -0.3443  1.0352 -0.1616
 4739TIP3    H135852   0.133   0.838   5.854  0.5972  0.7874 -1.1474
 4739TIP3    H235853   0.248   0.936   5.863  1.3480 -0.1604 -0.2460
 4740TIP3   OH235854   5.452   3.154   0.795  0.1474 -0.1912 -0.4731
 4740TIP3    H135855   5.505   3.106   0.858 -1.0685  0.2393  0.9327
 4740TIP3    H235856   5.366   3.162   0.837  0.3566  3.5575 -0.4084
 4741TIP3   OH235857   2.033   7.120   7.702 -0.2976 -0.4401 -0.1691
 4741TIP3    H135858   2.107   7.156   7.654 -0.6737 -0.2662 -0.6271
 4741TIP3    H235859   1.956   7.164   7.665 -0.4827  1.0577  1.8058
 4742TIP3   OH235860   5.710   6.269   7.666  0.6513  0.2741  0.1226
 4742TIP3    H135861   5.785   6.210   7.663  0.0414 -0.5220  0.2201
 4742TIP3    H235862   5.645   6.223   7.720  0.2266  1.1032  0.3313
 4743TIP3   OH235863   3.512   6.206   5.802 -0.4503 -0.0608 -0.2953
 4743TIP3    H135864   3.439   6.170   5.753 -0.8868  0.1470  0.2004
 4743TIP3    H235865   3.542   6.281   5.749 -0.9284  0.1737 -0.2321
 4744TIP3   OH235866   6.154   0.440   6.932 -0.1432  0.2533  0.3255
 4744TIP3    H135867   6.196   0.506   6.987  0.1433  0.4673 -0.1464
 4744TIP3    H235868   6.202   0.443   6.849 -0.7541  0.1382 -0.0416
 4745TIP3   OH235869   3.329   2.091   7.511  0.1442 -0.4019  0.4448
 4745TIP3    H135870   3.396   2.131   7.455  0.5769 -0.5234  0.8697
 4745TIP3    H235871   3.313   2.156   7.579  1.0314 -1.0256  1.2826
 4746TIP3   OH235872   5.896   3.577   7.604  0.5619  0.0263  0.6809
 4746TIP3    H135873   5.961   3.522   7.560  0.6786  0.5778  0.1555
 4746TIP3    H235874   5.887   3.654   7.548 -1.6223 -0.6675 -0.0316
 4747TIP3   OH235875   1.496   5.028   7.092  0.3166 -0.0300  0.8747
 4747TIP3    H135876   1.468   4.953   7.145 -1.9663  0.2667  0.2116
 4747TIP3    H235877   1.458   5.013   7.006 -0.7542  2.1450  0.8804
 4748TIP3   OH235878   6.527   1.083   1.481 -0.2437  0.0367  0.0887
 4748TIP3    H135879   6.461   1.146   1.512 -2.4365 -1.2775 -1.6277
 4748TIP3    H235880   6.578   1.132   1.417 -2.2144  0.0390 -1.5589
 4749TIP3   OH235881   0.096   3.044   0.280 -0.5121  0.5327  0.0268
 4749TIP3    H135882   0.186   3.075   0.292 -0.5619  0.9628 -0.6838
 4749TIP3    H235883   0.068   3.017   0.368  0.4385  0.0439  0.1892
 4750TIP3   OH235884   2.684   7.010   0.969 -0.2210 -0.4352 -0.1654
 4750TIP3    H135885   2.668   7.098   0.935 -0.6365 -0.6626 -0.5628
 4750TIP3    H235886   2.602   6.987   1.015 -0.0241 -0.5170  0.1500
 4751TIP3   OH235887   5.569   2.277   0.342 -0.2910  0.1915  0.1236
 4751TIP3    H135888   5.498   2.319   0.391  0.6967  1.5704  0.4428
 4751TIP3    H235889   5.648   2.316   0.379  0.6010 -0.8735 -0.6423
 4752TIP3   OH235890   0.269   1.069   7.446  0.1165 -0.3268 -0.4304
 4752TIP3    H135891   0.222   1.107   7.372 -0.6261 -0.0782  0.1514
 4752TIP3    H235892   0.329   1.138   7.474  0.5516 -0.4987 -0.9281
 4753TIP3   OH235893   7.101   5.196   6.474 -0.7431 -0.4302  0.3843
 4753TIP3    H135894   7.192   5.183   6.500 -1.2008 -0.5031  2.0719
 4753TIP3    H235895   7.051   5.136   6.529 -1.9844  1.0157  0.9175
 4754TIP3   OH235896   1.421   4.535   1.341  0.3784 -0.2532 -0.4665
 4754TIP3    H135897   1.355   4.604   1.334 -0.2415 -1.0107 -2.7168
 4754TIP3    H235898   1.496   4.578   1.384 -0.7794  1.1878  0.1930
 4755TIP3   OH235899   5.715   5.524   6.231  0.8910 -0.0361 -0.1332
 4755TIP3    H135900   5.735   5.456   6.167  0.6909 -0.4758  0.2659
 4755TIP3    H235901   5.642   5.572   6.193  0.4541 -0.6014 -0.0223
 4756TIP3   OH235902   6.223   5.856   1.250  0.1814  0.1239  0.0512
 4756TIP3    H135903   6.185   5.903   1.325  0.7030  1.4720 -0.4892
 4756TIP3    H235904   6.310   5.894   1.240  0.2464 -0.2781 -1.0192
 4757TIP3   OH235905   4.516   5.666   1.475  0.2260 -0.5008  0.2718
 4757TIP3    H135906   4.501   5.648   1.382  1.4523 -0.3712  0.0316
 4757TIP3    H235907   4.610   5.677   1.482 -0.0607  1.9936  1.0877
 4758TIP3   OH235908   0.624   4.137   6.620 -0.5501  0.3304 -0.1664
 4758TIP3    H135909   0.694   4.077   6.593 -0.8525  0.0853 -0.3993
 4758TIP3    H235910   0.662   4.224   6.609  0.1181  0.1836  0.7781
 4759TIP3   OH235911   4.297   2.282   0.017  0.4345  0.5190  0.1595
 4759TIP3    H135912   4.277   2.204  -0.034 -0.9695  1.3828 -0.6638
 4759TIP3    H235913   4.391   2.275   0.035  0.9406  0.0086 -2.2752
 4760TIP3   OH235914   1.246   7.089   7.911  0.0380 -0.1792 -0.4022
 4760TIP3    H135915   1.280   7.016   7.962  1.2932  0.7805  0.1867
 4760TIP3    H235916   1.196   7.048   7.840  0.3592 -1.5767  0.1531
 4761TIP3   OH235917   2.854   3.168   7.570 -0.2658 -0.1575  0.3831
 4761TIP3    H135918   2.852   3.256   7.608 -1.4730  0.6839 -1.4581
 4761TIP3    H235919   2.888   3.181   7.482  0.2993 -1.6828  0.3553
 4762TIP3   OH235920   0.155   3.787   6.721 -0.2615  0.3754 -0.1943
 4762TIP3    H135921   0.062   3.788   6.695 -0.1576  2.5298 -0.7333
 4762TIP3    H235922   0.195   3.854   6.666  1.0828  1.3111  1.7854
 4763TIP3   OH235923   2.804   2.126   1.117 -0.3936 -0.0216 -0.3905
 4763TIP3    H135924   2.837   2.098   1.032 -1.3450 -0.4942 -0.6197
 4763TIP3    H235925   2.718   2.164   1.098  0.2900  1.8555  0.0865
 4764TIP3   OH235926   6.553   5.355   0.076 -0.2758  0.4034 -0.2295
 4764TIP3    H135927   6.532   5.271   0.117 -0.6899  0.8639  0.5454
 4764TIP3    H235928   6.478   5.410   0.097  0.5807  1.3606  0.4417
 4765TIP3   OH235929   3.285   3.144   0.605 -0.2961 -0.0934  0.1261
 4765TIP3    H135930   3.219   3.151   0.537  0.0665  1.2966 -0.1069
 4765TIP3    H235931   3.297   3.233   0.637  0.5518 -0.5105  1.0446
 4766TIP3   OH235932   6.991   0.345   0.466 -0.4157 -0.6899  0.0812
 4766TIP3    H135933   6.944   0.327   0.547 -0.1608 -0.4171  0.2918
 4766TIP3    H235934   6.964   0.433   0.442  1.1204  0.0730  1.0102
 4767TIP3   OH235935   4.328   3.379   6.203 -0.4706  0.1024 -0.2489
 4767TIP3    H135936   4.409   3.402   6.157 -1.4272  0.2548 -1.9308
 4767TIP3    H235937   4.283   3.318   6.145 -1.5263 -0.0761  0.7068
 4768TIP3   OH235938   4.795   5.917   0.012 -0.0920 -0.0870 -0.6689
 4768TIP3    H135939   4.837   6.000   0.035  0.5317 -0.6623  0.3263
 4768TIP3    H235940   4.702   5.938   0.006  0.1625  0.8915 -1.4303
 4769TIP3   OH235941   6.391   3.783   0.347 -0.4191  0.4158  0.5482
 4769TIP3    H135942   6.481   3.798   0.318 -0.4179 -0.0530  0.2948
 4769TIP3    H235943   6.338   3.819   0.276 -0.4460  1.4033  1.0563
 4770TIP3   OH235944   0.451   3.383   0.282  0.4126 -0.0986  0.1395
 4770TIP3    H135945   0.528   3.338   0.247  1.8515  0.9502  1.7893
 4770TIP3    H235946   0.410   3.423   0.206  0.8247 -1.6147 -0.9355
 4771TIP3   OH235947   6.557   4.832   7.560 -0.0293 -0.5729  0.7338
 4771TIP3    H135948   6.626   4.864   7.501  0.1715 -1.3335  0.5390
 4771TIP3    H235949   6.505   4.773   7.505 -1.3289  0.6066  0.6609
 4772TIP3   OH235950   6.544   2.562   7.208  0.3576  0.0005 -0.0851
 4772TIP3    H135951   6.622   2.604   7.243 -0.4093  3.1421 -1.7807
 4772TIP3    H235952   6.564   2.547   7.116 -0.2594 -1.2877 -0.0271
 4773TIP3   OH235953   1.753   0.753   7.340 -0.3520  0.1423 -0.0028
 4773TIP3    H135954   1.776   0.798   7.421 -0.9441  1.3574 -0.4915
 4773TIP3    H235955   1.832   0.705   7.315 -0.4393 -1.0130  1.7615
 4774TIP3   OH235956   2.104   6.823   7.652 -0.1852 -0.0205 -0.0685
 4774TIP3    H135957   2.038   6.757   7.672 -2.2310  1.3023 -2.0150
 4774TIP3    H235958   2.090   6.892   7.717 -0.8671  0.3362 -0.5852
 4775TIP3   OH235959   0.246   4.978   5.984 -0.4881  0.1039 -0.1018
 4775TIP3    H135960   0.260   5.037   5.909 -2.0036  1.6290  0.7335
 4775TIP3    H235961   0.202   5.033   6.049 -0.4770 -1.5604  1.3704
 4776TIP3   OH235962   3.911   6.116   1.763  0.2277  0.4851 -0.1186
 4776TIP3    H135963   3.934   6.103   1.855  0.6433 -0.6292 -0.3571
 4776TIP3    H235964   3.850   6.044   1.744  0.5652  0.3839 -0.8472
 4777TIP3   OH235965   3.025   5.284   0.607  0.0335  0.1001 -0.2792
 4777TIP3    H135966   2.935   5.268   0.635  0.3514 -0.2752  0.5446
 4777TIP3    H235967   3.017   5.302   0.513 -1.0449  1.4188  0.0238
 4778TIP3   OH235968   1.553   2.965   1.652 -0.0664 -0.2244  0.4027
 4778TIP3    H135969   1.543   2.988   1.560  1.6713 -0.6300  0.0748
 4778TIP3    H235970   1.518   3.040   1.700 -3.0707 -0.9222 -0.5014
 4779TIP3   OH235971   5.985   4.920   7.807 -0.4392  0.4625  0.3268
 4779TIP3    H135972   5.943   4.865   7.741  0.9886 -3.0347  2.1067
 4779TIP3    H235973   5.925   4.921   7.881  0.5391 -0.7483  1.1769
 4780TIP3   OH235974   2.727   2.146   7.142  0.1025 -0.3309  0.0025
 4780TIP3    H135975   2.686   2.228   7.117  1.9480  0.5261 -0.3331
 4780TIP3    H235976   2.772   2.116   7.064 -1.6754 -2.4619 -0.3234
 4781TIP3   OH235977   5.979   4.033   1.367  0.2927 -0.0559  0.2380
 4781TIP3    H135978   5.914   3.963   1.367 -0.6875  0.8177 -0.2735
 4781TIP3    H235979   5.942   4.100   1.425  1.5357 -0.2263  1.2715
 4782TIP3   OH235980   0.978   3.670   7.355 -0.2584  0.2758  0.1096
 4782TIP3    H135981   1.010   3.714   7.433 -0.7292 -2.1168  1.7609
 4782TIP3    H235982   0.900   3.720   7.329 -0.3781  0.8350  1.4726
 4783TIP3   OH235983   4.235   3.495   7.567  0.5218  0.6549 -0.8616
 4783TIP3    H135984   4.284   3.462   7.642 -1.0664 -0.6360 -0.3388
 4783TIP3    H235985   4.172   3.556   7.605  0.7993  1.2775 -1.3704
 4784TIP3   OH235986   6.675   2.906   1.322  0.5842  0.3730 -0.0546
 4784TIP3    H135987   6.583   2.924   1.302  0.7452  1.4217  0.0785
 4784TIP3    H235988   6.672   2.839   1.391 -0.0309 -0.6881 -1.0851
 4785TIP3   OH235989   2.057   6.642   6.342  0.2948 -0.3482  0.0065
 4785TIP3    H135990   2.055   6.554   6.378  1.7480 -0.4011  0.0219
 4785TIP3    H235991   2.023   6.633   6.253 -0.4924 -0.7437  0.3458
 4786TIP3   OH235992   3.088   3.441   0.750 -0.3201 -0.0440  0.5858
 4786TIP3    H135993   3.033   3.501   0.801  0.1182 -0.9720  2.2390
 4786TIP3    H235994   3.102   3.486   0.667 -0.7322  1.7457  1.4290
 4787TIP3   OH235995   2.177   6.813   0.322  0.1663 -0.0461  0.2211
 4787TIP3    H135996   2.224   6.731   0.304  0.2042  0.3895 -1.9352
 4787TIP3    H235997   2.182   6.823   0.417 -0.4556 -2.9044  0.6432
 4788TIP3   OH235998   5.633   5.182   1.222 -0.0137  0.7186  0.3980
 4788TIP3    H135999   5.686   5.229   1.286  1.7773 -2.1349  1.1746
 4788TIP3    H236000   5.565   5.139   1.275  0.6654 -0.5672  0.2556
 4789TIP3   OH236001   2.784   4.192   1.977  0.3244  0.4194 -0.2086
 4789TIP3    H136002   2.743   4.114   2.013  0.5870 -0.2617 -1.3394
 4789TIP3    H236003   2.737   4.265   2.019  1.0163 -0.2862  1.9432
 4790TIP3   OH236004   3.859   4.922   7.826 -0.4551 -0.5841 -0.4544
 4790TIP3    H136005   3.816   4.842   7.856 -1.0473 -0.2604 -0.4157
 4790TIP3    H236006   3.911   4.951   7.901 -0.5814 -0.6941 -0.3237
 4791TIP3   OH236007   4.672   0.282   7.156  0.0051 -0.0072 -0.6842
 4791TIP3    H136008   4.580   0.280   7.182  0.0915 -0.2693 -0.3889
 4791TIP3    H236009   4.708   0.358   7.201  0.0116 -0.1014 -0.5310
 4792TIP3   OH236010   3.551   3.878   7.333 -0.1061  0.2504 -0.5346
 4792TIP3    H136011   3.495   3.882   7.411  0.5045  0.9483 -0.1097
 4792TIP3    H236012   3.525   3.798   7.288  1.0232 -1.3876  1.5539
 4793TIP3   OH236013   2.596   7.065   7.302  0.7074 -0.1056  0.3666
 4793TIP3    H136014   2.520   7.025   7.344  0.7779  0.6993  1.3027
 4793TIP3    H236015   2.611   7.013   7.223 -1.6777  0.5269 -0.5998
 4794TIP3   OH236016   1.664   1.426   1.377  0.0007 -0.3356 -0.0597
 4794TIP3    H136017   1.586   1.455   1.330  0.0382 -1.2426 -0.6941
 4794TIP3    H236018   1.679   1.337   1.347 -0.2110 -1.1028  1.9687
 4795TIP3   OH236019   2.976   0.170   7.338 -0.1792 -0.1930  0.6420
 4795TIP3    H136020   2.990   0.135   7.250  0.5245  0.7247  0.3730
 4795TIP3    H236021   3.037   0.244   7.344  0.6756 -0.9926  2.3461
 4796TIP3   OH236022   0.940   3.979   7.476  0.2133 -0.2026 -0.3055
 4796TIP3    H136023   0.968   4.071   7.482 -1.1014  0.2533 -0.8448
 4796TIP3    H236024   0.974   3.939   7.557 -1.7264  1.4785  1.4659
 4797TIP3   OH236025   4.741   6.801   0.778 -0.1686 -0.1150  0.2802
 4797TIP3    H136026   4.821   6.796   0.830 -0.4211  0.7965  0.7704
 4797TIP3    H236027   4.673   6.768   0.836 -0.1592 -0.9500 -0.1590
 4798TIP3   OH236028   0.369   2.924   6.129  0.4461 -0.5034 -0.0746
 4798TIP3    H136029   0.274   2.935   6.135  0.4994 -0.2196  0.2451
 4798TIP3    H236030   0.384   2.896   6.038  0.1701  0.6852 -0.4961
 4799TIP3   OH236031   6.304   4.081   6.377  0.2630 -0.5303 -0.6596
 4799TIP3    H136032   6.228   4.099   6.322 -0.2149  1.6090  0.5920
 4799TIP3    H236033   6.376   4.129   6.336  0.3178 -0.3905 -0.4035
 4800TIP3   OH236034   1.521   2.789   7.025  0.1012  0.5644 -0.5969
 4800TIP3    H136035   1.608   2.751   7.019  0.6915  1.8924 -0.7442
 4800TIP3    H236036   1.488   2.788   6.935 -0.0195  0.1387 -0.5529
 4801TIP3   OH236037   3.680   0.510   6.862 -1.1720  0.0263  0.0929
 4801TIP3    H136038   3.651   0.596   6.892  1.3448  1.5049 -1.3248
 4801TIP3    H236039   3.776   0.518   6.855 -0.7928 -3.0765  0.4098
 4802TIP3   OH236040   0.409   6.619   7.083  0.2413  0.2616 -0.4864
 4802TIP3    H136041   0.436   6.528   7.097 -0.2885 -0.1049 -1.7091
 4802TIP3    H236042   0.398   6.626   6.988  1.6379  1.9973 -0.5755
 4803TIP3   OH236043   5.288   3.241   7.136 -0.3022  0.3162  0.0142
 4803TIP3    H136044   5.286   3.146   7.119  0.5336  0.5519 -1.6512
 4803TIP3    H236045   5.286   3.248   7.231 -0.3203 -1.3814  0.1821
 4804TIP3   OH236046   4.950   0.442   1.031  0.6194 -0.0231 -0.3412
 4804TIP3    H136047   4.980   0.525   0.994 -1.2998  0.4728 -0.9167
 4804TIP3    H236048   5.030   0.397   1.056  1.7830  1.4435 -1.2107
 4805TIP3   OH236049   0.606   1.997   1.177  0.4645 -0.0038 -0.1292
 4805TIP3    H136050   0.628   1.982   1.085  0.2414  0.6257 -0.2908
 4805TIP3    H236051   0.517   2.032   1.175  0.4820  0.0740  0.3238
 4806TIP3   OH236052   2.540   5.758   7.856 -0.0688 -0.2185 -0.1789
 4806TIP3    H136053   2.619   5.756   7.802 -0.6292 -2.3576 -1.0018
 4806TIP3    H236054   2.572   5.778   7.944  1.1769  0.6080 -0.7890
 4807TIP3   OH236055   2.795   0.143   0.145  0.5361  0.3844 -0.4916
 4807TIP3    H136056   2.814   0.128   0.238 -1.9371 -2.2844 -0.2700
 4807TIP3    H236057   2.874   0.115   0.099  1.1370  0.0256  0.7083
 4808TIP3   OH236058   0.258   5.822   7.746  0.3153 -0.5709  0.1077
 4808TIP3    H136059   0.235   5.741   7.791 -0.4456 -0.5832 -0.2804
 4808TIP3    H236060   0.202   5.823   7.668 -0.5357  0.8486  0.6838
 4809TIP3   OH236061   5.532   5.439   8.039  0.0053  0.3368 -0.0788
 4809TIP3    H136062   5.458   5.431   8.099  0.8831  2.7567  1.4910
 4809TIP3    H236063   5.562   5.349   8.025 -3.2225 -0.7373 -0.8812
 4810TIP3   OH236064   4.386   4.148   5.552  0.3996 -0.0198  0.8844
 4810TIP3    H136065   4.455   4.092   5.587  0.8777 -0.4482 -0.6519
 4810TIP3    H236066   4.307   4.124   5.601  1.0393 -0.5120  1.6951
 4811TIP3   OH236067   0.014   4.222   0.490 -0.3606 -0.1788  0.1374
 4811TIP3    H136068  -0.040   4.156   0.535  0.2936 -0.6061  0.3178
 4811TIP3    H236069   0.077   4.250   0.557 -0.0017 -0.1052 -0.2284
 4812TIP3   OH236070   3.571   4.717   7.072 -0.3081  0.0129 -0.1052
 4812TIP3    H136071   3.487   4.757   7.095 -0.0677  0.3787  0.1508
 4812TIP3    H236072   3.597   4.668   7.149  0.7391  1.6485  0.6478
 4813TIP3   OH236073   5.276   2.023   1.328 -0.2704  0.6187 -0.2875
 4813TIP3    H136074   5.333   1.981   1.391 -0.6301  1.2664  0.4918
 4813TIP3    H236075   5.249   1.952   1.269  1.4858  0.3511 -0.8094
 4814TIP3   OH236076   1.709   1.245   6.668  0.2071 -0.0596 -0.2940
 4814TIP3    H136077   1.656   1.227   6.590  0.8173  1.1015 -1.0104
 4814TIP3    H236078   1.719   1.160   6.710 -0.5619 -0.6311 -1.2067
 4815TIP3   OH236079   3.312   3.137   1.121  0.1163 -0.0851  0.0211
 4815TIP3    H136080   3.308   3.043   1.109  0.6680 -0.0309 -0.6738
 4815TIP3    H236081   3.237   3.171   1.072 -1.1181 -0.2563  1.6922
 4816TIP3   OH236082   2.228   3.545   7.449  0.1304  0.1927 -0.1395
 4816TIP3    H136083   2.232   3.542   7.353 -1.3576  0.3061 -0.2333
 4816TIP3    H236084   2.134   3.547   7.468  0.3843 -0.9836  1.3733
 4817TIP3   OH236085   1.864   5.220   0.483 -0.6465  0.0976  0.0881
 4817TIP3    H136086   1.798   5.267   0.534 -1.0126  0.0327 -0.3267
 4817TIP3    H236087   1.839   5.234   0.392  0.3944  0.7996 -0.1186
 4818TIP3   OH236088   1.161   5.771   6.241 -0.6989 -0.1876 -0.1919
 4818TIP3    H136089   1.231   5.831   6.216 -1.0014  0.6854  0.9423
 4818TIP3    H236090   1.098   5.777   6.169 -0.8995  1.1809  0.0652
 4819TIP3   OH236091   0.823   6.557   7.359 -0.6776 -0.6369  0.0050
 4819TIP3    H136092   0.731   6.560   7.382 -0.3060  1.6851  1.5033
 4819TIP3    H236093   0.863   6.501   7.425 -0.7022  0.1726  0.7188
 4820TIP3   OH236094   5.661   5.127   0.207 -0.0629 -0.1161  0.1849
 4820TIP3    H136095   5.590   5.144   0.269  0.2322  0.1318  0.4656
 4820TIP3    H236096   5.730   5.087   0.261  0.5187  0.8609  0.1953
 4821TIP3   OH236097   1.927   0.228   1.048 -0.4147  0.4058  0.4020
 4821TIP3    H136098   1.832   0.219   1.059 -0.3375 -0.9173  0.2302
 4821TIP3    H236099   1.938   0.268   0.962 -0.8243 -2.0807 -0.9261
 4822TIP3   OH236100   5.333   4.150   1.261 -0.2161 -0.3899  0.2004
 4822TIP3    H136101   5.240   4.165   1.243  0.1413  2.4017  0.2674
 4822TIP3    H236102   5.372   4.137   1.174 -0.5096 -0.5782  0.0947
 4823TIP3   OH236103   4.147   5.853   1.514 -0.2825 -0.1002  0.5182
 4823TIP3    H136104   4.110   5.798   1.444 -1.1051  0.3941  0.5551
 4823TIP3    H236105   4.088   5.841   1.588 -0.9237  1.4386  0.2819
 4824TIP3   OH236106   0.767   0.384   7.838  0.1985  0.4337  0.2983
 4824TIP3    H136107   0.748   0.365   7.747  2.5030  0.8526 -0.3411
 4824TIP3    H236108   0.707   0.328   7.888  0.5866 -1.6802 -1.4663
 4825TIP3   OH236109   4.491   6.727   1.005 -0.3100 -0.2285  0.1008
 4825TIP3    H136110   4.563   6.669   1.032  0.5456  1.4811  1.6669
 4825TIP3    H236111   4.413   6.690   1.048 -0.2169 -1.4926 -0.7649
 4826TIP3   OH236112   6.620   1.296   0.365 -0.3038  0.4260 -0.8176
 4826TIP3    H136113   6.598   1.237   0.292  1.2730 -0.7315 -0.4172
 4826TIP3    H236114   6.714   1.311   0.356 -0.7167  3.3498 -1.1799
 4827TIP3   OH236115   0.878   3.687   7.705 -0.8843  0.1260  0.2277
 4827TIP3    H136116   0.961   3.644   7.724 -0.9394 -1.8082 -3.2185
 4827TIP3    H236117   0.812   3.630   7.746 -0.6823  1.1660  2.1534
 4828TIP3   OH236118   3.520   0.049   6.553  0.0077 -0.0393  0.5314
 4828TIP3    H136119   3.586   0.101   6.599 -0.5002  0.7699  0.3634
 4828TIP3    H236120   3.527   0.076   6.462  0.2084 -0.7802  0.3229
 4829TIP3   OH236121   4.950   4.314   1.113 -0.0735 -0.2946  0.6127
 4829TIP3    H136122   5.005   4.389   1.089  2.2022 -1.6398  1.3664
 4829TIP3    H236123   4.864   4.352   1.131  0.9876  2.1195  0.9064
 4830TIP3   OH236124   0.119   6.201   7.837 -0.2755 -0.6797 -0.1933
 4830TIP3    H136125   0.057   6.130   7.850 -0.7659 -0.5822 -1.7495
 4830TIP3    H236126   0.135   6.202   7.742  0.5072  0.6177 -0.0754
 4831TIP3   OH236127   4.061   0.704   8.040  0.1376 -0.0881  0.2437
 4831TIP3    H136128   3.998   0.764   8.081  0.9803 -0.1428  1.6657
 4831TIP3    H236129   4.093   0.650   8.112 -0.0539 -1.7835 -0.8883
 4832TIP3   OH236130   4.890   5.567   6.829  0.4191 -0.4021  0.4470
 4832TIP3    H136131   4.922   5.647   6.786 -1.3478 -0.5718 -1.2921
 4832TIP3    H236132   4.961   5.542   6.888  1.1329  2.2907  0.8435
 4833TIP3   OH236133   4.213   1.317   6.909  0.8353 -0.4774  0.5824
 4833TIP3    H136134   4.137   1.372   6.890  0.9453 -0.8227 -0.9288
 4833TIP3    H236135   4.190   1.272   6.990  0.7866  1.8501  1.9476
 4834TIP3   OH236136   3.030   1.274   7.455  0.5189 -0.0348 -0.0824
 4834TIP3    H136137   3.113   1.295   7.411 -1.0933  3.2830 -1.9088
 4834TIP3    H236138   2.972   1.246   7.384 -0.8897  1.1005  0.5848
 4835TIP3   OH236139   0.527   6.775   6.537 -0.3168  0.0099 -0.7412
 4835TIP3    H136140   0.598   6.759   6.598 -0.2161  0.9831 -0.5943
 4835TIP3    H236141   0.530   6.869   6.520 -2.4127  0.3444  0.3419
 4836TIP3   OH236142   6.364   2.949   1.207  0.8162 -0.0366 -0.8282
 4836TIP3    H136143   6.423   2.882   1.173  1.0688  0.5779 -1.6395
 4836TIP3    H236144   6.417   3.029   1.212  0.8376 -0.1182  1.1988
 4837TIP3   OH236145   6.081   5.027   1.433  0.6258  0.7160 -0.0721
 4837TIP3    H136146   6.126   4.946   1.454  0.6671  0.8477  0.3447
 4837TIP3    H236147   6.035   5.008   1.351  0.1541  0.0970  0.3307
 4838TIP3   OH236148   6.305   6.073   0.813  0.1578 -0.0521 -0.2664
 4838TIP3    H136149   6.400   6.063   0.807  0.4136  1.5637  0.5753
 4838TIP3    H236150   6.278   6.009   0.880  0.4732 -1.2786 -1.2747
 4839TIP3   OH236151   2.784   1.300   0.083 -0.0045  0.9496  0.3892
 4839TIP3    H136152   2.766   1.393   0.099 -2.4271  0.9205 -1.5016
 4839TIP3    H236153   2.819   1.298  -0.006 -1.1578 -0.0011 -0.0735
 4840TIP3   OH236154   3.715   6.948   7.402  0.2051 -0.1318 -0.5267
 4840TIP3    H136155   3.715   6.879   7.468 -1.9416  0.1040 -0.2116
 4840TIP3    H236156   3.699   7.029   7.451  2.0069  0.5562 -0.9694
 4841TIP3   OH236157   3.712   3.881   0.720 -0.3288 -0.2100 -0.0092
 4841TIP3    H136158   3.743   3.837   0.800  1.8196  1.6653  0.2973
 4841TIP3    H236159   3.773   3.852   0.653 -1.0625 -0.4106 -0.5974
 4842TIP3   OH236160   1.420   4.873   5.930 -0.4259  0.0816 -0.5976
 4842TIP3    H136161   1.499   4.869   5.984 -0.5936 -0.3675 -0.3823
 4842TIP3    H236162   1.419   4.962   5.896  0.2704  0.0437 -0.7423
 4843TIP3   OH236163   4.479   3.891   1.564 -0.2009 -0.1031  0.3826
 4843TIP3    H136164   4.443   3.867   1.649  0.1216 -1.7743  0.0761
 4843TIP3    H236165   4.557   3.838   1.555 -0.5704 -0.4312 -1.2247
 4844TIP3   OH236166   7.035   5.345   1.678  0.1357 -0.2169 -0.7912
 4844TIP3    H136167   6.981   5.364   1.755  1.0204 -0.8337  0.0116
 4844TIP3    H236168   6.986   5.278   1.631  0.6237 -1.5449  0.4826
 4845TIP3   OH236169   0.216   1.354   5.797  0.1670 -0.2905 -0.1909
 4845TIP3    H136170   0.299   1.401   5.804  0.5881 -1.1185  0.4731
 4845TIP3    H236171   0.240   1.266   5.770 -0.0115 -1.8747  4.0868
 4846TIP3   OH236172   0.708   5.821   1.671 -0.1881 -0.3113  0.7897
 4846TIP3    H136173   0.636   5.876   1.641  0.2977  0.0864  0.3228
 4846TIP3    H236174   0.742   5.866   1.748 -0.1755 -0.2727  0.7618
 4847TIP3   OH236175   0.802   2.087   1.762 -0.3601  0.5347 -0.1564
 4847TIP3    H136176   0.871   2.024   1.742 -2.0371 -1.6424  0.6281
 4847TIP3    H236177   0.805   2.097   1.857 -0.4353  1.2971 -0.2271
 4848TIP3   OH236178   6.489   4.410   0.175 -0.3476 -0.0704  0.2765
 4848TIP3    H136179   6.575   4.437   0.143 -0.0410  0.2251  1.3310
 4848TIP3    H236180   6.502   4.322   0.210 -0.3352  0.2025  0.9719
 4849TIP3   OH236181   3.466   2.606   2.015 -0.3364  0.1254  0.3770
 4849TIP3    H136182   3.559   2.586   2.026 -0.4650 -0.3109  0.7311
 4849TIP3    H236183   3.426   2.581   2.099 -0.6738  0.9195  0.4626
 4850TIP3   OH236184   6.171   4.426   1.502 -0.0777 -0.2891 -0.0289
 4850TIP3    H136185   6.216   4.491   1.555 -0.1350  0.1545 -0.5085
 4850TIP3    H236186   6.226   4.417   1.424 -0.9788  0.5518 -0.8101
 4851TIP3   OH236187   0.679   0.113   0.323 -0.3088  0.2007 -0.3653
 4851TIP3    H136188   0.663   0.194   0.372 -0.6696 -0.0299 -0.0867
 4851TIP3    H236189   0.612   0.052   0.356 -0.2541 -0.1054 -0.8103
 4852TIP3   OH236190   3.782   4.146   0.530  0.6223 -0.0606 -0.3435
 4852TIP3    H136191   3.766   4.151   0.435  0.9133 -2.3127 -0.5638
 4852TIP3    H236192   3.860   4.200   0.544  0.6162  0.2439 -1.4001
 4853TIP3   OH236193   2.580   0.175   7.056 -0.1223 -0.1239 -0.2243
 4853TIP3    H136194   2.600   0.268   7.072 -0.5056 -0.3803  2.0522
 4853TIP3    H236195   2.492   0.163   7.090 -0.7090 -1.0272 -1.9359
 4854TIP3   OH236196   6.070   2.506   0.311  0.0735  0.5761 -0.2208
 4854TIP3    H136197   6.143   2.482   0.368 -0.0814  0.7814  0.0656
 4854TIP3    H236198   6.103   2.491   0.222 -0.6236 -2.4676 -0.0823
 4855TIP3   OH236199   3.470   2.986   6.136 -0.4225 -0.1421 -0.4148
 4855TIP3    H136200   3.562   2.990   6.110 -0.2794  0.7531  0.1807
 4855TIP3    H236201   3.467   2.920   6.205  0.0124  0.7189  0.4496
 4856TIP3   OH236202   7.062   5.521   1.433 -0.3462  0.1834  0.1164
 4856TIP3    H136203   6.971   5.547   1.428 -0.9893 -1.5849  1.3285
 4856TIP3    H236204   7.068   5.472   1.516  2.2966  2.4146  1.4104
 4857TIP3   OH236205   4.231   2.718   2.142  0.0440 -0.3289 -0.1569
 4857TIP3    H136206   4.238   2.640   2.198 -1.3040 -1.3510 -1.3096
 4857TIP3    H236207   4.154   2.700   2.088  0.9102  0.9098 -1.8628
 4858TIP3   OH236208   1.949   6.399   6.849  0.6898 -0.4000 -0.3998
 4858TIP3    H136209   2.017   6.332   6.854  1.0297 -0.1192 -1.0915
 4858TIP3    H236210   1.978   6.458   6.779 -0.8678 -0.9858 -1.6079
 4859TIP3   OH236211   1.250   2.901   0.748 -0.0486  0.2752  0.0257
 4859TIP3    H136212   1.296   2.823   0.716  1.3213  1.3402 -0.7098
 4859TIP3    H236213   1.172   2.906   0.694  0.3859 -0.0053 -0.6450
 4860TIP3   OH236214   0.585   4.727   1.737  0.0635  0.2398 -0.1391
 4860TIP3    H136215   0.551   4.762   1.819  2.8365  1.6995  0.5198
 4860TIP3    H236216   0.563   4.793   1.672 -1.8560 -0.7673 -0.5575
 4861TIP3   OH236217   1.083   5.687   1.744 -0.1579 -0.1567  0.2399
 4861TIP3    H136218   1.128   5.717   1.823 -1.0758 -1.0575  1.1394
 4861TIP3    H236219   1.105   5.594   1.738 -1.0040 -0.3493  0.0766
 4862TIP3   OH236220   2.204   0.355   7.705  0.0282  0.0284  0.1731
 4862TIP3    H136221   2.212   0.286   7.771 -0.3553 -0.1935 -0.0044
 4862TIP3    H236222   2.235   0.434   7.749  0.3243 -0.2280  0.4291
 4863TIP3   OH236223   3.194   4.731   0.177  1.0920 -0.1632 -0.1768
 4863TIP3    H136224   3.236   4.817   0.175 -1.4621  1.1977 -0.1835
 4863TIP3    H236225   3.125   4.740   0.243 -0.3264 -1.6456 -1.3703
 4864TIP3   OH236226   6.307   3.895   0.106  0.1160  0.5871  0.4641
 4864TIP3    H136227   6.265   3.928   0.026  0.9261  2.1229  0.6425
 4864TIP3    H236228   6.376   3.837   0.074  1.2575  2.1616 -0.0483
 4865TIP3   OH236229   0.916   3.271   7.185 -0.5526  0.3086  0.1958
 4865TIP3    H136230   0.920   3.181   7.151 -0.1806  0.2397  0.4241
 4865TIP3    H236231   0.906   3.325   7.107  1.5704  0.2527 -0.1503
 4866TIP3   OH236232   4.978   6.750   6.407  0.5006 -0.0115  0.1390
 4866TIP3    H136233   5.024   6.765   6.324 -1.0838 -0.3481 -0.8369
 4866TIP3    H236234   5.048   6.731   6.469  1.6550 -1.2768 -1.4540
 4867TIP3   OH236235   1.155   4.132   0.040 -0.5391  0.4547 -0.2746
 4867TIP3    H136236   1.170   4.134  -0.055 -2.7361  2.1650 -0.6458
 4867TIP3    H236237   1.109   4.213   0.059 -1.0470 -0.3245  2.1319
 4868TIP3   OH236238   3.770   3.399   1.068  0.5559  0.3793 -0.3347
 4868TIP3    H136239   3.728   3.313   1.056  2.2543 -0.3610 -1.3277
 4868TIP3    H236240   3.701   3.462   1.049 -0.5532 -0.7664 -0.2543
 4869TIP3   OH236241   3.438   4.310   1.453 -0.4580 -0.2330 -0.3919
 4869TIP3    H136242   3.348   4.325   1.483 -0.8917  0.5763 -1.9692
 4869TIP3    H236243   3.484   4.278   1.530 -1.9191  0.0683  0.6517
 4870TIP3   OH236244   5.620   2.972   7.917 -0.0721 -0.0731 -0.6328
 4870TIP3    H136245   5.626   3.037   7.987  2.3415 -1.4445  0.5755
 4870TIP3    H236246   5.640   2.889   7.959 -0.7665 -1.2961 -2.5692
 4871TIP3   OH236247   4.744   4.424   1.496 -0.3000  0.4187 -0.0704
 4871TIP3    H136248   4.754   4.347   1.551 -0.7807  1.6812  1.8781
 4871TIP3    H236249   4.650   4.430   1.479 -0.2568  0.5452 -0.2775
 4872TIP3   OH236250   3.907   1.783   6.946  0.2206 -0.4468  0.0526
 4872TIP3    H136251   3.833   1.836   6.918 -1.0719 -2.2547 -0.1239
 4872TIP3    H236252   3.984   1.836   6.923 -0.9703  1.6983  0.6943
 4873TIP3   OH236253   5.775   6.008   6.313  0.5943 -0.6979  0.0377
 4873TIP3    H136254   5.762   5.997   6.218  1.1800  2.5791 -0.5518
 4873TIP3    H236255   5.851   6.065   6.320 -0.5657  0.6958  2.3773
 4874TIP3   OH236256   2.266   6.966   0.117 -0.3262 -0.6086  0.0428
 4874TIP3    H136257   2.347   6.923   0.089  0.6093  0.4529  0.9894
 4874TIP3    H236258   2.225   6.904   0.177  1.5812  0.1296  2.3067
 4875TIP3   OH236259   3.510   0.147   7.690 -0.4316  0.1597 -0.0047
 4875TIP3    H136260   3.570   0.190   7.750  0.4581 -1.7313  0.5536
 4875TIP3    H236261   3.523   0.191   7.606 -0.6798  1.9234  0.8477
 4876TIP3   OH236262   1.698   3.191   6.350  0.1738  0.7741 -0.3064
 4876TIP3    H136263   1.628   3.217   6.410 -0.7841 -1.4160 -0.3832
 4876TIP3    H236264   1.671   3.225   6.265 -1.7691 -1.4172 -0.6848
 4877TIP3   OH236265   2.667   6.617   0.583  0.1018 -0.4435  0.1563
 4877TIP3    H136266   2.758   6.612   0.613  0.9049  1.7038 -1.6863
 4877TIP3    H236267   2.636   6.702   0.615 -1.4671 -1.3396  1.1579
 4878TIP3   OH236268   4.634   4.695   0.826  0.0122  0.9276 -0.2118
 4878TIP3    H136269   4.677   4.726   0.746  0.9162  2.5207  0.8167
 4878TIP3    H236270   4.672   4.750   0.895 -1.4945  0.3014  1.1638
 4879TIP3   OH236271   3.722   3.075   6.091 -0.8400 -0.0574 -0.3951
 4879TIP3    H136272   3.811   3.093   6.061 -1.5815  0.6856 -2.3417
 4879TIP3    H236273   3.667   3.133   6.038 -2.6397 -1.8565 -0.6172
 4880TIP3   OH236274   2.522   1.897   7.973 -0.1933 -0.1658 -0.7369
 4880TIP3    H136275   2.427   1.904   7.962 -0.1339  1.0790 -0.6607
 4880TIP3    H236276   2.537   1.921   8.064  0.2198  0.0565 -0.8615
 4881TIP3   OH236277   4.632   5.358   7.570  0.6525 -0.1065 -0.2776
 4881TIP3    H136278   4.675   5.420   7.511 -0.7991  1.5402  0.3220
 4881TIP3    H236279   4.539   5.363   7.548  0.2658 -0.5823  1.1366
 4882TIP3   OH236280   4.276   4.145   6.797 -0.4430 -0.0149 -0.4045
 4882TIP3    H136281   4.260   4.238   6.814 -0.9917  0.0443 -1.2052
 4882TIP3    H236282   4.364   4.130   6.831 -0.3774  0.7785 -0.1899
 4883TIP3   OH236283   5.808   3.905   0.423 -0.6625 -0.1896  0.0136
 4883TIP3    H136284   5.729   3.875   0.467 -1.0506  0.3489 -0.3071
 4883TIP3    H236285   5.861   3.826   0.411 -0.9629 -0.4818  0.6066
 4884TIP3   OH236286   2.277   6.581   6.729  0.3536 -0.0343 -0.2482
 4884TIP3    H136287   2.289   6.661   6.677 -0.6671  0.4784  0.2774
 4884TIP3    H236288   2.361   6.535   6.721  1.3642  1.5971  0.2808
 4885TIP3   OH236289   5.290   3.827   1.156 -0.3232  0.5648 -0.4807
 4885TIP3    H136290   5.216   3.828   1.217  0.3607  2.0091  0.3729
 4885TIP3    H236291   5.269   3.896   1.093  0.5994  1.4786  0.1801
 4886TIP3   OH236292   2.559   4.324   2.121 -0.1179 -0.3023  0.2373
 4886TIP3    H136293   2.489   4.356   2.064 -0.9906 -1.0640  0.8546
 4886TIP3    H236294   2.586   4.401   2.171  0.1911  0.2200 -0.7169
 4887TIP3   OH236295   3.281   2.501   7.374 -1.0396  0.1958  0.1177
 4887TIP3    H136296   3.322   2.441   7.312 -0.3809  0.0363  0.7018
 4887TIP3    H236297   3.282   2.585   7.328  1.1068  0.4886  0.5669
 4888TIP3   OH236298   1.130   5.030   6.807 -0.0553  0.4997 -0.0543
 4888TIP3    H136299   1.074   4.986   6.870  0.4427 -0.7228 -0.4419
 4888TIP3    H236300   1.094   5.119   6.802 -2.4381 -0.4132 -0.8226
 4889TIP3   OH236301   1.257   1.231   2.353 -0.1782  0.7051 -0.2464
 4889TIP3    H136302   1.190   1.165   2.334  0.4468 -0.3784  1.1388
 4889TIP3    H236303   1.339   1.182   2.350  0.5014  1.8478 -1.1125
 4890TIP3   OH236304   5.197   0.697   0.463 -0.1431 -0.1010 -0.2808
 4890TIP3    H136305   5.178   0.627   0.526  0.4707 -1.6775 -1.7690
 4890TIP3    H236306   5.278   0.736   0.496 -0.2023 -0.4355  0.2847
 4891TIP3   OH236307   6.421   4.792   1.664  0.4560  0.5123  0.1082
 4891TIP3    H136308   6.425   4.814   1.571 -1.1507  0.6462  0.0328
 4891TIP3    H236309   6.430   4.696   1.666  0.3562  0.4942 -0.1999
 4892TIP3   OH236310   6.788   2.324   0.135 -1.0934 -0.1335  0.1301
 4892TIP3    H136311   6.819   2.239   0.167  0.2047  0.4621  0.5278
 4892TIP3    H236312   6.842   2.340   0.057 -0.6325  0.7721  0.6304
 4893TIP3   OH236313   6.242   5.424   7.606 -0.0915  0.1387  0.3402
 4893TIP3    H136314   6.329   5.405   7.642  0.9291  2.3441 -0.7328
 4893TIP3    H236315   6.202   5.482   7.671  0.2078  1.0129 -0.2395
 4894TIP3   OH236316   3.180   2.870   6.073 -0.7719  0.3054 -0.0852
 4894TIP3    H136317   3.254   2.921   6.039 -1.6903  1.3872 -0.5409
 4894TIP3    H236318   3.217   2.785   6.094  1.4540  1.8949  3.3033
 4895TIP3   OH236319   5.819   4.166   7.687 -0.2334  0.0438 -0.1311
 4895TIP3    H136320   5.803   4.072   7.682 -0.9617  0.0923  0.9745
 4895TIP3    H236321   5.898   4.175   7.740  0.1768  0.0322 -0.7400
 4896TIP3   OH236322   5.941   1.013   0.720 -0.8313 -0.3842 -0.1435
 4896TIP3    H136323   5.919   1.103   0.698 -1.0917 -0.6375 -0.9651
 4896TIP3    H236324   6.010   1.020   0.786 -2.1495  0.4188  1.2114
 4897TIP3   OH236325   2.961   3.143   1.189  0.1046 -0.0074  0.2461
 4897TIP3    H136326   2.991   3.060   1.226 -0.0628 -0.1745  0.0097
 4897TIP3    H236327   3.005   3.147   1.103  1.4159  0.9199  0.9236
 4898TIP3   OH236328   5.871   4.832   1.524 -0.0192 -0.2573 -0.2042
 4898TIP3    H136329   5.893   4.742   1.500 -1.3701 -0.6368 -0.1223
 4898TIP3    H236330   5.909   4.844   1.611 -0.3140 -0.9587  0.0298
 4899TIP3   OH236331   3.647   0.594   7.285  0.4168 -0.1904  0.3826
 4899TIP3    H136332   3.674   0.666   7.342  0.0857 -1.1666  1.8488
 4899TIP3    H236333   3.685   0.516   7.326  0.4951 -0.8887 -0.9814
 4900TIP3   OH236334   4.018   3.360   1.406 -0.1441 -0.2868  0.0013
 4900TIP3    H136335   4.097   3.330   1.450  0.4331  0.2509 -0.6494
 4900TIP3    H236336   3.960   3.283   1.406  0.6303 -0.8885 -0.0937
 4901TIP3   OH236337   3.515   3.175   7.075  0.0735 -0.5768  0.2812
 4901TIP3    H136338   3.553   3.222   7.000 -1.0530  0.3051  0.2366
 4901TIP3    H236339   3.502   3.086   7.042  2.9652 -1.2402  0.6112
 4902TIP3   OH236340   3.046   4.581   1.342 -0.1510  0.2479 -0.1190
 4902TIP3    H136341   3.117   4.558   1.402 -0.3303 -0.9813 -0.3534
 4902TIP3    H236342   3.086   4.580   1.256 -0.5685 -1.0490 -0.3147
 4903TIP3   OH236343   1.192   4.065   7.727 -0.3625  0.3184  0.5686
 4903TIP3    H136344   1.101   4.083   7.702 -0.1949 -0.2858 -0.5666
 4903TIP3    H236345   1.204   3.972   7.705  0.7126  0.5568  0.1032
 4904TIP3   OH236346   1.222   2.953   6.227  0.2097 -0.6757 -0.2038
 4904TIP3    H136347   1.300   2.977   6.176  0.0797 -0.2783 -0.2205
 4904TIP3    H236348   1.156   3.017   6.201 -0.0268 -0.8150  0.0512
 4905TIP3   OH236349   4.064   2.510   1.461  0.3457  0.2283 -0.0697
 4905TIP3    H136350   4.134   2.522   1.525  0.6011  1.1496 -0.5114
 4905TIP3    H236351   4.003   2.581   1.478 -0.8104 -0.8880  0.6888
 4906TIP3   OH236352   1.259   4.184   7.118  0.1292  0.2534 -0.5365
 4906TIP3    H136353   1.265   4.228   7.034  2.3102 -0.6964 -0.9502
 4906TIP3    H236354   1.332   4.122   7.118 -0.3962 -0.4650  1.6638
 4907TIP3   OH236355   6.374   6.078   7.946  0.1526 -0.5791  0.3264
 4907TIP3    H136356   6.352   6.005   7.888  0.6732 -1.6647  1.4357
 4907TIP3    H236357   6.325   6.152   7.912 -1.8062 -1.8732  0.1867
 4908TIP3   OH236358   2.742   0.380   1.741  0.7087 -0.0445  0.2636
 4908TIP3    H136359   2.768   0.443   1.674  0.7961 -2.5027 -2.1709
 4908TIP3    H236360   2.650   0.400   1.758 -0.0979 -0.8856 -2.5643
 4909TIP3   OH236361   5.844   7.089   6.838 -0.2073  0.7567  0.1345
 4909TIP3    H136362   5.861   6.998   6.864 -1.4280  0.9914  1.9567
 4909TIP3    H236363   5.892   7.141   6.902  0.4054  1.4021 -0.8459
 4910TIP3   OH236364   3.361   4.266   7.857  0.9724 -0.4470  0.2912
 4910TIP3    H136365   3.348   4.250   7.764 -0.3248 -0.6850  0.4911
 4910TIP3    H236366   3.387   4.182   7.893  0.8664 -0.5015  0.2402
 4911TIP3   OH236367   1.783   6.698   7.110 -0.3024  0.3600 -0.4188
 4911TIP3    H136368   1.843   6.642   7.160 -0.8738 -1.3807 -1.5953
 4911TIP3    H236369   1.759   6.645   7.034 -2.0500  1.6636 -0.8253
 4912TIP3   OH236370   0.919   2.964   7.235  0.8224 -0.3355  0.2468
 4912TIP3    H136371   0.986   2.897   7.237  0.2908 -0.8625  0.6923
 4912TIP3    H236372   0.884   2.966   7.324 -2.2607 -2.6588 -0.7176
 4913TIP3   OH236373   6.622   4.498   0.997  0.3934 -0.6691  0.3225
 4913TIP3    H136374   6.638   4.464   1.084  0.6109 -0.2356  0.4536
 4913TIP3    H236375   6.647   4.427   0.938  0.6337 -0.8129  0.5986
 4914TIP3   OH236376   1.930   2.307   7.248 -0.0142 -0.0585 -0.0323
 4914TIP3    H136377   1.944   2.400   7.231  3.1028 -0.2366  0.9000
 4914TIP3    H236378   1.931   2.299   7.343 -1.7669 -0.9197 -0.0410
 4915TIP3   OH236379   5.492   6.647   0.583 -0.1746 -0.5174  0.1126
 4915TIP3    H136380   5.451   6.561   0.589 -1.1962 -0.0114  0.6780
 4915TIP3    H236381   5.468   6.680   0.497  0.1127 -0.7384 -0.0546
 4916TIP3   OH236382   1.537   3.985   1.484 -0.4000 -0.3737 -0.1357
 4916TIP3    H136383   1.458   4.031   1.511  0.0507 -0.4522  1.3913
 4916TIP3    H236384   1.544   3.911   1.545  2.2131  1.0793  1.5261
 4917TIP3   OH236385   3.985   4.300   0.267 -0.3106 -0.2792 -0.6379
 4917TIP3    H136386   4.012   4.298   0.359 -1.0992  0.3332 -0.3893
 4917TIP3    H236387   3.894   4.329   0.269 -0.8835 -1.8886 -1.5002
 4918TIP3   OH236388   5.168   0.604   2.232 -0.1266 -0.6947 -0.3340
 4918TIP3    H136389   5.098   0.539   2.227 -0.8635  0.1354 -0.9569
 4918TIP3    H236390   5.134   0.681   2.187  1.6987 -0.7162 -1.8967
 4919TIP3   OH236391   5.971   1.469   7.735  0.3200 -0.3694 -0.1395
 4919TIP3    H136392   5.964   1.378   7.706  1.5081 -0.7998  0.8223
 4919TIP3    H236393   6.030   1.465   7.811  0.7862  1.2665 -0.3861
 4920TIP3   OH236394   3.080   4.563   6.599  0.3526  0.2778  0.5139
 4920TIP3    H136395   3.113   4.508   6.528  0.3381 -0.2997  0.9403
 4920TIP3    H236396   3.148   4.628   6.613 -0.3910  1.4779 -1.1657
 4921TIP3   OH236397   0.017   4.135   1.615  0.4628  0.2130 -0.1516
 4921TIP3    H136398   0.035   4.108   1.705 -1.6314  0.3840  0.3744
 4921TIP3    H236399   0.053   4.224   1.609  0.0829  0.4349  0.7296
 4922TIP3   OH236400   0.938   2.415   0.891 -0.1963 -0.2890 -0.0828
 4922TIP3    H136401   0.979   2.498   0.868 -1.0125  0.0363 -0.4036
 4922TIP3    H236402   0.858   2.440   0.937 -0.5396 -0.9014 -0.3433
 4923TIP3   OH236403   1.139   2.806   0.171  0.1984 -0.2199 -0.2403
 4923TIP3    H136404   1.206   2.826   0.237 -1.4785 -1.0781  1.8561
 4923TIP3    H236405   1.104   2.891   0.145  0.3247  0.1008  0.6186
 4924TIP3   OH236406   2.436   6.640   7.487  0.2506  0.5433 -0.1098
 4924TIP3    H136407   2.472   6.700   7.551  1.1170  2.1335 -2.0083
 4924TIP3    H236408   2.491   6.650   7.410 -1.4789 -0.3736 -1.5438
 4925TIP3   OH236409   0.362   3.866   1.762 -0.2720  0.2294  0.1407
 4925TIP3    H136410   0.358   3.890   1.855 -1.4706  2.1410 -0.3442
 4925TIP3    H236411   0.291   3.916   1.721 -1.1409 -2.1779 -1.5028
 4926TIP3   OH236412   6.412   0.125   1.737 -0.8064 -0.3355 -0.0810
 4926TIP3    H136413   6.478   0.113   1.806 -0.5873  0.4697 -0.1464
 4926TIP3    H236414   6.337   0.163   1.781 -1.2268 -1.2058 -0.0172
 4927TIP3   OH236415   2.590   5.935   8.105  0.2563 -0.6673 -0.6183
 4927TIP3    H136416   2.530   5.995   8.060  2.0004  0.6737 -1.2339
 4927TIP3    H236417   2.537   5.899   8.177 -1.6690 -0.5507 -1.8908
 4928TIP3   OH236418   4.924   1.543   1.298 -0.2292  0.6075 -0.2317
 4928TIP3    H136419   4.900   1.457   1.264 -1.2253  0.8131 -0.0838
 4928TIP3    H236420   4.905   1.604   1.227  0.5112  0.7069 -0.3513
 4929TIP3   OH236421   5.803   1.022   1.393 -0.0961 -0.4672 -0.1204
 4929TIP3    H136422   5.853   0.943   1.374  2.9800  1.3355 -0.3597
 4929TIP3    H236423   5.741   1.030   1.320 -0.2313 -2.4327 -0.2635
 4930TIP3   OH236424   3.307   3.753   8.094  0.4935  0.3145  0.0167
 4930TIP3    H136425   3.329   3.693   8.023  1.2457 -0.3883  0.8234
 4930TIP3    H236426   3.344   3.712   8.173 -1.3705  0.4552  1.0300
 4931TIP3   OH236427   0.138   2.509   6.974  0.3503  0.3604  0.3004
 4931TIP3    H136428   0.225   2.470   6.972 -0.2478 -1.0318 -1.4581
 4931TIP3    H236429   0.078   2.435   6.966 -0.8800  1.4571 -1.3234
 4932TIP3   OH236430   1.771   4.481   0.982 -0.1838 -0.4594  0.1579
 4932TIP3    H136431   1.781   4.505   1.074  0.5955 -0.7852  0.1716
 4932TIP3    H236432   1.839   4.414   0.968  1.3482  1.3026 -1.2676
 4933TIP3   OH236433   5.115   1.321   0.215  0.0135  0.0225  0.3966
 4933TIP3    H136434   5.195   1.288   0.255  0.5084  0.7773  0.0431
 4933TIP3    H236435   5.142   1.399   0.167 -1.0798  0.7550  0.9338
 4934TIP3   OH236436   0.848   2.153   1.455  0.2272  0.3647  0.0361
 4934TIP3    H136437   0.879   2.205   1.529  0.0123 -0.5434  0.7829
 4934TIP3    H236438   0.807   2.076   1.495 -0.2807  0.0717 -1.0182
 4935TIP3   OH236439   6.642   6.664   7.298  0.3753  0.1531 -0.3859
 4935TIP3    H136440   6.688   6.584   7.321  0.6850  0.5898  0.5819
 4935TIP3    H236441   6.575   6.637   7.235  1.1037 -0.6957 -0.8048
 4936TIP3   OH236442   3.494   5.976   7.031  0.1092 -0.8554 -0.2757
 4936TIP3    H136443   3.574   6.024   7.054  0.4518 -2.1656  1.5071
 4936TIP3    H236444   3.491   5.977   6.935  1.1024  1.0351 -0.3314
 4937TIP3   OH236445   4.354   0.135   0.035  0.4804 -0.5953 -0.0421
 4937TIP3    H136446   4.443   0.098   0.036  0.5891 -0.4341  2.1776
 4937TIP3    H236447   4.332   0.145   0.128 -2.3473 -1.7686 -0.4853
 4938TIP3   OH236448   2.947   3.788   7.702 -0.3902 -0.2019  0.3670
 4938TIP3    H136449   2.931   3.705   7.745 -0.2782 -0.9804 -1.0404
 4938TIP3    H236450   3.010   3.833   7.759 -0.2319 -1.1929  0.9979
 4939TIP3   OH236451   5.577   4.626   6.786  0.1794 -0.3166  0.1050
 4939TIP3    H136452   5.638   4.689   6.823 -0.7599  0.0628  1.0622
 4939TIP3    H236453   5.499   4.633   6.840 -1.7024  1.0015 -2.5470
 4940TIP3   OH236454   0.249   6.668   1.612  0.0751  0.4186 -0.4421
 4940TIP3    H136455   0.227   6.617   1.690 -0.0445 -0.6891 -1.1847
 4940TIP3    H236456   0.164   6.689   1.573  0.1838 -0.8008 -1.3765
 4941TIP3   OH236457   0.766   0.593   0.029 -0.1909 -0.4246 -0.2226
 4941TIP3    H136458   0.759   0.673   0.080  0.3067  0.1156 -0.9827
 4941TIP3    H236459   0.710   0.530   0.075 -0.3963  0.2835  0.5127
 4942TIP3   OH236460   0.147   3.558   1.916 -0.3247  0.1670  0.2545
 4942TIP3    H136461   0.160   3.498   1.989 -0.0762 -0.4960 -0.3195
 4942TIP3    H236462   0.154   3.645   1.954  2.1132 -0.1353  0.6714
 4943TIP3   OH236463   2.350   5.024   1.763  0.1194 -0.1140 -0.4014
 4943TIP3    H136464   2.433   4.988   1.733  0.6515  0.9467 -0.2836
 4943TIP3    H236465   2.371   5.114   1.789 -0.6767 -0.3855  1.3871
 4944TIP3   OH236466   5.512   3.772   7.793 -0.0917 -0.6671  0.4925
 4944TIP3    H136467   5.549   3.730   7.715 -1.5782 -1.7674  0.3453
 4944TIP3    H236468   5.457   3.704   7.833 -0.6935  0.4177  1.5570
 4945TIP3   OH236469   1.734   4.688   6.409  0.1829 -0.2393 -0.3032
 4945TIP3    H136470   1.719   4.593   6.411  0.5221 -0.2922 -0.2949
 4945TIP3    H236471   1.757   4.707   6.318 -1.3312  0.0574 -0.6474
 4946TIP3   OH236472   5.666   5.184   7.974  0.5454 -0.0872  0.2610
 4946TIP3    H136473   5.624   5.177   7.888 -0.9347  1.8538  0.7665
 4946TIP3    H236474   5.684   5.093   7.999  1.2492 -0.7005 -2.1787
 4947TIP3   OH236475   0.919   6.429   1.699  0.7395 -0.2562  0.1209
 4947TIP3    H136476   0.952   6.489   1.633  1.8888 -0.1971  0.7323
 4947TIP3    H236477   0.879   6.358   1.649  0.7760  0.2348 -0.6164
 4948TIP3   OH236478   2.628   0.730   6.506 -0.3380  0.0750  0.3784
 4948TIP3    H136479   2.638   0.645   6.549 -1.0395 -0.5886 -0.7229
 4948TIP3    H236480   2.713   0.744   6.463 -0.3752 -0.2996  0.1732
 4949TIP3   OH236481   0.112   4.435   1.602 -0.3776  0.6473 -0.7239
 4949TIP3    H136482   0.207   4.431   1.585 -0.1547  1.7935  0.0948
 4949TIP3    H236483   0.089   4.527   1.586 -1.1002  0.6580  0.2901
 4950TIP3   OH236484   5.076   5.755   1.090  0.0475 -0.0933  0.5375
 4950TIP3    H136485   5.082   5.788   1.000 -0.2566 -0.7197  0.2856
 4950TIP3    H236486   5.064   5.661   1.080 -0.9342 -0.0524  1.2121
 4951TIP3   OH236487   2.559   2.034   7.306  0.0568 -0.4723  0.0160
 4951TIP3    H136488   2.611   2.065   7.232 -0.0281 -0.0593  0.1235
 4951TIP3    H236489   2.482   1.993   7.267 -0.6461  0.9261 -0.1149
 4952TIP3   OH236490   6.026   1.965   0.355  0.9371 -0.1539 -0.2620
 4952TIP3    H136491   6.016   1.921   0.271  5.0502  0.7639 -1.4681
 4952TIP3    H236492   5.990   2.053   0.341 -1.8775 -1.1240  0.2917
 4953TIP3   OH236493   6.351   6.364   0.430  0.1492 -0.6647 -0.2078
 4953TIP3    H136494   6.391   6.278   0.439 -0.3718 -0.7672  1.5909
 4953TIP3    H236495   6.257   6.348   0.439  0.0296  0.0697 -0.0194
 4954TIP3   OH236496   7.064   5.070   0.226  0.3425 -1.0005 -0.4660
 4954TIP3    H136497   7.091   5.139   0.166  1.7138 -0.7681  0.3825
 4954TIP3    H236498   7.117   5.084   0.304 -2.1401 -0.5947  1.2933
 4955TIP3   OH236499   6.580   2.687   1.486  0.3378 -0.2497 -0.1774
 4955TIP3    H136500   6.495   2.647   1.502 -0.1850  0.9012  0.0785
 4955TIP3    H236501   6.644   2.620   1.509 -0.4984 -0.8893  0.3243
 4956TIP3   OH236502   4.750   2.580   6.607 -0.2001  0.6959  0.0180
 4956TIP3    H136503   4.674   2.625   6.643  0.6639  2.7359 -0.5433
 4956TIP3    H236504   4.774   2.632   6.530  1.4127 -0.2297 -0.1472
 4957TIP3   OH236505   6.790   0.299   7.730  0.0667  0.2890 -0.1642
 4957TIP3    H136506   6.712   0.351   7.749 -0.5074 -0.9111  0.9436
 4957TIP3    H236507   6.784   0.279   7.637 -0.9771  0.2145 -0.0996
 4958TIP3   OH236508   5.857   1.125   7.342  0.0756  0.2539 -0.0766
 4958TIP3    H136509   5.776   1.075   7.345 -0.4032  1.0364  0.3764
 4958TIP3    H236510   5.843   1.188   7.271  0.8189 -0.4806 -0.8957
 4959TIP3   OH236511   5.454   4.947   0.776  0.7541 -0.3117  0.1439
 4959TIP3    H136512   5.473   4.856   0.800 -0.1036 -0.3641  0.6812
 4959TIP3    H236513   5.514   4.999   0.828 -0.1398 -0.4910  1.3964
 4960TIP3   OH236514   6.333   5.796   0.915  0.2930 -0.0401  0.0563
 4960TIP3    H136515   6.376   5.874   0.951  1.0082  0.6044 -2.0551
 4960TIP3    H236516   6.400   5.728   0.915  0.2545 -0.0781  0.0509
 4961TIP3   OH236517   6.593   6.458   7.680  0.7880  0.6571 -0.2238
 4961TIP3    H136518   6.668   6.449   7.739  1.0414  1.4440 -0.4190
 4961TIP3    H236519   6.531   6.393   7.711  2.1190 -1.0725 -0.9673
 4962TIP3   OH236520   4.743   5.568   0.918  0.4768 -0.1758 -0.4238
 4962TIP3    H136521   4.780   5.537   1.001 -0.2093 -0.4148 -0.2073
 4962TIP3    H236522   4.820   5.588   0.865  0.9263 -0.4318  0.1126
 4963TIP3   OH236523   2.211   4.016   6.586 -0.0024 -0.1464  0.4379
 4963TIP3    H136524   2.280   4.038   6.649 -0.1004  0.4750  0.3251
 4963TIP3    H236525   2.192   4.097   6.541  1.2069 -0.9134 -1.5733
 4964TIP3   OH236526   0.697   6.861   6.731  0.2378  0.3871  0.6097
 4964TIP3    H136527   0.779   6.854   6.779  0.5338 -4.0619 -0.1697
 4964TIP3    H236528   0.634   6.893   6.796  1.3971 -1.8590  2.9679
 4965TIP3   OH236529   3.384   2.063   0.427  0.5833  0.0618 -0.0635
 4965TIP3    H136530   3.382   2.144   0.377  1.5806  0.2261  0.1336
 4965TIP3    H236531   3.472   2.027   0.412 -0.3551 -1.8272 -1.4464
 4966TIP3   OH236532   2.709   3.453   2.325  0.2550  0.0791 -0.2305
 4966TIP3    H136533   2.790   3.474   2.279 -0.4735 -0.0167 -1.6103
 4966TIP3    H236534   2.694   3.528   2.383 -0.0778  1.4081 -1.9745
 4967TIP3   OH236535   4.741   5.029   2.192  0.7874  0.0329 -0.1316
 4967TIP3    H136536   4.734   4.992   2.279 -1.5114  0.7525  0.0577
 4967TIP3    H236537   4.779   5.116   2.206 -1.6177  1.0604  0.5076
 4968TIP3   OH236538   4.323   3.115   6.312  0.2228  0.0629 -0.1193
 4968TIP3    H136539   4.314   3.205   6.282 -2.4109  0.6802  2.0636
 4968TIP3    H236540   4.264   3.064   6.256  0.8130 -0.1017 -0.5962
 4969TIP3   OH236541   3.389   1.462   6.593  0.1091 -0.2261  0.0433
 4969TIP3    H136542   3.328   1.388   6.596  0.2997 -0.3677  0.5793
 4969TIP3    H236543   3.337   1.535   6.559 -0.6881 -0.0332  1.5913
 4970TIP3   OH236544   6.952   0.613   6.325 -0.4135  0.8493 -0.0011
 4970TIP3    H136545   6.884   0.663   6.368 -1.5299  0.3333 -1.0913
 4970TIP3    H236546   6.998   0.677   6.270 -0.9382  0.9552 -0.3291
 4971TIP3   OH236547   0.044   3.701   7.789 -0.2879 -0.1283 -0.0572
 4971TIP3    H136548  -0.025   3.733   7.847 -0.5174  0.0227 -0.4065
 4971TIP3    H236549  -0.002   3.645   7.726  0.1613 -1.4827  0.7770
 4972TIP3   OH236550   4.634   6.462   1.330  0.3275  0.0840  0.2116
 4972TIP3    H136551   4.603   6.373   1.349  1.4183  0.1856  2.9063
 4972TIP3    H236552   4.703   6.477   1.394  0.5214  2.7125 -0.5246
 4973TIP3   OH236553   5.568   3.539   0.389  0.2015  0.2916  0.3739
 4973TIP3    H136554   5.526   3.559   0.473  1.5988  0.3708  1.0888
 4973TIP3    H236555   5.618   3.459   0.406 -1.1407 -0.8718 -0.9872
 4974TIP3   OH236556   3.463   6.206   6.550  0.0415 -0.1506  0.3858
 4974TIP3    H136557   3.531   6.207   6.617  0.4878  2.1093 -0.0101
 4974TIP3    H236558   3.503   6.162   6.475  0.0688 -1.3104  1.0603
 4975TIP3   OH236559   3.057   5.712   7.775  0.6701 -0.1509 -0.0195
 4975TIP3    H136560   3.046   5.737   7.683  1.6817  1.8917  0.3635
 4975TIP3    H236561   3.017   5.784   7.824  0.6473 -0.9483  1.1595
 4976TIP3   OH236562   6.079   5.796   6.961  0.0537  0.1958 -0.3955
 4976TIP3    H136563   6.060   5.708   6.992  1.5085 -0.5455 -1.5145
 4976TIP3    H236564   6.095   5.847   7.041  1.7913 -1.2012  0.2038
 4977TIP3   OH236565   4.285   0.327   1.995 -0.3617 -0.1887  0.1114
 4977TIP3    H136566   4.246   0.404   2.036 -0.6451  0.6907 -1.7225
 4977TIP3    H236567   4.378   0.334   2.014 -0.5242  0.0421  0.8382
 4978TIP3   OH236568   4.209   0.136   7.378 -0.1124  0.1544 -0.7057
 4978TIP3    H136569   4.155   0.096   7.309  0.8949  1.0103 -2.0322
 4978TIP3    H236570   4.267   0.196   7.331  0.8879  0.4554  0.8631
 4979TIP3   OH236571   0.242   3.851   8.087  0.7919  0.5648 -0.6125
 4979TIP3    H136572   0.152   3.879   8.074  0.5230 -0.4280 -0.9678
 4979TIP3    H236573   0.286   3.928   8.125 -0.6071  0.4906  1.2869
 4980TIP3   OH236574   4.209   3.407   6.808  0.6543  0.5505  0.0707
 4980TIP3    H136575   4.188   3.324   6.851  1.9790  0.4570  0.6010
 4980TIP3    H236576   4.127   3.455   6.807  0.1654 -0.2329  0.9883
 4981TIP3   OH236577   3.748   1.271   7.624 -0.0240  0.5523 -0.5516
 4981TIP3    H136578   3.776   1.362   7.637  1.8311 -0.0958  0.3399
 4981TIP3    H236579   3.705   1.247   7.706 -0.1843  0.5096 -0.6478
 4982TIP3   OH236580   2.839   3.728   0.449  0.3687 -0.1235 -0.8463
 4982TIP3    H136581   2.887   3.797   0.496 -0.4215 -0.9906  1.3462
 4982TIP3    H236582   2.858   3.648   0.498 -2.7999 -0.5876 -0.1829
 4983TIP3   OH236583   0.316   4.696   5.982  0.0235 -0.3390 -0.0618
 4983TIP3    H136584   0.247   4.679   5.918  0.0497 -2.2582  0.3567
 4983TIP3    H236585   0.321   4.791   5.988 -2.1605 -0.1540 -0.5595
 4984TIP3   OH236586   6.051   5.743   0.895 -1.2282 -0.1736 -0.1146
 4984TIP3    H136587   6.146   5.747   0.884 -0.9911 -1.4261  1.2240
 4984TIP3    H236588   6.016   5.777   0.812  0.3815 -0.7236 -1.0643
 4985TIP3   OH236589   2.868   6.496   6.826 -0.3271  0.4712 -0.0534
 4985TIP3    H136590   2.961   6.484   6.847  0.0402  2.3164 -0.5142
 4985TIP3    H236591   2.867   6.546   6.745 -1.7556 -0.8081 -0.8729
 4986TIP3   OH236592   0.055   5.425   0.515 -0.5277  0.6065 -0.3844
 4986TIP3    H136593   0.130   5.464   0.470 -0.9240  0.4215 -1.2286
 4986TIP3    H236594   0.066   5.451   0.607  2.3700 -2.1940  0.2333
 4987TIP3   OH236595   5.291   5.485   6.026 -0.0471 -0.2425 -0.1296
 4987TIP3    H136596   5.225   5.457   5.962 -0.7967  0.0195  0.5070
 4987TIP3    H236597   5.371   5.440   6.000 -0.3834 -0.2634 -1.1509
 4988TIP3   OH236598   1.601   5.704   6.830  0.2868  0.1953 -0.2148
 4988TIP3    H136599   1.535   5.772   6.815 -0.7348 -0.7440 -0.0967
 4988TIP3    H236600   1.611   5.663   6.744 -0.5759 -0.7865  0.1367
 4989TIP3   OH236601   2.183   6.499   0.779 -0.7120 -0.1290  0.6311
 4989TIP3    H136602   2.108   6.548   0.746 -0.6291 -0.4363 -0.0326
 4989TIP3    H236603   2.237   6.483   0.702 -0.0789 -0.1145  1.0650
 4990TIP3   OH236604   0.616   4.344   6.214 -0.9954 -0.2801  0.2169
 4990TIP3    H136605   0.663   4.424   6.237  0.0844 -0.3378 -1.5665
 4990TIP3    H236606   0.685   4.281   6.192 -1.7917 -1.9857  2.2773
 4991TIP3   OH236607   3.628   2.535   0.306 -0.3325 -0.3588  0.2300
 4991TIP3    H136608   3.591   2.447   0.302 -0.9947 -0.0662 -2.9351
 4991TIP3    H236609   3.675   2.545   0.223  0.3327  2.0206  0.8134
 4992TIP3   OH236610   1.573   0.065   6.864 -0.3565  0.0273  0.0650
 4992TIP3    H136611   1.497   0.064   6.921 -1.2788 -0.4149 -1.1350
 4992TIP3    H236612   1.583  -0.025   6.834  1.0695 -0.0710  0.7256
 4993TIP3   OH236613   1.160   0.255   6.905 -0.0816  0.1265  0.1379
 4993TIP3    H136614   1.239   0.279   6.953 -0.0430  0.3336 -0.0271
 4993TIP3    H236615   1.191   0.227   6.819 -0.2228  0.6885 -0.1006
 4994TIP3   OH236616   0.783   6.862   2.174 -0.2583  0.3364  0.4455
 4994TIP3    H136617   0.793   6.835   2.082 -0.4508  0.9930  0.2276
 4994TIP3    H236618   0.731   6.792   2.214  1.4760 -0.9628  0.5509
 4995TIP3   OH236619   2.744   4.782   7.697 -0.4127 -0.1594  0.1132
 4995TIP3    H136620   2.653   4.810   7.701 -0.5994 -0.8088  0.6586
 4995TIP3    H236621   2.774   4.810   7.610 -0.6438  1.4661  0.5296
 4996TIP3   OH236622   3.979   1.400   7.867 -0.4964  0.1889  0.0751
 4996TIP3    H136623   3.961   1.410   7.774 -0.6660 -0.2804  0.0546
 4996TIP3    H236624   3.963   1.487   7.904  1.4714  0.9024 -0.6247
 4997TIP3   OH236625   0.482   6.994   7.605 -0.1615  0.0023 -0.0348
 4997TIP3    H136626   0.388   7.013   7.610 -0.1217  0.2798 -0.3010
 4997TIP3    H236627   0.499   6.982   7.511  0.0627 -0.0837  0.0159
 4998TIP3   OH236628   6.500   1.412   7.581 -0.3131  0.2767 -0.3769
 4998TIP3    H136629   6.580   1.450   7.619  0.2351 -0.6059 -0.6164
 4998TIP3    H236630   6.506   1.432   7.488  0.2375 -0.8069 -0.5907
 4999TIP3   OH236631   4.697   1.247   7.775 -0.3852 -0.3287  0.0661
 4999TIP3    H136632   4.648   1.328   7.783  0.0097 -0.1836  1.1043
 4999TIP3    H236633   4.631   1.178   7.777 -0.5787 -0.1301  1.3198
 5000TIP3   OH236634   4.498   6.294   0.566  0.0738  0.3253 -0.2991
 5000TIP3    H136635   4.510   6.213   0.517 -0.1246  0.7146 -1.0183
 5000TIP3    H236636   4.587   6.322   0.588  0.0685 -1.1159  1.7286
 5001TIP3   OH236637   6.515   3.970   7.266  0.0196 -0.0357  0.3800
 5001TIP3    H136638   6.427   4.003   7.288 -0.9644 -2.1218 -0.1927
 5001TIP3    H236639   6.545   4.028   7.196  0.8403  3.1850  3.1216
 5002TIP3   OH236640   5.355   1.002   6.996  0.3756  0.0364 -0.5219
 5002TIP3    H136641   5.407   0.971   6.922  1.6078  1.4607 -0.2900
 5002TIP3    H236642   5.393   0.960   7.072 -1.7525 -2.5316 -0.7209
 5003TIP3   OH236643   3.061   6.899   1.553 -0.0315 -0.3579 -0.2551
 5003TIP3    H136644   3.011   6.908   1.634 -0.4941 -1.3850 -0.4079
 5003TIP3    H236645   3.116   6.821   1.568  0.7637  0.1529 -0.4810
 5004TIP3   OH236646   6.175   2.622   6.488  0.2259 -0.0437  0.4612
 5004TIP3    H136647   6.253   2.676   6.496 -0.5251  1.2047 -0.3734
 5004TIP3    H236648   6.202   2.536   6.523  1.6721  0.6132  1.0473
 5005TIP3   OH236649   1.295   0.690   7.298  0.2539  0.0655 -0.1424
 5005TIP3    H136650   1.388   0.672   7.307  0.2839  0.8090  1.3967
 5005TIP3    H236651   1.266   0.714   7.387 -1.2227  0.6445 -0.7403
 5006TIP3   OH236652   3.643   6.123   0.962  0.6637 -0.0093  0.6106
 5006TIP3    H136653   3.563   6.135   1.014 -0.0673 -1.4692 -0.1197
 5006TIP3    H236654   3.613   6.126   0.871  1.4194 -0.6555  0.3332
 5007TIP3   OH236655   1.698   3.486   6.954  0.0028 -0.2943  0.5382
 5007TIP3    H136656   1.634   3.557   6.958  0.7162  0.3954 -0.0310
 5007TIP3    H236657   1.780   3.526   6.982  0.4639 -0.8322 -0.0258
 5008TIP3   OH236658   4.446   2.577   0.153 -0.1106 -0.0059 -0.4201
 5008TIP3    H136659   4.448   2.486   0.183 -0.7705  0.3175  0.6697
 5008TIP3    H236660   4.421   2.572   0.061 -1.5437 -0.8592 -0.0085
 5009TIP3   OH236661   6.867   6.611   0.964  0.1821 -0.7087 -0.2424
 5009TIP3    H136662   6.923   6.609   1.042 -1.9471 -0.0771  1.3844
 5009TIP3    H236663   6.873   6.702   0.933  1.4003 -1.0710 -1.1683
 5010TIP3   OH236664   0.356   2.343   6.326 -0.2802  0.4139 -0.8704
 5010TIP3    H136665   0.406   2.397   6.388  1.3559 -0.0204 -1.7620
 5010TIP3    H236666   0.395   2.362   6.241 -2.0484  0.4794 -1.7146
 5011TIP3   OH236667   2.735   1.843   7.771  0.3100 -0.1308  0.4305
 5011TIP3    H136668   2.731   1.930   7.732 -1.4594 -0.4959 -0.3250
 5011TIP3    H236669   2.672   1.847   7.843  0.7071 -0.5877  0.8030
 5012TIP3   OH236670   0.558   4.360   7.334 -0.2350 -0.0716  0.5185
 5012TIP3    H136671   0.481   4.403   7.372 -0.5078  0.1550 -0.2709
 5012TIP3    H236672   0.632   4.395   7.384 -0.3999  1.7155 -0.4064
 5013TIP3   OH236673   0.233   6.560   7.303  0.1280  0.5311 -0.5263
 5013TIP3    H136674   0.299   6.497   7.332  0.5525  1.5329  0.7907
 5013TIP3    H236675   0.275   6.609   7.232  0.3248  0.3164 -0.5582
 5014TIP3   OH236676   4.056   4.635   6.043  0.0860 -0.1606  0.0858
 5014TIP3    H136677   3.963   4.627   6.025  0.0858 -1.1020  0.4318
 5014TIP3    H236678   4.086   4.706   5.986 -0.6602 -0.4550 -0.6916
 5015TIP3   OH236679   5.121   3.819   6.442 -0.0226  0.3696 -0.2748
 5015TIP3    H136680   5.057   3.796   6.509  0.7165  1.3746  0.8172
 5015TIP3    H236681   5.203   3.833   6.490  0.0348  3.2845 -1.0575
 5016TIP3   OH236682   5.428   0.502   7.178 -0.1155  0.3782  0.2008
 5016TIP3    H136683   5.338   0.511   7.146 -1.2082  3.3262  3.3180
 5016TIP3    H236684   5.435   0.411   7.205 -1.9106 -0.1039 -0.7915
 5017TIP3   OH236685   3.549   1.550   0.165 -0.0490  0.2915 -0.2019
 5017TIP3    H136686   3.496   1.497   0.224 -2.0623  0.5512 -1.6796
 5017TIP3    H236687   3.563   1.632   0.211  2.8145 -1.2291  1.9758
 5018TIP3   OH236688   4.247   2.490   6.108  0.2335 -0.0517 -0.0061
 5018TIP3    H136689   4.163   2.457   6.139  0.7517 -2.2111 -0.6899
 5018TIP3    H236690   4.311   2.461   6.174  1.0302 -2.7844 -1.7684
 5019TIP3   OH236691   5.425   5.953   0.202 -0.1326 -0.2678 -0.2771
 5019TIP3    H136692   5.473   5.873   0.222  0.8950  0.5285  0.6355
 5019TIP3    H236693   5.353   5.926   0.145 -0.1871 -1.9135  0.5314
 5020TIP3   OH236694   5.683   3.933   7.652 -0.6707 -0.5897  0.3514
 5020TIP3    H136695   5.663   3.867   7.587 -1.0972 -0.8758  0.7736
 5020TIP3    H236696   5.628   3.911   7.727  0.0155 -0.4281  0.9115
 5021TIP3   OH236697   6.804   4.313   0.866 -0.3404  0.1632 -0.1357
 5021TIP3    H136698   6.838   4.235   0.910 -1.3666  0.6366  1.5707
 5021TIP3    H236699   6.879   4.372   0.861 -0.3324  0.3480  1.6080
 5022TIP3   OH236700   3.560   5.565   1.239 -0.3650  0.3309 -0.3213
 5022TIP3    H136701   3.493   5.633   1.246 -0.2481  0.4419 -0.2672
 5022TIP3    H236702   3.588   5.550   1.329 -0.9825 -0.3912 -0.2423
 5023TIP3   OH236703   5.829   6.223   0.523  0.0281  0.2246  0.1224
 5023TIP3    H136704   5.835   6.249   0.431 -0.7204  1.4404  0.4000
 5023TIP3    H236705   5.875   6.292   0.571  1.4006 -0.9619  0.6076
 5024TIP3   OH236706   3.383   6.358   0.192 -0.2604 -0.3466 -0.3638
 5024TIP3    H136707   3.382   6.451   0.212  0.3821 -0.5610  0.7582
 5024TIP3    H236708   3.296   6.327   0.218  0.2966 -0.4712  1.4962
 5025TIP3   OH236709   2.017   3.031   7.632  0.3040 -0.3872  0.1485
 5025TIP3    H136710   2.056   3.006   7.716 -2.5844 -2.6433  0.9927
 5025TIP3    H236711   1.934   3.073   7.656  0.1166  0.2686 -1.5662
 5026TIP3   OH236712   3.159   5.408   6.518 -0.5518  0.5062  0.3197
 5026TIP3    H136713   3.203   5.380   6.437  0.1686  4.7248 -0.9777
 5026TIP3    H236714   3.122   5.327   6.554  0.8481 -1.9070 -3.1056
 5027TIP3   OH236715   2.017   0.311   6.770  0.1801 -0.1027 -0.1661
 5027TIP3    H136716   2.056   0.281   6.688  0.3188  0.5840 -0.3587
 5027TIP3    H236717   1.927   0.279   6.766 -0.2306  1.0929 -1.2469
 5028TIP3   OH236718   6.900   4.249   2.400  0.2421 -0.0236  0.4295
 5028TIP3    H136719   6.817   4.237   2.353  0.9392 -0.5581 -0.7028
 5028TIP3    H236720   6.950   4.170   2.381  0.0209 -0.9684  3.2885
 5029TIP3   OH236721   3.063   3.494   7.159  0.0073 -0.4508 -0.0244
 5029TIP3    H136722   3.111   3.448   7.089 -2.0071 -0.9949 -1.1292
 5029TIP3    H236723   2.971   3.484   7.135 -0.6069  2.8754  0.5212
 5030TIP3   OH236724   1.759   1.173   0.354  0.1739  0.2804 -0.6205
 5030TIP3    H136725   1.704   1.161   0.431 -0.6787 -0.2918 -1.3121
 5030TIP3    H236726   1.821   1.100   0.358  0.3221  0.4196 -0.3230
 5031TIP3   OH236727   5.571   1.243   7.124 -0.7798 -0.1017  0.2749
 5031TIP3    H136728   5.565   1.159   7.170 -1.1111  0.4574  1.2975
 5031TIP3    H236729   5.481   1.275   7.121 -0.6448  0.2509 -0.0532
 5032TIP3   OH236730   0.056   6.065   7.226  0.3965  0.4032  0.2154
 5032TIP3    H136731  -0.027   6.070   7.274  0.3684  1.5707  0.0837
 5032TIP3    H236732   0.059   5.976   7.192 -2.0367  1.0028 -1.9200
 5033TIP3   OH236733   4.093   3.133   6.925 -0.7429  0.4123 -0.3607
 5033TIP3    H136734   4.149   3.077   6.979  0.2020  0.7232 -0.9849
 5033TIP3    H236735   4.004   3.106   6.946 -0.3230 -1.0230 -0.3237
 5034TIP3   OH236736   3.981   6.955   5.960 -0.8642  0.3258  0.1822
 5034TIP3    H136737   4.053   6.913   6.006 -0.3802 -0.3413 -1.1314
 5034TIP3    H236738   3.952   6.890   5.896  0.3673  2.1417 -2.4104
 5035TIP3   OH236739   3.665   0.237   1.711 -0.1862  0.1273 -1.2058
 5035TIP3    H136740   3.580   0.197   1.731  0.4576 -1.2804 -1.2021
 5035TIP3    H236741   3.718   0.166   1.676  0.7013  1.1970 -2.1427
 5036TIP3   OH236742   0.789   1.505   7.159  0.0410  0.4330 -0.4891
 5036TIP3    H136743   0.885   1.508   7.166 -0.0713  1.0943  1.0755
 5036TIP3    H236744   0.769   1.411   7.152  0.8448  0.3432 -1.9848
 5037TIP3   OH236745   3.607   1.873   0.099 -0.0995  0.5675 -0.0819
 5037TIP3    H136746   3.520   1.865   0.061  0.2903 -3.3483 -0.5806
 5037TIP3    H236747   3.665   1.888   0.024 -0.0126 -0.4293 -0.2241
 5038TIP3   OH236748   2.635   4.951   6.553 -0.1094 -0.1003  0.0192
 5038TIP3    H136749   2.680   5.010   6.614 -0.2611 -0.1881  0.2165
 5038TIP3    H236750   2.633   4.999   6.470  2.4216 -1.0075 -0.6524
 5039TIP3   OH236751   2.560   5.428   7.498  0.0625 -0.5189  0.5354
 5039TIP3    H136752   2.525   5.476   7.573 -0.0938  1.6814 -0.8468
 5039TIP3    H236753   2.497   5.358   7.483 -0.8711  0.1073  1.3548
 5040TIP3   OH236754   0.432   4.552   5.706 -0.1361 -0.0737 -0.2701
 5040TIP3    H136755   0.506   4.507   5.748  2.0002  2.0326 -1.5555
 5040TIP3    H236756   0.380   4.481   5.668  2.4333 -1.5905 -1.2060
 5041TIP3   OH236757   3.460   6.686   0.960  0.1294  0.0210  0.7851
 5041TIP3    H136758   3.495   6.609   0.915  0.1532  0.4000  0.1395
 5041TIP3    H236759   3.466   6.756   0.895 -0.8188  0.3427  1.0337
 5042TIP3   OH236760   5.901   5.397   7.905 -0.1742 -0.4607  0.6028
 5042TIP3    H136761   5.841   5.327   7.932  1.3752 -1.6096  1.2714
 5042TIP3    H236762   5.904   5.390   7.809 -1.2236 -0.2644  0.5477
 5043TIP3   OH236763   7.058   2.738   7.709  0.4756 -0.0216  0.2672
 5043TIP3    H136764   7.047   2.804   7.641  0.7628  0.2257  0.4577
 5043TIP3    H236765   7.001   2.767   7.780 -0.1750 -0.5220 -0.0347
 5044TIP3   OH236766   1.296   2.913   6.850 -0.9458 -0.0213  0.1333
 5044TIP3    H136767   1.306   3.001   6.887  0.5652 -0.7900  1.7226
 5044TIP3    H236768   1.216   2.879   6.890 -1.2713  0.4497 -0.1101
 5045TIP3   OH236769   1.422   4.976   1.086  0.1610 -0.3934 -0.3871
 5045TIP3    H136770   1.397   4.895   1.042 -0.2315 -1.1724  1.1754
 5045TIP3    H236771   1.349   4.994   1.145  1.4681 -0.4516  1.3163
 5046TIP3   OH236772   5.978   4.599   1.396 -0.2654  0.4359 -0.0872
 5046TIP3    H136773   5.920   4.557   1.332 -0.2328  1.5205 -0.8698
 5046TIP3    H236774   6.038   4.530   1.424 -2.3989 -0.9480  1.3600
 5047TIP3   OH236775   7.107   3.932   1.216  0.2060 -0.8207 -0.6559
 5047TIP3    H136776   7.122   3.838   1.217  0.5951 -0.7626 -0.9224
 5047TIP3    H236777   7.161   3.965   1.144  0.5171 -0.3236 -0.2068
 5048TIP3   OH236778   2.817   5.360   7.358 -0.0867 -0.1538  0.1770
 5048TIP3    H136779   2.810   5.316   7.273  1.6190 -0.7011  0.2987
 5048TIP3    H236780   2.726   5.384   7.379 -0.8524 -2.0157 -0.7272
 5049TIP3   OH236781   0.366   2.382   1.529 -0.5558 -0.2445  0.1220
 5049TIP3    H136782   0.290   2.375   1.588  0.1944 -3.4890  0.9170
 5049TIP3    H236783   0.328   2.391   1.442 -1.7723  0.7385  0.7178
 5050TIP3   OH236784   7.003   6.033   7.563  0.3661 -0.2128 -0.5037
 5050TIP3    H136785   7.042   5.946   7.559 -1.4660 -1.0787 -0.4199
 5050TIP3    H236786   6.932   6.025   7.627 -1.5314  0.6059 -2.3785
 5051TIP3   OH236787   3.257   2.717   7.230  0.1457 -0.0049 -0.2265
 5051TIP3    H136788   3.190   2.756   7.172  0.8444 -0.3524 -1.2970
 5051TIP3    H236789   3.294   2.792   7.277 -1.3705  0.1355  0.8164
 5052TIP3   OH236790   2.420   4.611   2.176  0.1514  0.2840  0.0438
 5052TIP3    H136791   2.341   4.586   2.128  0.2866 -0.9526  0.4193
 5052TIP3    H236792   2.391   4.626   2.265  0.2491  0.4066  0.0554
 5053TIP3   OH236793   0.284   1.675   7.179 -0.0589  0.3165  0.4510
 5053TIP3    H136794   0.198   1.666   7.137  0.5325 -0.7630 -0.6252
 5053TIP3    H236795   0.346   1.645   7.112  1.1445  0.8533  1.2834
 5054TIP3   OH236796   2.652   3.761   0.765  0.4960  0.7798  0.2278
 5054TIP3    H136797   2.580   3.769   0.828  0.2263 -1.7502  0.3291
 5054TIP3    H236798   2.731   3.765   0.818  0.4303  2.2997  0.2578
 5055TIP3   OH236799   6.712   0.990   7.645 -0.0704  0.3959  0.6203
 5055TIP3    H136800   6.714   0.922   7.713 -0.0734 -0.5476 -0.2858
 5055TIP3    H236801   6.625   0.981   7.606 -0.4481  1.6063  1.1342
 5056TIP3   OH236802   1.390   1.855   7.613 -0.2453 -0.1054  0.7701
 5056TIP3    H136803   1.415   1.927   7.671 -1.4470  1.1870 -0.2651
 5056TIP3    H236804   1.349   1.897   7.538  1.7211 -1.6792 -1.3348
 5057TIP3   OH236805   5.018   2.166   1.261 -0.0135 -0.2889 -0.3015
 5057TIP3    H136806   5.111   2.151   1.277 -0.2990 -1.0189  0.7543
 5057TIP3    H236807   4.978   2.080   1.265 -0.9732  0.1804  0.9877
 5058TIP3   OH236808   3.369   2.374   1.099 -0.2539 -0.1340 -0.0686
 5058TIP3    H136809   3.380   2.307   1.165  1.1699  1.7980  1.8032
 5058TIP3    H236810   3.448   2.368   1.045  0.0462  0.2482  0.3228
 5059TIP3   OH236811   1.907   3.617   7.759 -0.5322  0.0757  0.4388
 5059TIP3    H136812   1.971   3.635   7.828  0.3199 -1.3951  0.0822
 5059TIP3    H236813   1.842   3.687   7.768  0.4295  0.8699  1.6504
 5060TIP3   OH236814   0.324   6.111   7.289 -0.0766 -0.0643 -0.7214
 5060TIP3    H136815   0.230   6.096   7.278 -0.2615 -0.7104  1.3108
 5060TIP3    H236816   0.357   6.029   7.327  1.1770  0.3963 -0.7792
 5061TIP3   OH236817   2.584   4.702   5.398 -0.5379 -0.4161 -0.4751
 5061TIP3    H136818   2.605   4.736   5.485  0.3222 -0.0497 -0.8099
 5061TIP3    H236819   2.605   4.609   5.404  0.7064 -0.1751 -0.6165
 5062TIP3   OH236820   5.193   5.204   6.105  0.4868  0.3878  0.1822
 5062TIP3    H136821   5.174   5.111   6.092 -1.2601  0.5031  1.5110
 5062TIP3    H236822   5.172   5.245   6.020  0.3436 -0.2944 -0.1164
 5063TIP3   OH236823   0.153   5.348   6.334 -0.2114  0.0182 -0.0650
 5063TIP3    H136824   0.074   5.300   6.310 -0.0743  0.0529 -0.6030
 5063TIP3    H236825   0.127   5.401   6.409 -0.8812  0.4879 -0.6102
 5064TIP3   OH236826   4.651   2.282   7.471 -0.0237  0.0242  0.2672
 5064TIP3    H136827   4.716   2.274   7.401  1.5938  1.7352  1.4745
 5064TIP3    H236828   4.567   2.267   7.427  1.0796 -1.3784 -1.5334
 5065TIP3   OH236829   2.375   3.586   2.053  0.6018 -0.4153  0.5050
 5065TIP3    H136830   2.460   3.631   2.059 -0.6346  1.9554  1.9262
 5065TIP3    H236831   2.320   3.644   2.001 -0.8850 -0.5278  1.8468
 5066TIP3   OH236832   2.902   2.804   5.964 -0.2956 -0.3118  0.3748
 5066TIP3    H136833   2.934   2.715   5.951  0.3347 -0.2289  1.2869
 5066TIP3    H236834   2.980   2.854   5.990 -0.9357  0.1472  1.4699
 5067TIP3   OH236835   1.590   2.610   1.266 -0.0432  0.3512 -0.0746
 5067TIP3    H136836   1.560   2.682   1.210 -0.2261  0.8986  0.7149
 5067TIP3    H236837   1.652   2.562   1.211  1.6567  2.2809  0.0148
 5068TIP3   OH236838   5.724   0.189   0.925  0.2126 -0.2722 -0.0663
 5068TIP3    H136839   5.662   0.171   0.854 -0.3930  0.8607  0.1500
 5068TIP3    H236840   5.788   0.118   0.920 -0.8488 -1.2258 -0.5847
 5069TIP3   OH236841   6.397   3.420   1.999  0.3153 -0.2583 -0.1306
 5069TIP3    H136842   6.369   3.366   1.926 -0.5272  0.8845 -0.6869
 5069TIP3    H236843   6.481   3.384   2.025 -0.1492 -1.7175 -0.5803
 5070TIP3   OH236844   3.314   1.605   8.023 -0.2949 -0.1852 -0.0595
 5070TIP3    H136845   3.340   1.643   7.939  0.3739 -1.3845 -0.4157
 5070TIP3    H236846   3.319   1.511   8.009 -1.9875 -0.4283  0.7824
 5071TIP3   OH236847   5.545   0.244   1.587 -0.7842 -0.1196 -0.1398
 5071TIP3    H136848   5.480   0.197   1.638  1.3004 -1.0435  1.8131
 5071TIP3    H236849   5.554   0.329   1.630 -0.8176  0.0783 -0.5149
 5072TIP3   OH236850   6.234   5.884   0.477 -0.0958  0.1913 -0.5905
 5072TIP3    H136851   6.222   5.792   0.501 -0.2524 -0.0494 -1.5473
 5072TIP3    H236852   6.312   5.911   0.525 -3.2063  1.3900  4.6888
 5073TIP3   OH236853   1.243   1.202   1.129 -0.3037  0.0686 -0.1012
 5073TIP3    H136854   1.331   1.183   1.161 -0.9583 -0.5367  1.4538
 5073TIP3    H236855   1.188   1.135   1.170 -1.2531 -0.7793 -2.5532
 5074TIP3   OH236856   4.279   4.964   7.877 -0.1583  0.4713 -0.1264
 5074TIP3    H136857   4.224   5.020   7.933  0.9464  0.3300  1.1464
 5074TIP3    H236858   4.262   4.996   7.788 -2.6337  0.1356  0.1406
 5075TIP3   OH236859   6.128   2.043   6.434 -0.0601 -0.3142  0.0105
 5075TIP3    H136860   6.217   2.056   6.466  0.3201  0.5959 -1.3542
 5075TIP3    H236861   6.135   1.971   6.372  0.2866  1.4474 -2.1108
 5076TIP3   OH236862   4.524   3.993   0.160 -0.6980  0.6288 -0.3622
 5076TIP3    H136863   4.465   3.970   0.088 -1.1629 -0.5553  0.3831
 5076TIP3    H236864   4.477   3.970   0.239  1.3112 -1.8171  0.2447
 5077TIP3   OH236865   2.405   5.405   6.930 -0.3092 -0.3094  0.1698
 5077TIP3    H136866   2.390   5.378   7.020  2.0885  0.8779  1.0021
 5077TIP3    H236867   2.454   5.332   6.891 -0.0123 -0.1675  0.2804
 5078TIP3   OH236868   1.471   4.018   7.096 -0.4604 -0.2630  0.2385
 5078TIP3    H136869   1.563   4.025   7.072 -0.4149  0.6975  0.6527
 5078TIP3    H236870   1.471   4.017   7.192 -0.7789 -1.9013  0.2479
 5079TIP3   OH236871   4.648   5.700   5.999  0.0896  0.1186 -0.2099
 5079TIP3    H136872   4.576   5.742   5.951 -1.2907 -0.4150  1.2977
 5079TIP3    H236873   4.717   5.766   6.001 -1.1624  1.4628  0.1375
 5080TIP3   OH236874   1.228   4.390   1.930 -0.0463 -0.3519  0.7268
 5080TIP3    H136875   1.191   4.402   2.018  0.8691  0.5632  1.0107
 5080TIP3    H236876   1.310   4.343   1.945  0.0226 -0.3532  0.3440
 5081TIP3   OH236877   6.350   5.109   7.745  0.6268  0.0192  0.1854
 5081TIP3    H136878   6.261   5.129   7.715  0.1573 -1.8473  0.2104
 5081TIP3    H236879   6.353   5.142   7.835  0.0542  0.3241  0.1005
 5082TIP3   OH236880   1.786   0.226   1.476 -0.1145  0.1210 -0.0209
 5082TIP3    H136881   1.855   0.190   1.421 -1.0809  0.1204 -1.2739
 5082TIP3    H236882   1.756   0.303   1.429 -0.9940  0.1086  0.5004
 5083TIP3   OH236883   4.578   4.435   7.486 -0.1720  0.6398  0.5201
 5083TIP3    H136884   4.551   4.519   7.522 -0.6255  0.9301 -0.4426
 5083TIP3    H236885   4.639   4.400   7.550 -0.5466  1.3569  1.2998
 5084TIP3   OH236886   1.679   7.003   0.142  0.5387 -0.3148 -0.2829
 5084TIP3    H136887   1.666   7.054   0.222  0.1258 -0.3253 -0.3379
 5084TIP3    H236888   1.621   6.928   0.151  2.1427 -1.5138  0.3958
 5085TIP3   OH236889   1.469   6.975   0.466  0.1313 -0.7231 -0.5354
 5085TIP3    H136890   1.500   7.064   0.448  0.6870 -1.1537 -1.8844
 5085TIP3    H236891   1.483   6.963   0.560  2.1834 -0.1554 -0.7084
 5086TIP3   OH236892   5.483   0.742   6.286 -1.4722 -0.1806  0.9204
 5086TIP3    H136893   5.563   0.791   6.306  0.3547 -1.9940 -1.3701
 5086TIP3    H236894   5.480   0.671   6.350  1.2212 -2.5994 -1.3626
 5087TIP3   OH236895   0.444   0.793   7.431  0.0917  0.4209  0.2705
 5087TIP3    H136896   0.474   0.878   7.398 -0.0847  1.0583  1.6716
 5087TIP3    H236897   0.349   0.794   7.418  0.0648  0.5263  0.4720
 5088TIP3   OH236898   3.829   3.170   1.407 -0.5615  0.3825  0.2179
 5088TIP3    H136899   3.742   3.203   1.385 -1.2732 -0.5372  1.5651
 5088TIP3    H236900   3.826   3.077   1.387  0.7360  0.6413 -1.4552
 5089TIP3   OH236901   5.088   4.081   0.052  0.0144 -0.0754  0.4465
 5089TIP3    H136902   5.052   4.169   0.043  0.1353  0.1012  1.5411
 5089TIP3    H236903   5.178   4.094   0.083  0.6825 -0.5478 -1.1869
 5090TIP3   OH236904   7.107   1.435   6.648 -0.0898  0.2744  0.0738
 5090TIP3    H136905   7.093   1.475   6.733  0.5088  3.4347 -1.1703
 5090TIP3    H236906   7.201   1.445   6.632 -0.3635  0.7089 -1.3869
 5091TIP3   OH236907   2.596   2.849   8.008 -0.2140  0.3475  0.2519
 5091TIP3    H136908   2.640   2.935   8.004  0.1240  0.2140  1.0263
 5091TIP3    H236909   2.554   2.841   7.922  0.7197  0.7774 -0.2758
 5092TIP3   OH236910   5.284   0.292   8.079  0.2932 -0.8573 -0.6557
 5092TIP3    H136911   5.361   0.340   8.049  0.6729 -0.4196  0.9646
 5092TIP3    H236912   5.240   0.266   7.998  0.9458  0.8044 -1.5959
 5093TIP3   OH236913   2.904   0.039   6.669 -0.8526  0.3817  0.2013
 5093TIP3    H136914   2.991   0.075   6.650 -0.6545  0.4614  1.1924
 5093TIP3    H236915   2.918  -0.056   6.672 -1.3135  0.1872 -2.1034
 5094TIP3   OH236916   0.023   3.427   0.741 -0.1416  0.4038 -0.1843
 5094TIP3    H136917  -0.050   3.450   0.685 -0.9170 -0.8354  0.2637
 5094TIP3    H236918  -0.018   3.401   0.824  0.6645 -1.5209 -0.3218
 5095TIP3   OH236919   3.152   5.416   5.890  0.2130 -0.1212  0.0398
 5095TIP3    H136920   3.225   5.474   5.911 -2.0746  1.9877  3.3285
 5095TIP3    H236921   3.097   5.468   5.831  0.8591 -1.3998 -1.7962
 5096TIP3   OH236922   3.621   5.869   1.071  0.3211 -0.5724 -0.0126
 5096TIP3    H136923   3.534   5.831   1.064  0.0889  0.2694 -2.7698
 5096TIP3    H236924   3.609   5.962   1.053  1.6707 -0.2534  0.5585
 5097TIP3   OH236925   3.278   3.884   1.511  0.1197 -0.1949 -0.1897
 5097TIP3    H136926   3.328   3.806   1.534  0.6929 -0.3617 -1.8858
 5097TIP3    H236927   3.335   3.932   1.451 -0.8107  0.8014 -0.3080
 5098TIP3   OH236928   2.843   2.490   1.019  0.1363 -0.4091 -0.0752
 5098TIP3    H136929   2.849   2.468   0.926  1.1313  1.7958 -0.5981
 5098TIP3    H236930   2.750   2.482   1.039 -0.1765 -0.3991 -1.4116
 5099TIP3   OH236931   0.784   4.375   1.399  0.0219 -0.2369 -0.1837
 5099TIP3    H136932   0.741   4.425   1.330  0.2804  0.7498  0.3531
 5099TIP3    H236933   0.799   4.288   1.360 -1.1477 -0.1547 -0.8530
 5100TIP3   OH236934   2.842   4.361   7.377 -0.0319  0.1588  0.3664
 5100TIP3    H136935   2.868   4.396   7.292 -2.7514  1.5602 -0.0172
 5100TIP3    H236936   2.910   4.391   7.437 -0.2494  3.0252 -0.6183
 5101TIP3   OH236937   0.017   3.904   1.483  0.1760 -0.4185  0.1555
 5101TIP3    H136938   0.039   3.985   1.529  1.0902 -1.1797  1.1334
 5101TIP3    H236939   0.010   3.929   1.391 -0.4996  0.9328  0.5449
 5102TIP3   OH236940   5.193   3.270   1.508  0.1526  0.1039 -0.3614
 5102TIP3    H136941   5.200   3.352   1.556  0.0716 -0.8236  1.2940
 5102TIP3    H236942   5.138   3.214   1.563 -0.6220 -0.7454 -1.9257
 5103TIP3   OH236943   4.231   1.709   6.439 -0.2553 -0.7303 -0.0760
 5103TIP3    H136944   4.167   1.745   6.377 -0.4868  0.8671  1.0344
 5103TIP3    H236945   4.182   1.700   6.521  1.1751  1.6609  1.1328
 5104TIP3   OH236946   1.012   2.499   0.396  0.1614 -0.5989  0.2474
 5104TIP3    H136947   0.945   2.436   0.421 -1.5954  0.6975 -0.8483
 5104TIP3    H236948   1.029   2.549   0.476 -0.5981 -0.6100  0.4287
 5105TIP3   OH236949   6.923   1.805   2.203 -0.1141  0.6636  0.1957
 5105TIP3    H136950   6.988   1.836   2.266  0.6415  3.1572 -1.6480
 5105TIP3    H236951   6.973   1.755   2.139 -0.3713  0.7580 -0.0820
 5106TIP3   OH236952   6.822   4.039   7.722  0.3643  0.1650  0.0384
 5106TIP3    H136953   6.826   3.970   7.655  1.6636 -1.4215  1.6593
 5106TIP3    H236954   6.766   4.002   7.790  1.1927  0.6548  0.9985
 5107TIP3   OH236955   5.087   0.888   0.811  0.1342 -0.3800 -0.2740
 5107TIP3    H136956   5.069   0.944   0.736  2.6989  1.5886  0.4303
 5107TIP3    H236957   5.174   0.852   0.794  0.4770 -0.4292  1.4203
 5108TIP3   OH236958   3.114   4.265   7.186  0.0194 -0.2464 -0.2867
 5108TIP3    H136959   3.134   4.254   7.279 -2.2711 -1.2227  0.1764
 5108TIP3    H236960   3.127   4.178   7.148 -1.1832 -0.4018 -0.3807
 5109TIP3   OH236961   4.783   1.454   1.777  0.1211 -0.2092  0.3892
 5109TIP3    H136962   4.730   1.377   1.757 -0.1728  0.1985 -0.4499
 5109TIP3    H236963   4.830   1.473   1.695 -0.1693  0.7711  0.4307
 5110TIP3   OH236964   2.507   5.189   6.404  0.4433  0.0757 -0.3848
 5110TIP3    H136965   2.504   5.142   6.320 -0.0408 -1.2917  0.3594
 5110TIP3    H236966   2.418   5.183   6.438  0.5983  0.7660  0.1596
 5111TIP3   OH236967   4.156   4.131   5.698 -0.3776  0.7804  0.1964
 5111TIP3    H136968   4.130   4.047   5.735 -2.5200  1.7406  1.0351
 5111TIP3    H236969   4.124   4.196   5.761  2.9850  2.2290  0.6399
 5112TIP3   OH236970   3.021   1.703   0.547  0.3405 -0.0375  0.1796
 5112TIP3    H136971   3.071   1.784   0.553  1.3027 -0.3799 -2.0851
 5112TIP3    H236972   3.078   1.637   0.587  1.2076 -0.1897 -1.2212
 5113TIP3   OH236973   3.055   3.642   0.228 -0.4160  0.3443 -0.3907
 5113TIP3    H136974   3.123   3.702   0.196  0.2281  0.7103  1.5117
 5113TIP3    H236975   2.973   3.677   0.195 -0.0167  2.1437  0.4372
 5114TIP3   OH236976   4.787   4.763   7.312  0.8419  0.6899  0.0122
 5114TIP3    H136977   4.752   4.803   7.391 -0.4245 -0.1244 -0.0933
 5114TIP3    H236978   4.751   4.816   7.240  1.1431  0.8132 -0.0472
 5115TIP3   OH236979   6.388   0.670   7.868  0.2278  0.7375 -0.3928
 5115TIP3    H136980   6.302   0.666   7.910  0.8371  0.6559  0.8770
 5115TIP3    H236981   6.402   0.763   7.851  0.2128  0.8271  0.0824
 5116TIP3   OH236982   3.197   3.210   1.454 -0.1769 -0.1694  0.0131
 5116TIP3    H136983   3.244   3.127   1.442 -0.3672 -0.2465 -0.2172
 5116TIP3    H236984   3.121   3.203   1.395 -0.2696  0.1098  0.0979
 5117TIP3   OH236985   1.093   6.396   6.855  0.4459  0.7810  0.2262
 5117TIP3    H136986   1.108   6.377   6.947  2.5942  1.0837 -0.0033
 5117TIP3    H236987   1.026   6.464   6.854  0.7563  1.1257  1.5893
 5118TIP3   OH236988   2.052   3.673   6.874 -0.6068 -0.2663 -0.1094
 5118TIP3    H136989   2.010   3.758   6.884 -0.9612 -0.5025  0.4500
 5118TIP3    H236990   2.113   3.685   6.801  1.2075  1.1901  1.5300
 5119TIP3   OH236991   1.202   3.795   7.582  0.0866 -0.0395 -0.6134
 5119TIP3    H136992   1.248   3.822   7.502  1.5085  0.1608  0.2309
 5119TIP3    H236993   1.236   3.707   7.600 -0.4162 -0.1830 -0.3623
 5120TIP3   OH236994   2.423   1.194   7.891  0.4214  0.0595  0.0810
 5120TIP3    H136995   2.392   1.129   7.953 -0.7286 -1.5674 -2.0855
 5120TIP3    H236996   2.450   1.268   7.946 -0.3039 -1.3546  2.4921
 5121TIP3   OH236997   2.227   2.541   0.115 -0.4361  0.2897  0.1357
 5121TIP3    H136998   2.215   2.577   0.027  0.1321  0.8873  0.2948
 5121TIP3    H236999   2.317   2.566   0.139  0.0645 -1.4450  0.1639
 5122TIP3   OH237000   5.126   1.824   6.053 -0.3374  0.2745  0.6723
 5122TIP3    H137001   5.031   1.811   6.059 -0.2927 -0.7339 -0.4774
 5122TIP3    H237002   5.153   1.771   5.979  1.2994 -0.3364  1.6522
 5123TIP3   OH237003   3.745   1.436   6.647 -0.6532 -0.6927 -0.1576
 5123TIP3    H137004   3.654   1.454   6.624 -0.8529 -0.6204  0.6634
 5123TIP3    H237005   3.753   1.341   6.638 -0.5889 -0.6186 -0.9761
 5124TIP3   OH237006   3.886   4.182   6.482 -0.2717 -0.0232  0.2230
 5124TIP3    H137007   3.850   4.129   6.553  0.5174 -1.7267 -0.5892
 5124TIP3    H237008   3.968   4.138   6.458 -0.7291  0.2248 -2.0177
 5125TIP3   OH237009   5.252   4.505   1.438 -0.1999 -0.3549 -0.2759
 5125TIP3    H137010   5.162   4.530   1.456  0.6254  2.3203  0.5920
 5125TIP3    H237011   5.281   4.567   1.371  1.3494 -0.4357  0.2867
 5126TIP3   OH237012   4.309   2.687   7.991  0.1770  0.1413 -0.0660
 5126TIP3    H137013   4.389   2.711   7.944 -0.1133  2.2755  0.4498
 5126TIP3    H237014   4.275   2.611   7.944  1.3048  0.5895 -1.6620
 5127TIP3   OH237015   1.054   1.341   6.007 -0.0549  1.0827 -0.6807
 5127TIP3    H137016   1.118   1.293   5.953 -0.9845  0.0546 -0.9155
 5127TIP3    H237017   0.987   1.369   5.944 -0.9084  0.2802 -0.1533
 5128TIP3   OH237018   3.918   5.036   0.590  0.5131  0.2592  0.3154
 5128TIP3    H137019   3.903   4.962   0.649 -3.2846 -1.7110 -2.6712
 5128TIP3    H237020   3.999   5.012   0.544  0.1828 -1.2934  0.4804
 5129TIP3   OH237021   2.550   2.213   1.123 -0.3894  0.2113  0.0678
 5129TIP3    H137022   2.520   2.293   1.166 -0.3757  0.4149 -0.2998
 5129TIP3    H237023   2.471   2.177   1.082 -0.3217  0.2241 -0.0715
 5130TIP3   OH237024   6.907   5.875   7.932 -0.3443  0.2516 -0.0462
 5130TIP3    H137025   6.984   5.902   7.981  0.7890  0.4326 -1.8326
 5130TIP3    H237026   6.863   5.956   7.909 -0.9213  0.1635  0.7028
 5131TIP3   OH237027   5.146   2.528   7.957  0.6606  0.9010  0.0209
 5131TIP3    H137028   5.199   2.554   7.882  0.5531  0.4429 -0.2184
 5131TIP3    H237029   5.197   2.460   8.000  0.8963  1.4335  0.5856
 5132TIP3   OH237030   2.473   5.587   6.644 -0.0790 -0.0700  0.2963
 5132TIP3    H137031   2.437   5.633   6.568  0.2984 -0.0566  0.1227
 5132TIP3    H237032   2.551   5.543   6.611 -0.9610 -1.6378  0.2468
 5133TIP3   OH237033   6.000   2.037   0.926 -0.2193 -0.5037  0.1576
 5133TIP3    H137034   6.023   2.019   0.835  0.6457  1.2811 -0.0217
 5133TIP3    H237035   5.916   2.081   0.921 -0.6112 -1.2135  0.3164
 5134TIP3   OH237036   5.333   1.584   5.618  0.0759  0.4965  0.2557
 5134TIP3    H137037   5.276   1.572   5.542  1.0723 -0.2187 -0.4100
 5134TIP3    H237038   5.404   1.640   5.587  0.1786  0.6972  0.8363
 5135TIP3   OH237039   1.565   6.792   0.298 -0.0693  0.5166  0.0533
 5135TIP3    H137040   1.529   6.707   0.325 -1.3914  1.1071  0.2621
 5135TIP3    H237041   1.520   6.855   0.354 -0.8683  1.5473 -1.6732
 5136TIP3   OH237042   6.539   0.833   0.787  0.7598  0.3304 -0.2950
 5136TIP3    H137043   6.473   0.842   0.719 -0.6702 -0.5093  0.9029
 5136TIP3    H237044   6.503   0.881   0.862  0.2488 -2.1353  1.1900
 5137TIP3   OH237045   4.769   0.155   1.575  0.5253  0.2941  0.6822
 5137TIP3    H137046   4.778   0.234   1.628 -0.6745  1.7022 -1.0902
 5137TIP3    H237047   4.689   0.113   1.608  1.3996 -0.4634  1.9140
 5138TIP3   OH237048   5.539   1.332   1.933  0.1255  0.3193 -0.3467
 5138TIP3    H137049   5.631   1.351   1.952  0.5319 -2.1116  0.4616
 5138TIP3    H237050   5.493   1.352   2.014  0.3147 -0.5482 -0.0111
 5139TIP3   OH237051   6.910   6.139   7.862  0.9590  0.1263 -0.5602
 5139TIP3    H137052   6.976   6.193   7.905  0.8683 -0.7560  0.7318
 5139TIP3    H237053   6.830   6.191   7.866  0.7159 -0.3292  1.2633
 5140TIP3   OH237054   6.061   3.570   7.135  0.2447 -0.5311  0.6015
 5140TIP3    H137055   6.149   3.600   7.160 -0.0726  0.7719  0.2457
 5140TIP3    H237056   6.005   3.646   7.151 -0.9161 -1.4988  1.2703
 5141TIP3   OH237057   4.683   3.760   0.664 -0.6078  0.1854  0.1480
 5141TIP3    H137058   4.773   3.737   0.642 -0.4661  0.3450  0.5518
 5141TIP3    H237059   4.687   3.854   0.684 -0.5702 -0.1236  1.6742
 5142TIP3   OH237060   1.808   4.990   7.121 -0.4998  0.8884 -0.2026
 5142TIP3    H137061   1.801   5.016   7.213  0.7113  1.0762 -0.1536
 5142TIP3    H237062   1.721   5.006   7.085 -1.3719 -0.3937  1.2067
 5143TIP3   OH237063   1.450   5.866   0.288 -0.5191  0.0483  0.2241
 5143TIP3    H137064   1.367   5.838   0.251  0.9607 -1.9425 -1.8844
 5143TIP3    H237065   1.456   5.820   0.372 -1.5905  0.3234  0.4570
 5144TIP3   OH237066   6.310   4.229   0.528  0.2603 -0.1382  0.2353
 5144TIP3    H137067   6.228   4.181   0.538  0.5946 -0.7210  0.1828
 5144TIP3    H237068   6.306   4.263   0.438  0.8193 -1.5846 -0.3649
 5145TIP3   OH237069   3.024   4.472   6.861 -0.0769  0.0513 -0.3052
 5145TIP3    H137070   3.108   4.466   6.906 -0.5133 -0.3218  0.4756
 5145TIP3    H237071   3.045   4.506   6.774  0.8485  0.1868 -0.0298
 5146TIP3   OH237072   2.133   3.078   0.400 -0.1614  0.4855  0.0288
 5146TIP3    H137073   2.041   3.055   0.388  0.1976  0.1772 -2.5394
 5146TIP3    H237074   2.168   3.086   0.312  2.0077  1.8171  0.9191
 5147TIP3   OH237075   3.479   0.709   0.806 -0.4436 -0.6009 -0.5491
 5147TIP3    H137076   3.523   0.792   0.827  0.2908 -0.9292 -0.7660
 5147TIP3    H237077   3.480   0.661   0.889  0.0364 -0.7958 -0.6617
 5148TIP3   OH237078   4.426   1.859   1.911  0.2691  0.2499 -0.0811
 5148TIP3    H137079   4.391   1.785   1.960 -0.7151 -0.7349 -2.1583
 5148TIP3    H237080   4.357   1.925   1.913  0.5510  0.5342  0.5065
 5149TIP3   OH237081   1.335   2.868   1.287 -0.0558  0.3884  0.2420
 5149TIP3    H137082   1.249   2.827   1.301  0.8651 -2.0208 -0.5525
 5149TIP3    H237083   1.344   2.872   1.192  0.4848  1.1513  0.3222
 5150TIP3   OH237084   1.031   2.305   6.876 -0.3114  0.2712  0.3074
 5150TIP3    H137085   0.974   2.374   6.910  1.8127  1.8766  0.9007
 5150TIP3    H237086   1.115   2.349   6.863  0.7518 -1.9179 -0.6763
 5151TIP3   OH237087   5.325   6.704   7.196  0.1263 -0.1697 -0.0395
 5151TIP3    H137088   5.291   6.785   7.234 -1.0040 -1.3696  1.6717
 5151TIP3    H237089   5.367   6.659   7.270 -1.3142 -2.1780 -0.3571
 5152TIP3   OH237090   6.815   6.221   0.824  0.2321  0.1366 -0.3162
 5152TIP3    H137091   6.856   6.300   0.789 -1.2619  0.3413 -1.7546
 5152TIP3    H237092   6.818   6.232   0.919  0.6330  1.6241 -0.4738
 5153TIP3   OH237093   4.834   3.335   6.423  0.0224 -0.2290  0.4822
 5153TIP3    H137094   4.923   3.310   6.448 -0.0148 -0.0752  0.7683
 5153TIP3    H237095   4.845   3.390   6.346  0.1008 -1.2580 -0.2737
 5154TIP3   OH237096   3.698   1.432   1.430 -0.3055  0.6796  0.0564
 5154TIP3    H137097   3.741   1.511   1.462  0.9983 -0.3778  1.0505
 5154TIP3    H237098   3.749   1.405   1.354 -0.8442  0.8613 -0.3783
 5155TIP3   OH237099   3.140   5.990   0.913  0.7651 -0.2504  0.4896
 5155TIP3    H137100   3.114   5.901   0.888  0.2411  0.2363 -0.7562
 5155TIP3    H237101   3.174   6.029   0.833  0.1599  0.9588  0.7926
 5156TIP3   OH237102   3.919   0.262   0.793 -0.7354  0.1158 -0.2319
 5156TIP3    H137103   3.883   0.226   0.875 -1.0829  1.6412  0.3189
 5156TIP3    H237104   3.882   0.208   0.724 -1.3239 -0.5030  0.5547
 5157TIP3   OH237105   5.732   0.837   6.364 -0.1255 -0.5094  0.4020
 5157TIP3    H137106   5.803   0.860   6.304 -0.4403 -1.6668 -0.4552
 5157TIP3    H237107   5.758   0.752   6.399 -0.7584 -0.6246  0.5973
 5158TIP3   OH237108   1.213   1.917   7.415  0.1562 -0.0481  0.3714
 5158TIP3    H137109   1.135   1.861   7.417 -0.0097  0.1625 -0.0870
 5158TIP3    H237110   1.245   1.910   7.325  0.5741 -0.0012  0.5143
 5159TIP3   OH237111   0.477   0.654   1.537 -0.0312  0.5770 -0.3036
 5159TIP3    H137112   0.557   0.635   1.586  0.6722 -1.6367 -2.1238
 5159TIP3    H237113   0.483   0.747   1.518  1.5879  0.6777  0.4873
 5160TIP3   OH237114   5.767   3.968   1.777  0.1531 -0.2322 -0.2157
 5160TIP3    H137115   5.771   4.057   1.811 -0.4753  1.0469 -3.2452
 5160TIP3    H237116   5.674   3.944   1.781  0.2985 -0.7345  0.4426
 5161TIP3   OH237117   6.477   3.452   8.090 -0.0100 -0.1295  0.6614
 5161TIP3    H137118   6.546   3.431   8.027 -1.7455  0.9244 -1.7846
 5161TIP3    H237119   6.507   3.533   8.132  0.9803 -0.5899  0.8576
 5162TIP3   OH237120   7.112   0.492   6.526  0.2101 -0.1932 -0.0838
 5162TIP3    H137121   7.045   0.440   6.572  0.3543 -0.9831 -0.7327
 5162TIP3    H237122   7.065   0.532   6.453  0.4341 -0.7783 -0.5616
 5163TIP3   OH237123   1.491   1.089   2.313  0.3510  0.3330  0.4438
 5163TIP3    H137124   1.557   1.107   2.380 -0.5321  1.3671  1.0703
 5163TIP3    H237125   1.520   1.138   2.237  0.7154  0.1561  0.4697
 5164TIP3   OH237126   6.648   5.822   7.846 -0.1953  0.3164  0.2546
 5164TIP3    H137127   6.606   5.737   7.831 -1.0325  0.5657  1.0909
 5164TIP3    H237128   6.739   5.800   7.866 -0.4324 -0.4039  0.6001
 5165TIP3   OH237129   3.402   4.779   1.279 -0.0987  0.6726 -0.3281
 5165TIP3    H137130   3.476   4.801   1.336 -1.2095  0.4963  1.2654
 5165TIP3    H237131   3.381   4.688   1.301 -0.3043  0.4662 -1.3333
 5166TIP3   OH237132   2.044   0.215   7.110  0.5748  0.1557  0.1101
 5166TIP3    H137133   2.055   0.301   7.068  0.0407 -0.0549 -0.4684
 5166TIP3    H237134   1.956   0.188   7.086  1.4137 -1.4335 -1.3187
 5167TIP3   OH237135   4.577   1.611   1.727  0.2557 -0.4355  0.0065
 5167TIP3    H137136   4.557   1.519   1.711 -1.1745 -0.7252  2.7729
 5167TIP3    H237137   4.651   1.610   1.787  3.0251  0.4544 -3.1135
 5168TIP3   OH237138   2.722   5.985   0.982  0.7380  0.1048  0.3955
 5168TIP3    H137139   2.756   5.896   0.973  1.0874  0.2134  0.6280
 5168TIP3    H237140   2.663   5.996   0.907 -0.5161 -0.8678  1.1920
 5169TIP3   OH237141   1.454   0.395   7.497  0.4890 -0.0467 -0.0127
 5169TIP3    H137142   1.492   0.433   7.418  0.9979 -0.2640  0.1230
 5169TIP3    H237143   1.435   0.470   7.553 -2.0942  0.3518 -1.2539
 5170TIP3   OH237144   6.167   6.677   7.266 -0.2112 -0.1166  0.6881
 5170TIP3    H137145   6.191   6.608   7.327  0.5396 -0.4318  0.0526
 5170TIP3    H237146   6.110   6.735   7.317 -1.6586 -1.7055  0.9407
 5171TIP3   OH237147   5.796   4.167   0.260 -0.2886  0.2566  0.3792
 5171TIP3    H137148   5.779   4.074   0.276  0.2580 -0.0470 -0.7001
 5171TIP3    H237149   5.786   4.208   0.346  0.6445 -0.9756  1.1134
 5172TIP3   OH237150   1.274   6.967   7.268 -0.5376  0.3082  0.5823
 5172TIP3    H137151   1.179   6.973   7.256 -0.7150 -0.9514  1.1906
 5172TIP3    H237152   1.295   7.036   7.331 -1.4750 -1.0410  2.4725
 5173TIP3   OH237153   1.210   1.487   1.073  0.1506  0.4000 -0.0773
 5173TIP3    H137154   1.115   1.486   1.083 -0.0050 -2.3052 -0.9442
 5173TIP3    H237155   1.237   1.397   1.090  2.3335  0.6769 -1.6243
 5174TIP3   OH237156   4.447   6.217   1.362  1.3326  0.1577  0.1575
 5174TIP3    H137157   4.467   6.222   1.455  0.7844  0.3704  0.2663
 5174TIP3    H237158   4.359   6.180   1.358  1.4226 -0.0111 -0.2820
 5175TIP3   OH237159   3.329   6.205   6.214 -0.3897 -0.4072  0.0291
 5175TIP3    H137160   3.401   6.173   6.268  1.2932 -0.7930 -2.3093
 5175TIP3    H237161   3.260   6.139   6.226  0.0940 -0.7252  1.2925
 5176TIP3   OH237162   2.256   2.263   7.007 -0.2215 -0.5632 -0.3963
 5176TIP3    H137163   2.166   2.295   7.006 -0.0555 -0.0296  0.6442
 5176TIP3    H237164   2.284   2.271   7.098  0.5162 -1.7704 -0.4858
 5177TIP3   OH237165   4.350   4.666   0.824  0.1068  0.3674  0.1351
 5177TIP3    H137166   4.444   4.665   0.809  0.2633 -0.9090  1.0924
 5177TIP3    H237167   4.338   4.721   0.902  0.3397 -1.5450  1.5670
 5178TIP3   OH237168   1.806   0.370   1.753  0.0734  0.1446  0.7044
 5178TIP3    H137169   1.876   0.339   1.810 -1.1662 -0.2192  2.1027
 5178TIP3    H237170   1.770   0.290   1.715  0.4017  0.3298 -0.0034
 5179TIP3   OH237171   6.842   0.999   6.591 -0.5417  0.1401  0.7369
 5179TIP3    H137172   6.827   1.077   6.537  0.7986  0.5050  0.8526
 5179TIP3    H237173   6.821   0.925   6.533 -1.3146  0.5646  0.4572
 5180TIP3   OH237174   4.063   0.137   6.368  0.3138 -0.3211  0.2877
 5180TIP3    H137175   4.118   0.101   6.298  0.0495 -1.2415  0.5323
 5180TIP3    H237176   3.975   0.105   6.348 -0.0874  0.8776  0.0729
 5181TIP3   OH237177   3.362   0.186   7.978  0.9939  0.0185 -0.3423
 5181TIP3    H137178   3.369   0.177   8.073  0.3341  0.1564 -0.2727
 5181TIP3    H237179   3.418   0.261   7.957 -0.0458  0.9579  0.1450
 5182TIP3   OH237180   2.457   0.597   0.650 -0.6604  0.0738  0.0668
 5182TIP3    H137181   2.382   0.606   0.710 -1.0243 -1.1317 -0.1870
 5182TIP3    H237182   2.432   0.649   0.573 -0.4128  1.2051  0.7220
 5183TIP3   OH237183   0.317   5.394   0.030  0.0952 -0.5882  0.0264
 5183TIP3    H137184   0.301   5.328   0.097  2.3514 -0.0900  1.1548
 5183TIP3    H237185   0.330   5.476   0.078 -0.5903  0.2947 -1.2060
 5184TIP3   OH237186   4.481   7.052   6.395 -0.1100  0.2798  0.0644
 5184TIP3    H137187   4.491   6.979   6.334  1.7034 -0.3963  1.0873
 5184TIP3    H237188   4.387   7.059   6.410 -0.6650  0.6566 -2.9618
 5185TIP3   OH237189   2.826   6.854   6.597  0.0426 -0.7196 -0.0700
 5185TIP3    H137190   2.828   6.866   6.502  2.3748  0.9231  0.0944
 5185TIP3    H237191   2.787   6.768   6.609  0.3856 -1.3132 -2.5581
 5186TIP3   OH237192   3.713   4.449   7.585 -0.0627 -0.6566 -0.1612
 5186TIP3    H137193   3.706   4.357   7.560 -0.6424 -0.4178 -0.9299
 5186TIP3    H237194   3.731   4.447   7.679 -0.4101 -1.5461 -0.1023
 5187TIP3   OH237195   1.527   3.184   7.659  0.2731  0.2587  0.2627
 5187TIP3    H137196   1.608   3.182   7.709  0.1830  1.1159  0.4583
 5187TIP3    H237197   1.553   3.158   7.570  0.7564  0.4958  0.3316
 5188TIP3   OH237198   4.587   3.146   7.025  0.4527 -0.1632 -0.0185
 5188TIP3    H137199   4.677   3.135   7.057  0.4065  0.0912  0.2140
 5188TIP3    H237200   4.585   3.101   6.941  0.1992 -2.0831  0.9612
 5189TIP3   OH237201   1.256   0.193   7.704  0.2247  0.8131 -0.3291
 5189TIP3    H137202   1.225   0.103   7.719 -0.1380  0.9480 -0.2503
 5189TIP3    H237203   1.230   0.212   7.614 -1.8896  1.6840  0.3864
 5190TIP3   OH237204   1.313   5.417   0.051 -0.0806 -0.0778 -0.2336
 5190TIP3    H137205   1.269   5.432   0.135 -0.2768 -0.3371 -0.2877
 5190TIP3    H237206   1.357   5.499   0.032 -1.6575  0.6595 -0.8464
 5191TIP3   OH237207   0.188   6.961   1.126  0.5465 -0.4601 -0.8486
 5191TIP3    H137208   0.214   7.043   1.084  1.6450  0.0319  0.7307
 5191TIP3    H237209   0.095   6.972   1.145  0.8127  0.6558 -0.1503
 5192TIP3   OH237210   5.751   4.532   6.163  0.0797  0.3120 -0.0270
 5192TIP3    H137211   5.797   4.608   6.197  0.8940  1.2176 -2.9004
 5192TIP3    H237212   5.764   4.464   6.230  0.9756  2.0905  1.6943
 5193TIP3   OH237213   5.433   1.275   1.147 -0.3289 -0.3737  0.2403
 5193TIP3    H137214   5.449   1.362   1.110  2.5657 -1.4765 -1.4673
 5193TIP3    H237215   5.361   1.239   1.095 -0.4248  0.3699 -0.1543
 5194TIP3   OH237216   4.496   5.114   2.074 -0.2406 -0.3173  0.0086
 5194TIP3    H137217   4.574   5.109   2.129 -1.9830 -2.7000  2.5210
 5194TIP3    H237218   4.491   5.029   2.031 -0.6654  0.3567 -1.3311
 5195TIP3   OH237219   2.137   1.428   1.638 -0.1642 -0.1567  0.0829
 5195TIP3    H137220   2.106   1.475   1.716  1.0659  1.7511 -0.5217
 5195TIP3    H237221   2.212   1.378   1.669  0.4179  0.7173  0.1140
 5196TIP3   OH237222   0.859   5.196   7.723 -0.5180  0.2308  0.0976
 5196TIP3    H137223   0.876   5.153   7.807 -1.4550  0.5541  0.4683
 5196TIP3    H237224   0.942   5.237   7.699 -0.5174  1.0116  1.3740
 5197TIP3   OH237225   0.916   0.189   6.946  0.0625 -0.2000 -0.4049
 5197TIP3    H137226   0.872   0.141   6.876 -0.0666 -2.0531  0.8775
 5197TIP3    H237227   1.002   0.211   6.910  0.5564 -2.4007 -0.7165
 5198TIP3   OH237228   6.132   5.985   7.802 -0.6605  0.4145  0.0038
 5198TIP3    H137229   6.098   5.932   7.874 -1.2784 -1.6140 -1.6824
 5198TIP3    H237230   6.207   5.936   7.768 -1.0123  0.7739 -1.3745
 5199TIP3   OH237231   1.906   5.588   7.012  0.3654  0.4945 -0.1081
 5199TIP3    H137232   1.982   5.540   7.046 -1.0866 -1.5874  0.3754
 5199TIP3    H237233   1.942   5.642   6.942  2.3635 -0.1114  0.3783
 5200TIP3   OH237234   1.513   1.291   1.755 -0.4133  0.2841 -0.5989
 5200TIP3    H137235   1.600   1.286   1.717 -0.7489  0.6989 -1.4608
 5200TIP3    H237236   1.471   1.208   1.731  0.5116 -0.9860  1.8734
 5201TIP3   OH237237   0.760   4.040   6.935 -0.5618 -0.0959  0.1158
 5201TIP3    H137238   0.780   4.035   7.029  0.0007 -2.3596 -0.0652
 5201TIP3    H237239   0.737   3.951   6.911 -0.6473  0.4386 -1.9296
 5202TIP3   OH237240   4.262   1.134   0.804 -0.2549 -0.0258 -0.1803
 5202TIP3    H137241   4.182   1.165   0.847  0.3441  1.9041 -0.3621
 5202TIP3    H237242   4.304   1.213   0.771  0.9230 -1.1546 -1.5368
 5203TIP3   OH237243   3.980   2.642   0.337 -0.1461  0.0795  0.0786
 5203TIP3    H137244   4.068   2.657   0.304 -0.5312 -0.3425 -1.2025
 5203TIP3    H237245   3.978   2.686   0.422  0.5403  2.2066 -0.9405
 5204TIP3   OH237246   2.233   2.831   0.983 -0.0977  0.4322 -0.3042
 5204TIP3    H137247   2.286   2.787   1.049  0.0249  1.1160  0.0704
 5204TIP3    H237248   2.253   2.924   0.996  1.1176  0.5064 -2.3349
 5205TIP3   OH237249   6.005   6.991   6.231 -0.4616 -0.1877 -0.1710
 5205TIP3    H137250   6.031   6.922   6.292 -2.0685 -1.7838 -1.1776
 5205TIP3    H237251   6.085   7.041   6.216  0.9223 -2.1267  0.2383
 5206TIP3   OH237252   1.001   4.585   0.047 -0.5052 -0.0634 -0.0511
 5206TIP3    H137253   1.038   4.673   0.046  1.1674 -0.7135  0.0531
 5206TIP3    H237254   0.936   4.587   0.117 -0.6904  1.1490 -0.2363
 5207TIP3   OH237255   6.285   1.806   0.577 -0.7259 -0.1848  0.1328
 5207TIP3    H137256   6.333   1.769   0.503 -0.7350 -0.5439  0.3044
 5207TIP3    H237257   6.195   1.777   0.565 -0.5623 -1.0109  0.7641
 5208TIP3   OH237258   5.066   4.842   6.598 -0.6233 -0.3088  0.2304
 5208TIP3    H137259   5.117   4.800   6.529 -2.1544  0.5461 -1.5040
 5208TIP3    H237260   5.102   4.930   6.604  0.0719 -0.6372  1.1805
 5209TIP3   OH237261   5.777   5.412   1.435  0.0247 -0.2969  0.4436
 5209TIP3    H137262   5.688   5.409   1.470 -1.0777  0.8170 -1.9879
 5209TIP3    H237263   5.814   5.326   1.455 -2.5109 -1.7389 -0.5876
 5210TIP3   OH237264   1.968   2.458   0.918  0.1320  0.3076 -0.1245
 5210TIP3    H137265   2.010   2.393   0.862 -1.5505 -1.1780  0.2214
 5210TIP3    H237266   1.892   2.487   0.868 -1.4572 -1.1111  1.3366
 5211TIP3   OH237267   0.778   7.059   0.702  0.1326 -0.5264  0.7583
 5211TIP3    H137268   0.722   7.135   0.718  1.2850  0.6193 -0.4276
 5211TIP3    H237269   0.836   7.055   0.778  0.1164 -0.1681  0.7916
 5212TIP3   OH237270   2.950   1.852   6.986 -0.1471 -0.0396 -0.1919
 5212TIP3    H137271   2.903   1.936   6.989  0.0186  0.0546 -0.2311
 5212TIP3    H237272   2.901   1.801   6.921 -0.0614  0.1428 -0.4044
 5213TIP3   OH237273   5.751   1.704   0.146  0.0264 -0.1500 -0.7326
 5213TIP3    H137274   5.810   1.688   0.073  2.8341 -1.6741  1.6787
 5213TIP3    H237275   5.775   1.791   0.178 -1.7253  0.8512 -1.9670
 5214TIP3   OH237276   4.375   4.833   6.183  0.2191 -0.6476 -0.5704
 5214TIP3    H137277   4.469   4.818   6.169  0.8521  1.0010  1.3968
 5214TIP3    H237278   4.355   4.784   6.262  0.2781  1.5877  0.9222
 5215TIP3   OH237279   2.855   6.002   8.105 -0.2499 -0.1668  0.1079
 5215TIP3    H137280   2.761   5.987   8.104 -0.5798  1.6512  0.6819
 5215TIP3    H237281   2.879   6.002   8.198  0.5359 -1.6727 -0.0567
 5216TIP3   OH237282   6.629   0.096   5.642  1.0446  0.4179 -0.0734
 5216TIP3    H137283   6.674   0.021   5.605 -1.2061 -1.5909  1.0032
 5216TIP3    H237284   6.602   0.068   5.730 -1.2341  1.8754 -0.2077
 5217TIP3   OH237285   5.253   6.034   6.448  0.3802  0.0838 -0.6314
 5217TIP3    H137286   5.294   5.959   6.405  0.0658  0.1730 -1.0887
 5217TIP3    H237287   5.322   6.100   6.454  0.4054  0.0961 -1.0631
 5218TIP3   OH237288   5.686   0.448   0.891 -0.0620 -0.1528  0.2753
 5218TIP3    H137289   5.678   0.473   0.983 -1.8957  3.3404 -0.6791
 5218TIP3    H237290   5.690   0.352   0.893 -1.2363 -0.2886  3.8944
 5219TIP3   OH237291   6.424   6.816   0.906  0.2065  0.3237 -0.3300
 5219TIP3    H137292   6.398   6.737   0.953 -0.1722 -0.0149 -1.0943
 5219TIP3    H237293   6.506   6.843   0.948  0.5894 -0.7450 -0.3749
 5220TIP3   OH237294   2.372   5.553   0.125 -0.3710 -0.0852 -0.5340
 5220TIP3    H137295   2.463   5.530   0.104 -0.5464 -0.0688 -1.3339
 5220TIP3    H237296   2.361   5.641   0.090 -1.0029 -0.4916 -1.3895
 5221TIP3   OH237297   0.098   2.960   2.104  0.1223 -0.0956  0.0845
 5221TIP3    H137298   0.006   2.977   2.125 -0.4274 -0.6822 -1.6788
 5221TIP3    H237299   0.142   3.043   2.123 -0.9768  0.5739 -0.1934
 5222TIP3   OH237300   0.744   2.893   2.164  0.1679 -0.2765 -0.2021
 5222TIP3    H137301   0.687   2.931   2.230 -0.4700 -1.2384 -0.1793
 5222TIP3    H237302   0.777   2.812   2.204  0.1387 -0.6323 -0.8821
 5223TIP3   OH237303   5.621   3.989   0.902 -0.2322 -0.5105 -0.2048
 5223TIP3    H137304   5.712   3.959   0.906  0.3525  1.0857 -0.8553
 5223TIP3    H237305   5.612   4.025   0.814 -0.8473  1.3231  0.5706
 5224TIP3   OH237306   6.411   4.955   1.886  0.2166  0.5293 -0.0463
 5224TIP3    H137307   6.398   4.900   1.809  0.0920  0.6720 -0.1286
 5224TIP3    H237308   6.488   4.919   1.929  0.6709  0.8504 -0.5881
 5225TIP3   OH237309   2.003   5.224   0.161  0.5643 -0.4383  0.1886
 5225TIP3    H137310   2.077   5.280   0.139  1.3091 -1.5398 -0.2506
 5225TIP3    H237311   1.956   5.211   0.079 -0.5391  0.7916  0.5884
 5226TIP3   OH237312   6.840   0.378   0.738  0.1090  0.4008 -0.0932
 5226TIP3    H137313   6.789   0.352   0.815  1.6650 -1.0006  0.4927
 5226TIP3    H237314   6.906   0.438   0.772  1.1540 -0.6535 -0.2220
 5227TIP3   OH237315   0.859   4.161   0.566 -0.4121 -0.0742 -0.0547
 5227TIP3    H137316   0.912   4.086   0.594  1.2659  0.9597 -0.3562
 5227TIP3    H237317   0.910   4.202   0.497 -0.9522  1.7946  0.6020
 5228TIP3   OH237318   5.361   3.571   6.236 -0.1080  0.0158  0.2499
 5228TIP3    H137319   5.289   3.513   6.211 -0.3353  0.5723 -0.4308
 5228TIP3    H237320   5.435   3.541   6.184 -0.0144 -0.1743  0.4953
 5229TIP3   OH237321   6.783   4.628   0.759  0.3295 -0.1345 -0.1180
 5229TIP3    H137322   6.871   4.603   0.789  0.2403 -1.5063 -0.9143
 5229TIP3    H237323   6.738   4.655   0.839  0.9861 -0.9615  0.5539
 5230TIP3   OH237324   0.600   4.273   0.168 -0.4151 -0.1440  0.0136
 5230TIP3    H137325   0.532   4.224   0.121 -0.5708 -0.2093  0.3099
 5230TIP3    H237326   0.559   4.300   0.250 -0.0638 -0.2379  0.2224
 5231TIP3   OH237327   2.742   6.862   7.539  0.5960 -0.7326  0.2273
 5231TIP3    H137328   2.762   6.873   7.446 -0.2846 -1.2308 -0.0291
 5231TIP3    H237329   2.802   6.922   7.584 -1.7892  2.8059 -0.8645
 5232TIP3   OH237330   1.046   6.782   2.120  0.4878  0.1311  0.6336
 5232TIP3    H137331   0.986   6.797   2.193  0.1133  0.9569  0.1630
 5232TIP3    H237332   1.026   6.851   2.057  1.8681  0.3701  0.4169
 5233TIP3   OH237333   2.384   4.621   0.819 -0.5021 -0.5199 -0.2186
 5233TIP3    H137334   2.462   4.669   0.847  0.8963 -1.8055 -1.7067
 5233TIP3    H237335   2.311   4.669   0.858  0.9825  1.0703  0.7441
 5234TIP3   OH237336   4.219   3.191   1.962  0.4845 -0.2154  0.0420
 5234TIP3    H137337   4.283   3.257   1.934  2.1818 -0.7533  2.3320
 5234TIP3    H237338   4.139   3.241   1.980  1.3568  1.0620  0.5289
 5235TIP3   OH237339   2.156   5.912   1.126 -0.5269 -0.0581 -0.0861
 5235TIP3    H137340   2.237   5.901   1.077  0.5404 -0.0730  1.5851
 5235TIP3    H237341   2.159   6.003   1.157 -0.6418 -0.3465  0.8031
 5236TIP3   OH237342   3.608   5.118   7.425  0.5736  0.3812 -0.2903
 5236TIP3    H137343   3.545   5.148   7.491  0.1397 -1.2225  0.0901
 5236TIP3    H237344   3.679   5.079   7.476  0.4878 -0.4012 -0.7530
 5237TIP3   OH237345   0.467   0.524   0.623 -0.5916  0.4713  0.0555
 5237TIP3    H137346   0.483   0.557   0.711  0.2516  0.5816 -0.1253
 5237TIP3    H237347   0.373   0.509   0.619 -0.4280 -1.2097  1.5593
 5238TIP3   OH237348   0.051   0.440   6.160  0.6849 -0.1849 -0.1675
 5238TIP3    H137349   0.141   0.417   6.181  0.8603 -0.3638 -1.0536
 5238TIP3    H237350  -0.002   0.377   6.208  1.0765 -0.8257 -0.5697
 5239TIP3   OH237351   1.173   0.268   7.453 -0.4798 -0.0496 -0.1031
 5239TIP3    H137352   1.112   0.311   7.394  0.8956 -0.0047 -1.5816
 5239TIP3    H237353   1.231   0.339   7.483  0.2284 -0.4237 -0.5428
 5240TIP3   OH237354   2.178   2.156   1.358  0.0575 -0.1253 -0.2948
 5240TIP3    H137355   2.139   2.169   1.271 -0.0921 -2.4725 -0.6400
 5240TIP3    H237356   2.262   2.115   1.341 -0.0435 -0.7635  0.6651
 5241TIP3   OH237357   2.877   0.596   8.034 -0.3948  0.3782  0.4026
 5241TIP3    H137358   2.818   0.543   7.980 -0.0744 -1.2797  1.5852
 5241TIP3    H237359   2.941   0.533   8.068 -0.1069  1.4843  2.0350
 5242TIP3   OH237360   6.832   0.279   7.455 -0.1261  0.0339 -0.4419
 5242TIP3    H137361   6.866   0.331   7.382  0.5855  0.8382  0.4316
 5242TIP3    H237362   6.893   0.206   7.464  0.5917  0.6958  0.2134
 5243TIP3   OH237363   6.015   0.220   0.616 -0.0620 -0.3068 -0.5534
 5243TIP3    H137364   6.019   0.127   0.591  0.6860 -0.8782  1.4551
 5243TIP3    H237365   6.098   0.236   0.661 -0.8038  0.9159  0.4444
 5244TIP3   OH237366   1.122   1.388   0.033 -0.4149  0.0415 -0.7328
 5244TIP3    H137367   1.199   1.424  -0.011  0.3021 -0.5128  0.0278
 5244TIP3    H237368   1.121   1.295   0.009 -0.1246 -0.2238  0.2356
 5245TIP3   OH237369   0.193   6.847   0.392  0.0495 -0.3323  0.3643
 5245TIP3    H137370   0.247   6.845   0.313 -0.2851  0.6366  0.0974
 5245TIP3    H237371   0.163   6.938   0.398 -0.3548 -0.5206  1.3178
 5246TIP3   OH237372   1.514   2.517   0.526  0.3816 -0.1226 -0.3842
 5246TIP3    H137373   1.484   2.604   0.501  0.3276  0.3245  1.1075
 5246TIP3    H237374   1.609   2.522   0.522  0.3905  0.1325  0.0503
 5247TIP3   OH237375   1.896   2.150   6.633 -0.7268  0.3623 -0.1223
 5247TIP3    H137376   1.865   2.209   6.565 -0.7323  1.3734  0.7318
 5247TIP3    H237377   1.905   2.065   6.589  0.5019  1.2447 -1.6909
 5248TIP3   OH237378   2.245   3.594   1.753  0.2147 -0.4111 -0.5173
 5248TIP3    H137379   2.319   3.637   1.712  1.8294 -1.0808  1.5047
 5248TIP3    H237380   2.227   3.646   1.832  0.7894 -2.1010  0.8065
 5249TIP3   OH237381   7.047   6.932   1.183 -0.1694  0.4365 -0.7085
 5249TIP3    H137382   7.049   6.941   1.088 -0.4456  0.4962 -0.7104
 5249TIP3    H237383   6.975   6.988   1.211 -0.0376  0.4819 -0.4549
 5250TIP3   OH237384   2.100   6.100   0.354  0.4934  0.1276  0.4309
 5250TIP3    H137385   2.078   6.040   0.425 -0.5126  0.9672  0.8521
 5250TIP3    H237386   2.151   6.170   0.396  2.2583 -0.7190 -0.1724
 5251TIP3   OH237387   6.728   1.565   1.298 -0.0680  0.0678 -0.2982
 5251TIP3    H137388   6.689   1.530   1.218 -1.5953  0.4144  0.2521
 5251TIP3    H237389   6.666   1.540   1.367  1.7344 -1.1879  0.9710
 5252TIP3   OH237390   3.756   5.493   7.106 -0.3699 -0.6190 -0.1375
 5252TIP3    H137391   3.693   5.480   7.176  0.3345  1.2468  0.9131
 5252TIP3    H237392   3.711   5.550   7.043 -0.3327 -0.7028 -0.2407
 5253TIP3   OH237393   0.338   1.713   0.419 -0.5186  0.3446  0.0714
 5253TIP3    H137394   0.383   1.796   0.401 -1.4186  0.3000 -3.0564
 5253TIP3    H237395   0.388   1.673   0.490  2.2984  1.8125 -0.9336
 5254TIP3   OH237396   4.205   5.630   7.006 -0.5232 -0.4360 -0.1359
 5254TIP3    H137397   4.162   5.552   6.969 -0.6699 -0.3268 -0.1977
 5254TIP3    H237398   4.297   5.606   7.010 -0.6628 -0.8931  0.5623
 5255TIP3   OH237399   7.009   4.973   1.513 -0.1839  0.0621  0.1697
 5255TIP3    H137400   7.040   4.883   1.499  0.0019  0.2055 -0.3367
 5255TIP3    H237401   6.915   4.963   1.530 -0.4393 -0.1128 -1.2591
 5256TIP3   OH237402   6.741   4.507   0.093 -0.8336 -0.2532  0.0412
 5256TIP3    H137403   6.739   4.580   0.154 -1.0471 -0.9346  0.8599
 5256TIP3    H237404   6.821   4.521   0.042 -0.2253 -0.1172  1.0141
 5257TIP3   OH237405   6.935   4.043   6.776 -0.3703  0.3094 -0.1770
 5257TIP3    H137406   7.024   4.075   6.792 -0.0754 -1.0849  1.2023
 5257TIP3    H237407   6.879   4.116   6.802  0.3350  0.7967  0.0314
 5258TIP3   OH237408   0.451   7.009   0.945  0.0733 -0.2324  0.3253
 5258TIP3    H137409   0.416   7.097   0.934 -2.2011 -0.6388  3.1219
 5258TIP3    H237410   0.375   6.951   0.937  1.3306 -1.8896 -0.4212
 5259TIP3   OH237411   0.588   2.459   6.466 -0.0570 -0.6464  0.4687
 5259TIP3    H137412   0.645   2.385   6.446 -1.0708 -1.8584  1.8749
 5259TIP3    H237413   0.645   2.536   6.460  0.7422 -1.3262 -2.3238
 5260TIP3   OH237414   0.113   6.991   6.659 -0.4275  0.2222 -0.7597
 5260TIP3    H137415   0.070   7.060   6.711  2.0140 -0.0788  1.9075
 5260TIP3    H237416   0.201   7.025   6.644  0.4418 -1.8108 -0.4504
 5261TIP3   OH237417   2.236   0.241   1.637  0.5140 -0.6807  0.4488
 5261TIP3    H137418   2.194   0.197   1.711 -0.4432 -1.4272 -0.5012
 5261TIP3    H237419   2.234   0.176   1.567  0.1636  0.4680 -0.6433
 5262TIP3   OH237420   6.337   5.096   6.356  0.1732  0.2799  0.2697
 5262TIP3    H137421   6.304   5.103   6.266  0.2811 -0.1128  0.1957
 5262TIP3    H237422   6.333   5.002   6.375  0.0431  0.3783  0.7178
 5263TIP3   OH237423   1.054   3.470   5.893  0.0217  0.3590 -0.5632
 5263TIP3    H137424   1.103   3.429   5.822  0.9128 -0.3274  0.4104
 5263TIP3    H237425   0.975   3.416   5.902  0.9980 -0.9642  0.4495
 5264TIP3   OH237426   5.290   2.413   0.076  0.1121  0.2714  0.4369
 5264TIP3    H137427   5.238   2.362   0.138 -0.3324  0.0009 -0.1572
 5264TIP3    H237428   5.294   2.501   0.115  0.2985 -0.0299  1.1137
 5265TIP3   OH237429   0.062   5.888   6.948 -0.1782  0.0976 -0.2674
 5265TIP3    H137430   0.006   5.857   7.019 -1.6562  0.7695 -1.0933
 5265TIP3    H237431   0.130   5.821   6.940 -1.0898 -0.9642  0.5128
 5266TIP3   OH237432   1.001   0.506   7.831 -0.0324  0.1056 -0.4234
 5266TIP3    H137433   0.915   0.464   7.819 -0.4650  0.6652  0.6279
 5266TIP3    H237434   0.997   0.545   7.917  1.1387  0.5278 -0.5429
 5267TIP3   OH237435   1.238   4.413   1.632  0.4320  0.0354  0.1547
 5267TIP3    H137436   1.225   4.439   1.723  0.9925  0.3111  0.1595
 5267TIP3    H237437   1.149   4.402   1.598  0.0890  2.8701 -0.0996
 5268TIP3   OH237438   2.459   0.916   1.963  0.3134 -0.4203 -0.0324
 5268TIP3    H137439   2.545   0.914   2.004 -0.7492 -0.5227  2.3456
 5268TIP3    H237440   2.475   0.945   1.873  2.6375  0.9525  0.7708
 5269TIP3   OH237441   0.157   0.213   7.920  0.2316  0.6276 -0.4674
 5269TIP3    H137442   0.067   0.245   7.922  0.4529  1.2663 -0.5382
 5269TIP3    H237443   0.184   0.226   7.829  0.5202  0.7939 -0.3570
 5270TIP3   OH237444   3.473   4.160   0.060  0.1228 -0.2782  0.0421
 5270TIP3    H137445   3.386   4.137   0.027  0.6437  0.2330 -1.7794
 5270TIP3    H237446   3.528   4.085   0.036  0.8599  0.8021 -1.8483
 5271TIP3   OH237447   6.316   1.242   0.198  0.2923 -0.0389 -0.4978
 5271TIP3    H137448   6.347   1.214   0.112 -0.2905 -0.0907 -0.6939
 5271TIP3    H237449   6.353   1.178   0.259  1.8839  0.7917 -0.5242
 5272TIP3   OH237450   3.589   6.980   5.764 -0.1570 -0.2757  0.8489
 5272TIP3    H137451   3.605   6.952   5.674 -0.7864 -1.5541  1.1075
 5272TIP3    H237452   3.502   7.019   5.763  0.0464  0.1905  0.8161
 5273TIP3   OH237453   3.110   6.210   7.027 -0.1437  0.7911  0.3527
 5273TIP3    H137454   3.069   6.205   6.941 -1.3580 -0.9065  0.9643
 5273TIP3    H237455   3.202   6.230   7.009 -0.6582  1.8972 -1.2372
 5274TIP3   OH237456   2.977   0.108   7.935  0.2428  0.7007  0.0718
 5274TIP3    H137457   2.898   0.066   7.901 -0.0716  0.9432  0.4906
 5274TIP3    H237458   2.999   0.175   7.870  0.1018  0.6340 -0.0450
 5275TIP3   OH237459   6.441   2.046   6.198 -0.2219 -0.4615  0.6357
 5275TIP3    H137460   6.348   2.052   6.178  0.0838  4.9172 -0.8569
 5275TIP3    H237461   6.485   2.049   6.113  1.3779 -1.5626  1.3524
 5276TIP3   OH237462   1.982   0.570   7.278 -0.1371  0.3299  0.0831
 5276TIP3    H137463   1.965   0.532   7.192 -1.8449  1.1037  0.0453
 5276TIP3    H237464   1.983   0.494   7.337 -1.3621 -0.0019 -0.2937
 5277TIP3   OH237465   0.491   0.955   1.481 -0.3168 -0.0866 -1.1996
 5277TIP3    H137466   0.452   1.034   1.445  0.3252  0.1916 -1.2931
 5277TIP3    H237467   0.512   0.978   1.572 -1.5132 -0.6399 -0.7554
 5278TIP3   OH237468   3.341   4.527   7.307  0.0938 -0.1592 -0.0025
 5278TIP3    H137469   3.415   4.467   7.312  0.2822  0.0878  0.2540
 5278TIP3    H237470   3.302   4.524   7.394  1.0237  1.2239  0.5125
 5279TIP3   OH237471   2.254   0.177   0.307 -0.4929  0.5097 -0.7547
 5279TIP3    H137472   2.209   0.116   0.365  1.0584 -0.0890 -0.1205
 5279TIP3    H237473   2.298   0.238   0.365 -0.2996  0.9399 -1.3447
 5280TIP3   OH237474   2.583   4.126   1.210  0.0726 -0.5654 -0.2877
 5280TIP3    H137475   2.554   4.213   1.182  1.0010  0.0247  0.4975
 5280TIP3    H237476   2.593   4.076   1.129 -0.2541  0.1288 -0.7631
 5281TIP3   OH237477   0.200   3.736   0.234 -0.7782  0.2240 -0.0987
 5281TIP3    H137478   0.202   3.830   0.249 -0.9471  0.2668 -0.3380
 5281TIP3    H237479   0.191   3.727   0.139 -0.3811 -0.0341 -0.1146
 5282TIP3   OH237480   1.739   2.803   1.442 -0.6291 -0.0623  0.1425
 5282TIP3    H137481   1.689   2.754   1.377 -1.6385  1.3595 -0.1972
 5282TIP3    H237482   1.720   2.894   1.423  2.2767  0.5821 -0.1091
 5283TIP3   OH237483   6.600   2.679   0.803 -0.1955 -0.0866 -0.4483
 5283TIP3    H137484   6.545   2.678   0.724 -1.3416 -1.0392  0.3256
 5283TIP3    H237485   6.563   2.610   0.858  2.1191 -1.1209 -0.1007
 5284TIP3   OH237486   0.965   0.159   1.724  0.2351 -0.1480 -0.6372
 5284TIP3    H137487   0.922   0.106   1.791 -2.3509  1.9492 -0.4940
 5284TIP3    H237488   0.906   0.156   1.649 -0.8197  3.4859 -0.1482
 5285TIP3   OH237489   0.255   4.464   2.255  0.1128  0.3822  0.2011
 5285TIP3    H137490   0.225   4.410   2.182  1.4286 -1.6820  1.1182
 5285TIP3    H237491   0.327   4.515   2.219  0.5431 -0.3839 -0.0346
 5286TIP3   OH237492   3.397   3.168   7.622  0.1170 -0.5449  0.1823
 5286TIP3    H137493   3.464   3.199   7.562 -0.7444  1.2598  0.1053
 5286TIP3    H237494   3.316   3.168   7.570 -0.2030 -1.4301  0.6436
 5287TIP3   OH237495   0.814   6.962   0.211  0.3171  0.4850  0.2607
 5287TIP3    H137496   0.778   6.949   0.299 -1.3966  1.3527 -0.2633
 5287TIP3    H237497   0.854   7.049   0.214 -1.1528  1.2220 -0.1984
 5288TIP3   OH237498   1.393   3.292   7.882  0.2168 -0.4508  0.2502
 5288TIP3    H137499   1.308   3.310   7.842  1.1250  3.2385 -0.4066
 5288TIP3    H237500   1.440   3.240   7.816 -0.9201 -1.0116 -0.1372
 5289TIP3   OH237501   1.483   1.193   1.301 -0.1739 -0.6621 -0.0288
 5289TIP3    H137502   1.538   1.128   1.345 -0.5934  0.0429  1.6437
 5289TIP3    H237503   1.449   1.247   1.373  0.2780  1.4949 -1.3601
 5290TIP3   OH237504   4.804   5.682   1.438 -0.6480 -0.2524 -0.1843
 5290TIP3    H137505   4.790   5.609   1.499 -0.0757 -0.5216 -0.3767
 5290TIP3    H237506   4.803   5.759   1.494 -1.3053 -0.3922  0.0150
 5291TIP3   OH237507   3.713   0.331   7.318 -0.2541 -0.6732 -0.0875
 5291TIP3    H137508   3.662   0.250   7.326  0.2059 -0.8458  1.5207
 5291TIP3    H237509   3.801   0.306   7.349  0.0083  0.3315 -0.0004
 5292TIP3   OH237510   3.019   2.383   0.424 -0.1946 -0.1815 -0.0668
 5292TIP3    H137511   3.020   2.371   0.519  0.9203 -0.1614 -0.0538
 5292TIP3    H237512   3.094   2.441   0.407  0.0471 -0.7549 -1.0208
 5293TIP3   OH237513   5.839   2.616   7.096 -0.0335  0.2502 -0.1114
 5293TIP3    H137514   5.915   2.606   7.038  0.4594  0.7835  0.4275
 5293TIP3    H237515   5.876   2.647   7.179 -0.8877  1.0007  0.0077
 5294TIP3   OH237516   1.527   2.582   1.927  0.1694  0.8815 -0.6421
 5294TIP3    H137517   1.619   2.607   1.927 -0.3488  2.9846 -0.1266
 5294TIP3    H237518   1.528   2.486   1.923  2.3980  0.7833  0.7658
 5295TIP3   OH237519   4.944   6.770   8.019 -0.4452 -0.5274 -0.3644
 5295TIP3    H137520   4.968   6.836   8.084  0.6108 -2.6110  1.5050
 5295TIP3    H237521   4.998   6.790   7.943  0.1277  0.5250  0.2951
 5296TIP3   OH237522   5.885   3.898   6.547 -0.1849 -0.1442  0.4623
 5296TIP3    H137523   5.904   3.824   6.605  0.9432 -0.3243 -0.1158
 5296TIP3    H237524   5.948   3.890   6.476  0.1896  1.5841  0.5674
 5297TIP3   OH237525   4.832   3.590   1.062  0.7331  0.6865  0.4540
 5297TIP3    H137526   4.740   3.614   1.052  0.8255  0.8864  0.0254
 5297TIP3    H237527   4.854   3.613   1.152  0.4302  0.8694  0.4828
 5298TIP3   OH237528   3.672   5.574   1.507 -0.2573 -0.0484 -0.0792
 5298TIP3    H137529   3.746   5.609   1.557  0.3093  1.5283 -1.8832
 5298TIP3    H237530   3.667   5.482   1.531  1.4859  0.1133  1.0436
 5299TIP3   OH237531   6.570   4.720   8.049  0.6725  0.3476  0.3639
 5299TIP3    H137532   6.649   4.668   8.061  0.5065 -0.7884 -2.6448
 5299TIP3    H237533   6.588   4.775   7.972 -0.5967  1.9218  1.1066
 5300TIP3   OH237534   6.912   4.915   6.867 -0.3149  0.2860  0.2196
 5300TIP3    H137535   6.853   4.870   6.928 -1.2212  0.5332 -0.4574
 5300TIP3    H237536   6.986   4.854   6.856 -0.5279 -0.1119  0.9202
 5301TIP3   OH237537   6.349   1.997   0.774  0.1294 -0.6083  0.1468
 5301TIP3    H137538   6.437   1.985   0.737 -0.2723  0.5445 -1.2925
 5301TIP3    H237539   6.290   1.966   0.705 -0.6188 -1.9249  1.3259
 5302TIP3   OH237540   6.079   6.814   2.214  0.5018 -0.5974  0.6064
 5302TIP3    H137541   6.022   6.743   2.187  0.1945  0.2504 -1.1165
 5302TIP3    H237542   6.161   6.799   2.167 -0.1098  1.0242 -1.0968
 5303TIP3   OH237543   6.055   0.932   7.371  0.7161  0.0093 -0.5556
 5303TIP3    H137544   5.993   0.993   7.331  0.9134  0.6531  0.1049
 5303TIP3    H237545   6.103   0.985   7.435  0.1598 -1.0948  0.7941
 5304TIP3   OH237546   0.256   3.016   8.017 -0.1651 -0.1399 -0.5344
 5304TIP3    H137547   0.291   2.981   8.099 -2.6944 -1.7022  0.0240
 5304TIP3    H237548   0.163   3.032   8.036 -0.4173  1.1737 -2.6018
 5305TIP3   OH237549   3.893   4.603   7.078 -0.4621 -0.1336  0.1349
 5305TIP3    H137550   3.929   4.605   7.167 -0.1516  0.5138 -0.0011
 5305TIP3    H237551   3.953   4.657   7.026  0.4686 -2.0674 -0.9039
 5306TIP3   OH237552   3.419   1.727   7.822  0.1171 -0.7873 -0.8118
 5306TIP3    H137553   3.440   1.818   7.802 -0.8308 -0.3786 -0.0684
 5306TIP3    H237554   3.432   1.680   7.740  0.9608 -0.0448 -1.1109
 5307TIP3   OH237555   5.215   5.778   7.036 -0.0415  0.4435 -0.0669
 5307TIP3    H137556   5.309   5.760   7.038  0.5376  3.1220  2.2474
 5307TIP3    H237557   5.185   5.758   7.124 -1.4328  0.7800 -0.4424
 5308TIP3   OH237558   2.076   1.839   1.228 -0.1068 -0.0159 -0.4609
 5308TIP3    H137559   2.030   1.755   1.229  2.5060 -1.5952 -1.3434
 5308TIP3    H237560   2.157   1.822   1.276 -0.3820  2.6665  1.1732
 5309TIP3   OH237561   1.557   3.499   0.758  0.0806  0.6321  0.0737
 5309TIP3    H137562   1.510   3.451   0.827 -0.2778 -3.0740 -2.4755
 5309TIP3    H237563   1.644   3.460   0.757  0.4085  1.3593 -0.9299
 5310TIP3   OH237564   6.729   6.718   1.302 -0.3903 -0.3668  0.2242
 5310TIP3    H137565   6.730   6.626   1.277 -0.4624 -0.7793  1.6428
 5310TIP3    H237566   6.780   6.721   1.383  0.6051  1.0448 -0.3969
 5311TIP3   OH237567   0.531   1.615   5.527 -0.0046  0.3579  0.5010
 5311TIP3    H137568   0.532   1.674   5.602 -1.0341 -1.0575  1.6959
 5311TIP3    H237569   0.485   1.537   5.558  1.6325 -1.2658 -0.8649
 5312TIP3   OH237570   0.676   6.926   0.447  0.5010  0.7304  0.2432
 5312TIP3    H137571   0.713   6.965   0.526 -0.1690  1.4403  0.2122
 5312TIP3    H237572   0.584   6.952   0.448  0.4676  0.6817 -0.7300
 5313TIP3   OH237573   0.096   4.687   7.092 -0.3307  0.5806 -0.0676
 5313TIP3    H137574   0.120   4.594   7.094  0.6622  0.8231  0.1017
 5313TIP3    H237575   0.007   4.689   7.127  0.1873 -0.1608  1.4073
 5314TIP3   OH237576   1.242   6.893   6.060  0.4428 -0.5249  0.6612
 5314TIP3    H137577   1.296   6.968   6.086 -1.1791  1.0161 -0.1298
 5314TIP3    H237578   1.238   6.900   5.964 -3.5514  1.3598  0.7676
 5315TIP3   OH237579   7.015   2.650   2.108 -0.1337  0.3538 -0.6663
 5315TIP3    H137580   7.084   2.640   2.173 -0.6050  1.9969  0.1428
 5315TIP3    H237581   7.057   2.630   2.024  1.5876  2.1595 -0.3141
 5316TIP3   OH237582   1.198   1.718   0.873 -0.4461  0.0024  0.0849
 5316TIP3    H137583   1.188   1.624   0.892 -0.1716  0.3273  2.0445
 5316TIP3    H237584   1.167   1.762   0.952 -0.6368  1.5830 -0.8339
 5317TIP3   OH237585   5.175   0.994   0.343  0.1004  0.5739  0.1270
 5317TIP3    H137586   5.174   0.919   0.402  0.5636  0.1023 -0.4504
 5317TIP3    H237587   5.233   1.058   0.385 -0.2998  0.6133  0.6221
 5318TIP3   OH237588   5.181   5.314   7.874  0.1406 -0.2087 -0.4532
 5318TIP3    H137589   5.143   5.343   7.957  0.5638 -1.1283  0.0762
 5318TIP3    H237590   5.165   5.220   7.872  0.2762 -0.2210 -1.3485
 5319TIP3   OH237591   6.869   2.011   7.583 -0.2269 -0.1720 -0.4347
 5319TIP3    H137592   6.806   2.080   7.603  0.8211  1.3830 -2.1426
 5319TIP3    H237593   6.825   1.929   7.608 -2.8014  0.8599 -1.3097
 5320TIP3   OH237594   3.245   4.829   5.993 -0.0619 -0.0937 -0.2983
 5320TIP3    H137595   3.240   4.750   6.047 -0.9212 -0.6081 -1.1028
 5320TIP3    H237596   3.154   4.850   5.972  0.1487  1.1322 -0.0802
 5321TIP3   OH237597   5.070   1.775   7.155  0.0899 -0.6148  0.1824
 5321TIP3    H137598   5.050   1.731   7.073  0.6165 -0.9814  0.2388
 5321TIP3    H237599   5.120   1.852   7.130 -0.6608 -0.1518  0.0953
 5322TIP3   OH237600   2.462   4.098   1.460  0.3939 -0.2428 -0.3480
 5322TIP3    H137601   2.492   4.112   1.370  0.5249  1.7395 -0.0497
 5322TIP3    H237602   2.398   4.028   1.454  0.0178  0.2142 -2.0801
 5323TIP3   OH237603   4.203   2.047   8.034 -0.0767 -0.0414  0.8054
 5323TIP3    H137604   4.261   2.001   8.094  1.3162 -0.0152 -0.4878
 5323TIP3    H237605   4.194   1.989   7.959 -0.8069  0.4614  0.4913
 5324TIP3   OH237606   5.937   5.461   0.448 -0.1107  0.1862  0.3439
 5324TIP3    H137607   6.016   5.420   0.415  0.4582  0.1427  1.7127
 5324TIP3    H237608   5.876   5.389   0.462  1.4690 -0.5630  4.3996
 5325TIP3   OH237609   2.855   2.111   6.917 -0.1135 -1.1251 -0.7366
 5325TIP3    H137610   2.895   2.076   6.837  2.5348  0.1498 -0.0965
 5325TIP3    H237611   2.869   2.205   6.911 -0.5867 -0.9268  0.8446
 5326TIP3   OH237612   6.192   3.032   1.714 -0.5620 -0.0505 -0.0949
 5326TIP3    H137613   6.239   3.022   1.798  0.0830 -0.0938 -0.4524
 5326TIP3    H237614   6.139   3.110   1.725 -0.3174  0.0657  0.2873
 5327TIP3   OH237615   4.498   5.643   7.336 -0.6885  0.4596 -0.0794
 5327TIP3    H137616   4.484   5.714   7.274  0.1125 -0.2659 -1.1434
 5327TIP3    H237617   4.418   5.591   7.332 -0.6383  0.4139 -0.5344
 5328TIP3   OH237618   0.544   3.657   6.948  0.1001 -0.3676 -0.5288
 5328TIP3    H137619   0.615   3.628   6.891  0.6731  0.1822 -0.1142
 5328TIP3    H237620   0.488   3.580   6.957  0.5718 -0.7749 -0.9771
 5329TIP3   OH237621   3.100   0.509   0.065 -0.0978  0.0096 -0.1667
 5329TIP3    H137622   3.117   0.485  -0.026 -3.0077  0.5295 -0.9460
 5329TIP3    H237623   3.085   0.426   0.110 -3.4216 -0.1917 -1.3493
 5330TIP3   OH237624   1.209   0.798   6.809 -0.3646 -0.8843 -0.1362
 5330TIP3    H137625   1.156   0.723   6.835 -0.1418 -0.6230  1.1052
 5330TIP3    H237626   1.239   0.836   6.891 -0.3112  0.4499 -0.7536
 5331TIP3   OH237627   1.103   6.209   6.100  0.0683  0.2233 -0.3000
 5331TIP3    H137628   1.088   6.225   6.193 -1.7800 -0.8827 -0.3575
 5331TIP3    H237629   1.069   6.288   6.057  1.0180  0.7800 -0.0479
 5332TIP3   OH237630   4.518   1.335   1.747  0.0893  0.4677 -0.1217
 5332TIP3    H137631   4.456   1.295   1.686 -0.9715  3.4853 -1.2042
 5332TIP3    H237632   4.463   1.376   1.814  1.1059  0.1403  0.9416
 5333TIP3   OH237633   0.289   2.682   6.289 -0.4697  0.8698 -0.2081
 5333TIP3    H137634   0.295   2.637   6.205 -2.0969 -1.4352  0.8064
 5333TIP3    H237635   0.347   2.758   6.280  2.8785 -1.6247 -1.9238
 5334TIP3   OH237636   6.641   2.535   2.324  0.5175 -0.3799  0.1351
 5334TIP3    H137637   6.627   2.482   2.245  0.5000 -0.2328  0.0380
 5334TIP3    H237638   6.555   2.539   2.366 -0.1292  1.7005 -1.1999
 5335TIP3   OH237639   2.384   7.063   5.986  0.1399  0.7679 -0.3749
 5335TIP3    H137640   2.450   7.129   5.966 -0.6216  0.8427 -3.0140
 5335TIP3    H237641   2.433   6.991   6.026  1.2032  2.2817  1.1234
 5336TIP3   OH237642   0.938   3.762   1.869  0.0312  0.0302  0.1877
 5336TIP3    H137643   1.025   3.792   1.840  1.0017  1.0761  3.6375
 5336TIP3    H237644   0.951   3.670   1.889  0.3260  0.1528  0.5780
 5337TIP3   OH237645   5.459   1.998   7.724  0.2775 -0.2334  0.2683
 5337TIP3    H137646   5.499   1.937   7.785  1.5485 -2.2377 -2.4103
 5337TIP3    H237647   5.500   2.082   7.744  1.1373 -0.9557  1.6904
 5338TIP3   OH237648   3.238   4.467   7.046  0.0486 -0.0307 -0.0740
 5338TIP3    H137649   3.250   4.505   7.134  0.2551 -0.7809  0.2286
 5338TIP3    H237650   3.192   4.385   7.062  0.9077 -0.6186 -0.5824
 5339TIP3   OH237651   6.815   7.100   6.852  0.6413 -0.1648  0.0088
 5339TIP3    H137652   6.851   7.014   6.872  1.5639  0.5525  1.5541
 5339TIP3    H237653   6.862   7.160   6.909 -1.9494  1.0206  1.0309
 5340TIP3   OH237654   7.072   4.188   7.016 -0.6003  0.1248 -0.2404
 5340TIP3    H137655   6.991   4.173   7.066 -0.7310  1.1728 -0.1204
 5340TIP3    H237656   7.110   4.266   7.056 -0.7653  1.0622 -1.8661
 5341TIP3   OH237657   1.675   1.416   7.328 -0.3852  0.2777  0.5428
 5341TIP3    H137658   1.752   1.418   7.385 -0.3150  0.6387  0.4406
 5341TIP3    H237659   1.623   1.492   7.356  0.7630  1.8859 -1.3810
 5342TIP3   OH237660   3.663   3.806   6.934 -0.4154  0.1893 -0.3535
 5342TIP3    H137661   3.568   3.816   6.939 -0.7453 -2.3372 -0.1741
 5342TIP3    H237662   3.679   3.765   6.849  0.4392 -0.0413 -0.0933
 5343TIP3   OH237663   2.586   0.320   6.752  0.1391 -0.3069 -0.7775
 5343TIP3    H137664   2.491   0.310   6.755 -0.0180  0.5801 -1.9036
 5343TIP3    H237665   2.619   0.232   6.733 -0.5294 -0.4564 -1.2888
 5344TIP3   OH237666   0.945   4.526   7.377 -0.2583  0.0854  0.5045
 5344TIP3    H137667   0.867   4.566   7.415  0.6536  1.0777  1.4162
 5344TIP3    H237668   1.003   4.600   7.359  0.8182 -0.7043  0.6635
 5345TIP3   OH237669   2.819   4.397   2.346 -0.5731 -0.1332 -0.1590
 5345TIP3    H137670   2.904   4.374   2.308  0.2972 -0.0989  1.6647
 5345TIP3    H237671   2.784   4.465   2.288 -0.0663 -1.1815 -1.7805
 5346TIP3   OH237672   1.128   5.096   0.827 -0.7488 -0.1924 -0.6325
 5346TIP3    H137673   1.099   5.010   0.796 -1.5647 -0.4348  0.6965
 5346TIP3    H237674   1.221   5.085   0.844 -0.4799 -0.2994 -2.0807
 5347TIP3   OH237675   5.544   1.665   0.804 -0.0993  0.3055  0.0357
 5347TIP3    H137676   5.505   1.751   0.786  1.7486  1.1878  0.0799
 5347TIP3    H237677   5.637   1.682   0.817  0.1874 -1.6132  0.8729
 5348TIP3   OH237678   2.580   0.975   1.710 -0.2642 -0.1244 -0.3240
 5348TIP3    H137679   2.628   1.057   1.720 -2.0235  1.1215 -1.3237
 5348TIP3    H237680   2.618   0.916   1.774  1.4847  1.2759 -0.0081
 5349TIP3   OH237681   3.706   4.731   1.880 -0.2453  0.3011 -0.7290
 5349TIP3    H137682   3.787   4.690   1.910 -0.8063 -0.4702 -0.2188
 5349TIP3    H237683   3.648   4.658   1.857 -0.6780  0.8431 -1.4246
 5350TIP3   OH237684   2.403   1.561   0.228  0.5179 -0.4849 -0.0245
 5350TIP3    H137685   2.340   1.535   0.296 -0.4265 -0.7146 -0.9575
 5350TIP3    H237686   2.376   1.649   0.203 -0.2365 -1.0699 -1.3218
 5351TIP3   OH237687   3.768   0.709   7.794  0.4485 -0.3317  0.5672
 5351TIP3    H137688   3.793   0.797   7.766  0.5854 -0.0963  1.4191
 5351TIP3    H237689   3.709   0.722   7.867  0.8262 -0.9518  0.9961
 5352TIP3   OH237690   2.153   4.723   1.593  0.6431  0.2883  0.1567
 5352TIP3    H137691   2.062   4.721   1.563  0.3871  0.0999  0.9414
 5352TIP3    H237692   2.158   4.655   1.659  1.0638  1.0488  0.9287
 5353TIP3   OH237693   2.038   0.200   1.292 -0.3342 -0.1440  0.2887
 5353TIP3    H137694   1.995   0.178   1.210  2.0320  0.0388 -1.1032
 5353TIP3    H237695   2.046   0.296   1.290  1.4247 -0.2605 -0.2651
 5354TIP3   OH237696   6.884   1.172   7.507 -0.1212 -0.2142 -0.1528
 5354TIP3    H137697   6.823   1.213   7.446 -0.1395 -0.7746 -0.5159
 5354TIP3    H237698   6.833   1.103   7.549 -0.5902  1.1898  1.6891
 5355TIP3   OH237699   5.590   2.049   7.245  0.0822  0.6610 -0.0568
 5355TIP3    H137700   5.632   2.024   7.328 -1.4436  0.2698  0.6420
 5355TIP3    H237701   5.640   2.124   7.214  2.0930 -0.5711  0.0319
 5356TIP3   OH237702   6.010   4.766   0.988  0.5029  0.0960 -0.7895
 5356TIP3    H137703   6.061   4.806   0.917 -0.2796  0.9686 -0.8788
 5356TIP3    H237704   5.988   4.839   1.046  0.0287 -0.3999 -0.3330
 5357TIP3   OH237705   4.947   5.582   7.791  0.2733  0.3029  0.1181
 5357TIP3    H137706   5.009   5.648   7.819  2.0007 -1.7576  1.4158
 5357TIP3    H237707   4.994   5.530   7.726 -0.1075 -1.1821  0.9753
 5358TIP3   OH237708   2.475   4.507   6.964 -0.3483  0.2715 -0.1106
 5358TIP3    H137709   2.442   4.462   7.043  1.2307  1.1762  1.1198
 5358TIP3    H237710   2.397   4.547   6.926 -1.3026 -0.9613  0.4599
 5359TIP3   OH237711   1.904   6.010   5.659  0.1364 -0.1154 -0.2842
 5359TIP3    H137712   1.809   6.018   5.650  0.2810  1.5572 -0.7021
 5359TIP3    H237713   1.940   6.051   5.580  1.2102 -0.5670 -0.0553
 5360TIP3   OH237714   5.590   1.766   1.697  0.2451  0.1533  0.0982
 5360TIP3    H137715   5.575   1.777   1.791 -1.9623  1.0214 -0.3008
 5360TIP3    H237716   5.577   1.672   1.682  0.5175  0.0243  0.6314
 5361TIP3   OH237717   4.690   3.845   7.016  0.0939 -0.4519 -0.0844
 5361TIP3    H137718   4.685   3.846   6.921 -1.2079 -1.0224 -0.0354
 5361TIP3    H237719   4.777   3.809   7.035  1.8275  2.8368 -1.0313
 5362TIP3   OH237720   5.800   0.973   7.813 -0.3642 -0.3161 -0.5090
 5362TIP3    H137721   5.850   0.918   7.873 -1.8375 -0.3099  0.8043
 5362TIP3    H237722   5.774   0.913   7.743  0.1131 -0.6920 -0.3736
 5363TIP3   OH237723   2.473   6.761   0.765 -0.2077  0.1713  0.3337
 5363TIP3    H137724   2.464   6.850   0.801  0.7450  0.9323 -1.2079
 5363TIP3    H237725   2.444   6.704   0.836 -0.1624  1.6756  1.6289
 5364TIP3   OH237726   1.372   0.293   7.083 -0.0348 -0.3818  0.0133
 5364TIP3    H137727   1.453   0.312   7.037 -0.6470  2.1803 -0.1371
 5364TIP3    H237728   1.378   0.199   7.104  2.5344 -0.4656 -0.7384
 5365TIP3   OH237729   3.157   2.541   6.733 -0.2016 -0.4171 -0.0819
 5365TIP3    H137730   3.115   2.457   6.752  0.5245 -1.2151 -1.8330
 5365TIP3    H237731   3.183   2.535   6.641  0.2399  1.5740 -0.1249
 5366TIP3   OH237732   1.768   0.772   1.136  0.3668 -0.0124  0.3449
 5366TIP3    H137733   1.845   0.781   1.191  0.8099  1.7749 -0.4805
 5366TIP3    H237734   1.762   0.856   1.089  0.0068 -1.3947 -2.2885
 5367TIP3   OH237735   5.680   1.189   0.032  0.1666  0.4199  0.1398
 5367TIP3    H137736   5.609   1.237   0.074 -1.8317 -0.5469 -1.9728
 5367TIP3    H237737   5.729   1.150   0.105 -0.5980  2.2087  1.6946
 5368TIP3   OH237738   5.373   6.352   7.286  0.0060 -0.1099  0.1839
 5368TIP3    H137739   5.444   6.352   7.350  0.7959  1.1784 -0.6539
 5368TIP3    H237740   5.295   6.373   7.338  0.2082 -1.5338  1.1085
 5369TIP3   OH237741   4.184   6.069   6.543  0.1117 -0.0457  0.2157
 5369TIP3    H137742   4.263   6.116   6.514 -0.2264 -0.8741 -2.3522
 5369TIP3    H237743   4.118   6.138   6.554  0.3191  0.3589 -0.9203
 5370TIP3   OH237744   5.963   1.279   7.086 -0.0189  0.2196  0.5064
 5370TIP3    H137745   5.927   1.194   7.062 -1.6644  1.7116 -2.9629
 5370TIP3    H237746   5.886   1.334   7.104  0.9259  1.3662  1.2423
 5371TIP3   OH237747   1.614   6.634   7.689 -0.7121  0.1352 -0.4319
 5371TIP3    H137748   1.569   6.611   7.771 -0.0211 -0.1957 -0.1415
 5371TIP3    H237749   1.571   6.580   7.623 -1.0420  0.1510 -0.2376
 5372TIP3   OH237750   4.647   1.960   1.741  0.0019 -0.2632  0.0777
 5372TIP3    H137751   4.605   1.909   1.810  1.0696 -0.4619  0.6178
 5372TIP3    H237752   4.737   1.972   1.773  0.7616 -1.0563 -1.6388
 5373TIP3   OH237753   2.137   0.055   0.777  0.0802 -0.3369 -0.8568
 5373TIP3    H137754   2.112   0.012   0.859 -1.6520  0.0547 -1.1425
 5373TIP3    H237755   2.183   0.134   0.804  0.2146 -0.6111 -0.2739
 5374TIP3   OH237756   3.912   5.319   0.534  0.2299  0.3890  0.5663
 5374TIP3    H137757   3.905   5.224   0.542  1.8828 -0.0654 -2.2135
 5374TIP3    H237758   3.832   5.345   0.488  0.1691  0.2177  0.5756
 5375TIP3   OH237759   6.024   1.695   0.037 -0.0693  0.7590 -0.3147
 5375TIP3    H137760   6.089   1.637   0.075  1.2049  1.5921 -1.1190
 5375TIP3    H237761   5.972   1.639  -0.021  0.6397  0.2798 -0.4967
 5376TIP3   OH237762   4.928   3.727   7.110 -0.2301 -0.2975 -0.5410
 5376TIP3    H137763   4.889   3.648   7.146 -0.3610  0.7377  1.8185
 5376TIP3    H237764   4.986   3.696   7.040 -2.8182 -2.1232 -2.0287
 5377TIP3   OH237765   0.413   4.872   1.024  0.0294 -0.0507  0.2117
 5377TIP3    H137766   0.424   4.833   1.110  1.4187 -0.2948 -0.0473
 5377TIP3    H237767   0.413   4.967   1.040 -0.8595 -0.1091  0.5852
 5378TIP3   OH237768   1.207   5.231   7.013 -0.0863  0.2777 -0.0252
 5378TIP3    H137769   1.133   5.255   6.957 -0.6072 -0.8576  0.1344
 5378TIP3    H237770   1.284   5.267   6.968 -0.5610 -0.0370 -1.1294
 5379TIP3   OH237771   2.375   4.793   6.595  0.1851  0.0758  0.4168
 5379TIP3    H137772   2.458   4.837   6.575  1.5156 -1.3597  2.4106
 5379TIP3    H237773   2.308   4.847   6.551  2.1245  1.2987 -1.2373
 5380TIP3   OH237774   3.009   2.313   1.208  0.2558 -0.7501 -0.1049
 5380TIP3    H137775   2.964   2.360   1.138  0.0032  0.0919  0.6233
 5380TIP3    H237776   2.965   2.227   1.211 -1.4011  0.0820  0.6645
 5381TIP3   OH237777   4.927   2.291   0.473 -0.0958  0.1907 -0.7658
 5381TIP3    H137778   4.854   2.334   0.517 -1.1621 -2.5713  0.3115
 5381TIP3    H237779   4.997   2.290   0.538  0.3732  1.3377 -1.2255
 5382TIP3   OH237780   1.968   3.554   8.120  0.3464  0.0871  0.5262
 5382TIP3    H137781   2.039   3.588   8.175  0.2975  0.4406  0.3758
 5382TIP3    H237782   1.922   3.633   8.090  0.2584 -0.1122  0.1341
 5383TIP3   OH237783   0.254   3.561   0.823  0.2619  0.4161  0.3301
 5383TIP3    H137784   0.204   3.612   0.887 -0.9448  0.5727 -0.6857
 5383TIP3    H237785   0.187   3.526   0.763  1.3319  0.2495 -0.8137
 5384TIP3   OH237786   0.375   6.334   7.470  0.9508  0.0945  0.5404
 5384TIP3    H137787   0.360   6.314   7.378  0.1679 -0.4741  0.7760
 5384TIP3    H237788   0.341   6.257   7.517  0.6626  0.6924  1.3398
 5385TIP3   OH237789   6.807   2.061   0.189  0.0346 -0.0736  0.3125
 5385TIP3    H137790   6.781   2.021   0.271  0.4510  1.5781  1.2963
 5385TIP3    H237791   6.726   2.064   0.137 -0.5096 -0.0425  1.1391
 5386TIP3   OH237792   5.433   5.048   1.394 -0.5707  0.3739 -0.3974
 5386TIP3    H137793   5.456   4.971   1.445 -0.0580  0.2550 -0.7994
 5386TIP3    H237794   5.382   5.103   1.454 -1.4566 -0.5472 -0.2830
 5387TIP3   OH237795   0.760   3.939   0.873 -0.3067 -0.2228 -0.6873
 5387TIP3    H137796   0.709   4.020   0.884 -1.0208 -0.6104 -1.1063
 5387TIP3    H237797   0.700   3.869   0.898  0.4727 -0.6081  0.1789
 5388TIP3   OH237798   0.176   3.761   1.011 -0.3529  0.2797  0.4476
 5388TIP3    H137799   0.257   3.773   1.062 -0.2380  0.7039  0.1682
 5388TIP3    H237800   0.158   3.847   0.974 -0.3706 -0.0534 -0.3336
 5389TIP3   OH237801   2.291   2.915   0.540  0.1490 -0.5526 -0.3696
 5389TIP3    H137802   2.288   2.842   0.478  0.6458 -0.3329 -0.6620
 5389TIP3    H237803   2.234   2.982   0.503 -1.0018 -1.1139  0.3364
 5390TIP3   OH237804   3.974   4.704   0.368  0.2037 -0.3491 -0.2663
 5390TIP3    H137805   4.049   4.740   0.321  0.0120 -0.7073 -0.8542
 5390TIP3    H237806   3.900   4.758   0.340  0.3519  0.5128  0.9095
 5391TIP3   OH237807   6.030   4.027   0.957  0.1225  0.7295  0.2405
 5391TIP3    H137808   5.972   3.952   0.972 -0.8289  1.0966 -1.3771
 5391TIP3    H237809   6.114   3.989   0.932  0.0106  0.2006  0.6610
 5392TIP3   OH237810   0.456   2.817   5.895  0.4329  0.4305 -0.0214
 5392TIP3    H137811   0.449   2.737   5.844 -0.3230 -0.4675  1.4098
 5392TIP3    H237812   0.441   2.888   5.832 -1.4726 -0.6643 -0.8927
 5393TIP3   OH237813   5.558   2.217   6.998  0.2516 -0.2477  0.0869
 5393TIP3    H137814   5.615   2.282   7.038  0.6849 -0.1361 -0.7062
 5393TIP3    H237815   5.491   2.200   7.065  1.1743 -0.3449  1.0098
 5394TIP3   OH237816   0.125   1.139   0.468 -0.0339 -0.2325  0.3147
 5394TIP3    H137817   0.122   1.233   0.451 -2.6189  0.1195  2.2287
 5394TIP3    H237818   0.142   1.101   0.382  0.7306  1.9266 -0.5781
 5395TIP3   OH237819   4.626   2.578   0.411 -0.4635  0.1478 -0.2701
 5395TIP3    H137820   4.588   2.520   0.346 -2.0813  0.5731  0.2600
 5395TIP3    H237821   4.551   2.616   0.457  0.5890  1.3779  0.5074
 5396TIP3   OH237822   4.182   2.456   0.563 -0.2290  0.1892 -0.3867
 5396TIP3    H137823   4.253   2.500   0.516  1.1043  2.3580  3.2534
 5396TIP3    H237824   4.221   2.374   0.594 -0.6769 -0.5599 -1.6980
 5397TIP3   OH237825   0.419   2.110   1.416 -0.2583 -0.0978  0.0907
 5397TIP3    H137826   0.494   2.069   1.373  0.2678  1.2209 -0.3065
 5397TIP3    H237827   0.441   2.203   1.419 -2.0327  0.3706 -0.3283
 5398TIP3   OH237828   5.368   0.878   0.090 -0.0780  0.3227 -0.0918
 5398TIP3    H137829   5.335   0.962   0.122 -2.0556 -0.1279 -0.7997
 5398TIP3    H237830   5.439   0.855   0.150  0.6797  2.6089 -0.0489
 5399TIP3   OH237831   0.574   3.200   6.368  0.6194 -0.5290 -0.5185
 5399TIP3    H137832   0.492   3.151   6.363  1.3577 -1.8886  0.1393
 5399TIP3    H237833   0.621   3.177   6.288 -0.0863  1.1707 -1.4803
 5400TIP3   OH237834   2.773   3.864   6.670  0.0931 -0.3620  0.0273
 5400TIP3    H137835   2.783   3.949   6.713  0.7633 -0.3645 -0.1126
 5400TIP3    H237836   2.840   3.864   6.601  0.3603 -1.1596  0.2807
 5401TIP3   OH237837   3.836   0.951   7.703 -0.4229  0.0198 -0.2138
 5401TIP3    H137838   3.930   0.958   7.685 -0.6124  1.5439 -0.7869
 5401TIP3    H237839   3.794   0.976   7.621 -1.3964 -3.1934 -0.8344
 5402TIP3   OH237840   4.771   5.467   1.617 -0.5556 -0.1471  0.8198
 5402TIP3    H137841   4.688   5.420   1.630 -0.4062 -0.3113  1.1807
 5402TIP3    H237842   4.800   5.490   1.705  0.3938 -1.1545  0.7946
 5403TIP3   OH237843   6.947   2.266   0.763 -0.7124 -0.5287  0.2573
 5403TIP3    H137844   6.955   2.347   0.815  0.0701 -0.7559  0.5092
 5403TIP3    H237845   6.927   2.198   0.827 -2.2028 -0.4118 -0.0558
 5404TIP3   OH237846   5.299   1.630   1.491  0.4084  0.0414 -0.4033
 5404TIP3    H137847   5.264   1.544   1.513 -1.2016  0.6181 -0.5655
 5404TIP3    H237848   5.305   1.676   1.574 -0.5343  0.3876 -0.5100
 5405TIP3   OH237849   4.228   4.156   0.215 -0.0153 -0.3100  0.0287
 5405TIP3    H137850   4.149   4.189   0.257  0.3474  0.2385  0.2901
 5405TIP3    H237851   4.196   4.106   0.140 -0.6945 -1.8623  1.3136
 5406TIP3   OH237852   0.308   2.561   8.056  0.0647 -0.1037 -1.0702
 5406TIP3    H137853   0.380   2.573   8.118  1.1694  2.0897 -2.6454
 5406TIP3    H237854   0.349   2.521   7.979 -0.6323  0.0685 -1.5430
 5407TIP3   OH237855   6.843   6.462   0.731  0.3779 -0.2754 -0.4769
 5407TIP3    H137856   6.838   6.520   0.808 -0.5851 -0.0963 -0.6604
 5407TIP3    H237857   6.907   6.503   0.674  0.1479  0.2951 -0.3350
 5408TIP3   OH237858   4.116   2.094   0.955  0.5918 -0.4709  0.3074
 5408TIP3    H137859   4.134   2.069   1.046 -0.7013 -1.4210  0.3440
 5408TIP3    H237860   4.042   2.038   0.930 -0.8057  1.6034 -0.4686
 5409TIP3   OH237861   5.904   6.348   6.983  0.4645 -0.2566 -0.3713
 5409TIP3    H137862   5.985   6.336   6.934  0.2820  0.3930 -0.8421
 5409TIP3    H237863   5.892   6.443   6.987 -0.0152 -0.3331  0.1180
 5410TIP3   OH237864   4.507   5.004   7.064  0.4647  0.0520  0.3088
 5410TIP3    H137865   4.415   5.012   7.040  0.5182  0.2481  0.1653
 5410TIP3    H237866   4.511   5.028   7.157  0.5363  1.1529  0.0357
 5411TIP3   OH237867   2.063   0.719   0.360 -0.3911 -0.3434 -0.3295
 5411TIP3    H137868   2.112   0.683   0.435  1.8225 -0.3323 -1.6765
 5411TIP3    H237869   2.130   0.760   0.306 -2.2840  2.0530 -1.0226
 5412TIP3   OH237870   2.435   6.185   0.886 -0.0997 -0.0818 -0.2546
 5412TIP3    H137871   2.423   6.169   0.792 -1.7292 -0.2594 -0.0574
 5412TIP3    H237872   2.474   6.272   0.891  0.2331 -0.1749 -1.1074
 5413TIP3   OH237873   1.410   4.041   7.361 -0.3532  0.5093  0.1661
 5413TIP3    H137874   1.376   4.130   7.370 -0.7105  0.4228 -0.3284
 5413TIP3    H237875   1.457   4.025   7.444 -1.5958  0.5841  0.9073
 5414TIP3   OH237876   5.123   5.097   6.357  0.2853  0.1789  0.4658
 5414TIP3    H137877   5.156   5.172   6.406 -1.3851  0.0278  1.8909
 5414TIP3    H237878   5.103   5.132   6.270 -2.1226  1.8700  1.6052
 5415TIP3   OH237879   2.497   5.738   6.317  0.0665  0.4257 -0.3284
 5415TIP3    H137880   2.542   5.662   6.281  0.7328  1.2144 -1.2228
 5415TIP3    H237881   2.408   5.732   6.282  0.7573  1.3057 -2.4412
 5416TIP3   OH237882   0.009   2.350   0.429  0.7709 -0.7175 -0.1346
 5416TIP3    H137883  -0.035   2.430   0.398  1.0929 -0.0461  1.0761
 5416TIP3    H237884   0.024   2.299   0.349 -0.1825  0.0507 -0.8367
 5417TIP3   OH237885   1.737   4.270   7.334 -0.7106 -0.4954  0.0749
 5417TIP3    H137886   1.652   4.278   7.376  0.6345  1.2176  2.7304
 5417TIP3    H237887   1.800   4.272   7.406  1.6338 -0.7443 -1.8365
 5418TIP3   OH237888   3.619   2.165   2.002  0.3669 -0.3088  0.6702
 5418TIP3    H137889   3.668   2.227   2.056  0.6337  0.0806 -0.0186
 5418TIP3    H237890   3.673   2.086   2.000 -0.3396 -0.8839  2.2142
 5419TIP3   OH237891   5.274   3.539   0.931  0.4262 -0.0043  0.1970
 5419TIP3    H137892   5.239   3.453   0.909  0.8572 -1.1332  3.3107
 5419TIP3    H237893   5.199   3.599   0.920 -0.4931 -1.1452  0.0143
 5420TIP3   OH237894   5.875   5.595   5.938 -0.1791 -0.1424  0.2491
 5420TIP3    H137895   5.838   5.679   5.963  2.7368  0.7046  2.2660
 5420TIP3    H237896   5.944   5.617   5.875  0.5575 -1.0244  0.7287
 5421TIP3   OH237897   5.979   2.975   7.952  0.2204 -0.4051  0.0922
 5421TIP3    H137898   5.906   2.991   8.011 -0.2238 -1.2812 -0.2003
 5421TIP3    H237899   5.939   2.944   7.871  0.7392  1.9898 -1.1560
 5422TIP3   OH237900   5.540   5.709   7.381 -0.3302 -0.8918 -0.1106
 5422TIP3    H137901   5.486   5.777   7.338  0.8774 -0.5562 -1.1684
 5422TIP3    H237902   5.581   5.663   7.308  0.6516 -1.2657  0.6676
 5423TIP3   OH237903   4.699   1.203   8.073  0.0173 -0.0761  0.0440
 5423TIP3    H137904   4.787   1.188   8.107  0.0629 -0.8927 -0.4063
 5423TIP3    H237905   4.712   1.220   7.979 -0.4477 -2.6078 -0.5721
 5424TIP3   OH237906   3.833   0.009   6.388  0.4173  0.0020 -0.4398
 5424TIP3    H137907   3.780   0.009   6.309  0.4213 -0.2348 -0.4432
 5424TIP3    H237908   3.865  -0.081   6.396  0.1524 -0.0585  0.0086
 5425TIP3   OH237909   1.006   1.184   2.141 -0.5740 -0.7165  0.4049
 5425TIP3    H137910   1.009   1.142   2.055  0.5669  0.3170 -0.0859
 5425TIP3    H237911   1.064   1.260   2.133 -2.9896  1.3361  1.0832
 5426TIP3   OH237912   6.976   4.364   6.791  0.5957  0.2584 -0.3073
 5426TIP3    H137913   7.004   4.360   6.699 -0.2078  2.8494 -0.7266
 5426TIP3    H237914   7.047   4.321   6.838 -0.0527 -3.3436 -2.2468
 5427TIP3   OH237915   0.437   3.409   6.987 -0.1398 -0.8231 -0.4198
 5427TIP3    H137916   0.355   3.360   6.988 -1.5134  1.3671  0.3861
 5427TIP3    H237917   0.499   3.354   7.034 -1.1943 -2.3944 -0.7977
 5428TIP3   OH237918   2.956   3.450   6.724 -0.1012 -0.1282 -0.0018
 5428TIP3    H137919   2.891   3.437   6.794  1.2212  0.3528  1.3747
 5428TIP3    H237920   3.031   3.398   6.751 -0.0209 -0.9933 -1.7744
 5429TIP3   OH237921   5.075   4.388   0.221 -0.5682  0.2964  0.5727
 5429TIP3    H137922   5.012   4.370   0.151  0.3241  0.3683 -0.2729
 5429TIP3    H237923   5.054   4.324   0.289  1.0399 -2.5688 -1.3770
 5430TIP3   OH237924   4.101   6.578   8.078  1.0073 -0.0203  0.3273
 5430TIP3    H137925   4.055   6.571   8.162  0.9231  0.1337  0.2938
 5430TIP3    H237926   4.116   6.487   8.051  0.5323 -0.0704  0.2306
 5431TIP3   OH237927   5.284   4.139   7.553 -0.2610  0.1486 -0.5403
 5431TIP3    H137928   5.293   4.083   7.630  0.2990 -1.6352 -1.8219
 5431TIP3    H237929   5.308   4.227   7.584 -0.3981 -0.4450  1.3695
 5432TIP3   OH237930   4.072   1.327   0.773  0.1224 -0.3069 -0.0345
 5432TIP3    H137931   4.098   1.337   0.682  2.1852 -1.8822  0.3090
 5432TIP3    H237932   3.989   1.278   0.770  0.2779 -0.5193 -1.0520
 5433TIP3   OH237933   4.300   5.724   0.891  0.1436  0.3278 -0.6440
 5433TIP3    H137934   4.298   5.817   0.868  0.8626  0.6301  0.4488
 5433TIP3    H237935   4.304   5.723   0.986  1.4198 -0.8098 -0.6846
 5434TIP3   OH237936   1.276   0.673   8.007  0.2565  0.2972 -0.8777
 5434TIP3    H137937   1.291   0.599   7.948  0.1537 -0.1591 -0.3321
 5434TIP3    H237938   1.309   0.749   7.958 -0.4815  0.0364 -1.8244
 5435TIP3   OH237939   2.245   3.947   7.688  0.1322  0.1163  0.0066
 5435TIP3    H137940   2.151   3.944   7.705  0.2361  0.5066  0.6645
 5435TIP3    H237941   2.259   4.030   7.643  0.2873  0.5028  0.7471
 5436TIP3   OH237942   0.466   3.730   7.594 -0.7317 -0.6612  0.1910
 5436TIP3    H137943   0.421   3.704   7.674 -0.9038 -1.6506 -0.2039
 5436TIP3    H237944   0.532   3.662   7.581  0.6348  0.5602  0.5481
 5437TIP3   OH237945   2.708   6.836   7.901  0.3346 -0.2687 -0.2405
 5437TIP3    H137946   2.631   6.788   7.933  0.2750  0.1952  0.3184
 5437TIP3    H237947   2.680   6.927   7.899  0.8315 -0.1133 -0.1754
 5438TIP3   OH237948   3.272   4.587   1.997  0.3916  0.2637 -0.0125
 5438TIP3    H137949   3.231   4.591   2.084 -0.5956 -2.6483 -0.2473
 5438TIP3    H237950   3.201   4.610   1.936  0.3540 -0.3010 -0.1824
 5439TIP3   OH237951   2.808   4.773   6.969 -0.5891  0.0961 -0.6030
 5439TIP3    H137952   2.863   4.834   6.919 -2.2151  2.7089  0.5799
 5439TIP3    H237953   2.720   4.811   6.965 -1.3280 -1.1265  1.8351
 5440TIP3   OH237954   3.264   5.146   1.196  0.1838  0.2896  0.1487
 5440TIP3    H137955   3.226   5.222   1.151 -0.3950  0.8522  1.5246
 5440TIP3    H237956   3.344   5.180   1.236 -0.1925  0.2589  0.9593
 5441TIP3   OH237957   3.969   0.559   6.792 -0.2683 -0.0831 -0.0594
 5441TIP3    H137958   4.026   0.586   6.720 -0.4776  0.2642 -0.0990
 5441TIP3    H237959   4.004   0.605   6.869 -0.1248 -0.3493  0.0348
 5442TIP3   OH237960   6.442   4.669   0.880  0.2734  0.1307  0.1125
 5442TIP3    H137961   6.498   4.607   0.927 -0.5206  0.5940  1.7414
 5442TIP3    H237962   6.434   4.632   0.793 -0.2490 -2.1244  1.0481
 5443TIP3   OH237963   6.019   5.228   0.887 -0.3440  0.4082  0.0350
 5443TIP3    H137964   5.959   5.302   0.874 -2.6323 -1.5307 -1.2598
 5443TIP3    H237965   5.962   5.154   0.904  1.4089 -2.0687 -3.5616
 5444TIP3   OH237966   0.207   5.643   0.347  0.1588  0.7198 -0.7361
 5444TIP3    H137967   0.223   5.648   0.441  0.1159 -0.3730 -0.6664
 5444TIP3    H237968   0.136   5.707   0.332  0.3348  1.0787 -0.0774
 5445TIP3   OH237969   4.132   4.645   2.263  0.5391 -0.4795 -1.0922
 5445TIP3    H137970   4.131   4.658   2.168  0.3140  1.0729 -0.8926
 5445TIP3    H237971   4.225   4.640   2.286  0.6013 -0.4542 -1.3429
 5446TIP3   OH237972   1.238   6.697   0.907 -0.4316 -0.8625 -0.1378
 5446TIP3    H137973   1.331   6.676   0.903  0.0705  1.1868 -0.5629
 5446TIP3    H237974   1.235   6.784   0.946 -2.0936 -0.4485 -1.0943
 5447TIP3   OH237975   4.895   5.372   0.454  0.3010 -0.4411 -0.0905
 5447TIP3    H137976   4.871   5.344   0.366  0.2503 -1.2564  0.1687
 5447TIP3    H237977   4.990   5.381   0.452  0.2602 -0.0604 -0.3360
 5448TIP3   OH237978   1.001   6.402   7.191  0.4221 -0.1550  0.2404
 5448TIP3    H137979   0.906   6.411   7.186  0.2828 -1.1820  0.8679
 5448TIP3    H237980   1.030   6.482   7.235 -0.1667  0.0938  0.1818
 5449TIP3   OH237981   1.098   7.103   6.341 -0.4334  0.0321 -0.3453
 5449TIP3    H137982   1.114   7.032   6.404 -1.8832  1.0622  1.2672
 5449TIP3    H237983   1.004   7.103   6.328 -0.3430  0.9992 -1.1458
 5450TIP3   OH237984   2.460   1.319   6.761  0.2627 -0.0455 -0.0499
 5450TIP3    H137985   2.391   1.348   6.701 -0.4188 -3.0388 -0.8801
 5450TIP3    H237986   2.446   1.225   6.770  2.5833 -0.2968  1.9888
 5451TIP3   OH237987   4.238   2.972   0.460  0.0716 -0.0560  0.0806
 5451TIP3    H137988   4.209   3.024   0.536 -1.6907  0.0372 -0.5906
 5451TIP3    H237989   4.159   2.965   0.406  1.1758 -0.5028 -1.5281
 5452TIP3   OH237990   6.621   3.306   7.815  0.0608  0.0918  0.3507
 5452TIP3    H137991   6.708   3.285   7.848 -0.6477 -2.3818  0.8877
 5452TIP3    H237992   6.581   3.220   7.797 -1.4813  1.1779 -1.9897
 5453TIP3   OH237993   5.489   3.971   7.446 -0.1369 -0.4832  0.5171
 5453TIP3    H137994   5.571   4.017   7.427 -0.9533  1.2178  0.8907
 5453TIP3    H237995   5.428   4.040   7.471 -1.6528 -1.7203  0.4095
 5454TIP3   OH237996   0.824   3.475   1.562 -0.3823  0.6731 -0.5267
 5454TIP3    H137997   0.852   3.399   1.511 -0.8423  0.5205 -0.5600
 5454TIP3    H237998   0.797   3.439   1.646  0.4642  0.9345 -0.1332
 5455TIP3   OH237999   0.718   3.712   1.708 -0.1461 -1.0106 -0.0121
 5455TIP3    H138000   0.792   3.739   1.763  1.0528 -0.2727 -1.8846
 5455TIP3    H238001   0.740   3.623   1.680  0.3220 -0.6060 -0.9802
 5456TIP3   OH238002   3.781   2.438   0.726  0.0569 -0.0334  0.5881
 5456TIP3    H138003   3.807   2.506   0.664  2.5319 -0.0800  1.4506
 5456TIP3    H238004   3.860   2.421   0.778 -1.2035 -1.7663  2.0945
 5457TIP3   OH238005   1.457   6.061   7.176 -0.7010  0.5034  0.2856
 5457TIP3    H138006   1.402   6.032   7.103 -0.8893  2.1857 -0.2723
 5457TIP3    H238007   1.409   6.133   7.215  1.0063  1.9281 -0.1152
 5458TIP3   OH238008   1.288   5.758   6.912  0.3520 -0.3907 -0.4347
 5458TIP3    H138009   1.234   5.724   6.841 -0.4603 -0.6200  0.2689
 5458TIP3    H238010   1.264   5.704   6.988  1.8801 -0.7796 -0.1893
 5459TIP3   OH238011   5.459   4.780   8.004  0.5482  0.7323 -0.2172
 5459TIP3    H138012   5.487   4.707   8.059  0.9472 -1.0165 -2.5924
 5459TIP3    H238013   5.466   4.857   8.061  0.1947 -1.0269  2.3610
 5460TIP3   OH238014   5.515   2.206   1.635 -0.1068  0.8359  0.3212
 5460TIP3    H138015   5.564   2.269   1.584  0.7263 -0.9685 -1.2312
 5460TIP3    H238016   5.546   2.218   1.725  2.2298  0.6611 -0.4052
 5461TIP3   OH238017   7.086   5.808   1.825 -0.4247 -0.7825  0.0563
 5461TIP3    H138018   7.007   5.755   1.836  0.4122 -2.7885 -2.4676
 5461TIP3    H238019   7.158   5.745   1.837  0.7343  0.5529  0.3183
 5462TIP3   OH238020   3.061   3.971   1.377  0.3696 -0.0434 -0.5636
 5462TIP3    H138021   3.113   3.996   1.301  1.5390  0.8975  0.4913
 5462TIP3    H238022   3.119   3.912   1.426  0.0145  0.1432  0.0840
 5463TIP3   OH238023   3.089   6.881   6.093 -0.6360 -0.2657  0.6122
 5463TIP3    H138024   3.122   6.804   6.139 -2.4436  0.0532  2.5626
 5463TIP3    H238025   2.997   6.861   6.075 -0.1196 -0.2480 -2.7329
 5464TIP3   OH238026   6.135   1.318   7.943 -0.1076  0.0768 -0.2876
 5464TIP3    H138027   6.194   1.335   7.870 -0.5015 -0.7459 -0.8028
 5464TIP3    H238028   6.165   1.236   7.981  0.1657  0.5527  0.5638
 5465TIP3   OH238029   1.584   6.726   6.877 -0.3005  0.1693 -0.1044
 5465TIP3    H138030   1.562   6.773   6.957 -0.9908  0.7186 -0.6023
 5465TIP3    H238031   1.548   6.780   6.806  0.1809 -0.3699 -0.7772
 5466TIP3   OH238032   3.507   6.972   7.898 -0.0121  0.0681 -0.3729
 5466TIP3    H138033   3.478   6.882   7.884 -2.2150  0.8713 -1.4557
 5466TIP3    H238034   3.582   6.964   7.957  0.2083 -2.4924 -0.8731
 5467TIP3   OH238035   5.172   4.734   0.058  0.1935  0.3137  0.5223
 5467TIP3    H138036   5.135   4.823   0.061 -0.1308  0.2112 -0.1875
 5467TIP3    H238037   5.262   4.745   0.088  0.6618  1.1743 -1.0678
 5468TIP3   OH238038   0.728   4.350   7.586 -0.2864 -0.2385 -0.0756
 5468TIP3    H138039   0.818   4.317   7.591 -0.0421  0.2013 -1.2469
 5468TIP3    H238040   0.733   4.439   7.621  0.2105  0.6073 -2.1464
 5469TIP3   OH238041   5.150   0.376   6.608 -0.1964 -0.2413  0.4240
 5469TIP3    H138042   5.232   0.346   6.569  0.5022  1.6527  0.3245
 5469TIP3    H238043   5.087   0.378   6.536  0.5352  1.2526 -0.2207
 5470TIP3   OH238044   6.673   6.862   1.046  0.0127 -0.1161 -0.5545
 5470TIP3    H138045   6.712   6.793   1.099 -2.3888 -2.4909 -1.6312
 5470TIP3    H238046   6.658   6.934   1.107 -1.1708 -2.1179  1.6801
 5471TIP3   OH238047   2.348   1.489   0.704  0.2102 -0.0029  0.3432
 5471TIP3    H138048   2.420   1.483   0.641 -0.3566  0.0678 -0.3293
 5471TIP3    H238049   2.345   1.581   0.728  2.1778 -0.4280  2.6104
 5472TIP3   OH238050   1.865   5.479   6.477 -0.1500 -1.0671  0.4091
 5472TIP3    H138051   1.932   5.546   6.494  0.6156 -1.6246 -0.2983
 5472TIP3    H238052   1.888   5.407   6.536  0.2168 -1.4782 -0.2215
 5473TIP3   OH238053   5.285   2.955   0.130 -0.1673 -0.3514 -0.0779
 5473TIP3    H138054   5.268   3.040   0.090 -2.5386 -1.0403 -0.7543
 5473TIP3    H238055   5.273   2.970   0.224  1.1328  0.3882 -0.0138
 5474TIP3   OH238056   6.390   1.454   0.438 -0.2533 -0.2252 -0.4004
 5474TIP3    H138057   6.465   1.403   0.407 -0.8802 -2.3088  1.3401
 5474TIP3    H238058   6.429   1.528   0.485  0.8632 -2.2193  2.0420
 5475TIP3   OH238059   0.555   0.858   6.420  0.2231  0.1066 -0.0344
 5475TIP3    H138060   0.644   0.824   6.427  0.1094 -0.4452 -1.0130
 5475TIP3    H238061   0.558   0.917   6.344 -0.4069 -0.5271 -0.5705
 5476TIP3   OH238062   0.663   6.235   1.434  0.4875 -0.8083  0.0549
 5476TIP3    H138063   0.758   6.244   1.441  0.4548  0.3343 -0.8306
 5476TIP3    H238064   0.633   6.236   1.525  1.1681  0.7905  0.2903
 5477TIP3   OH238065   2.913   4.855   0.872 -0.7790  0.4735  0.3506
 5477TIP3    H138066   2.913   4.782   0.809 -2.1995  1.8037 -1.2767
 5477TIP3    H238067   2.846   4.832   0.935 -1.0773  0.2567 -0.0392
 5478TIP3   OH238068   5.953   2.907   5.963 -0.0682 -0.0415  0.0293
 5478TIP3    H138069   5.979   2.966   5.894 -0.9497  0.4494  0.0996
 5478TIP3    H238070   5.865   2.878   5.938 -0.6207  0.5654  1.1941
 5479TIP3   OH238071   0.287   5.956   7.986 -0.1709  0.0375  0.0403
 5479TIP3    H138072   0.295   5.908   7.904 -0.5053 -0.4573  0.2916
 5479TIP3    H238073   0.254   5.891   8.049  1.6048 -0.0178  0.9672
 5480TIP3   OH238074   4.320   4.605   0.013  0.0525 -0.1079 -0.0981
 5480TIP3    H138075   4.329   4.623   0.106  3.2792 -0.4310 -0.2456
 5480TIP3    H238076   4.233   4.564   0.005  0.0061 -0.8226  2.8685
 5481TIP3   OH238077   4.395   3.989   0.547  0.2321 -0.3898  0.1170
 5481TIP3    H138078   4.320   4.046   0.530  0.2301 -0.2095  0.7222
 5481TIP3    H238079   4.396   3.978   0.642  1.1582 -0.1344  0.1510
 5482TIP3   OH238080   1.529   5.788   7.510  0.2008  0.1840  0.3897
 5482TIP3    H138081   1.539   5.725   7.438  1.6149  0.2242  0.5248
 5482TIP3    H238082   1.438   5.816   7.504 -0.4492 -1.7619  0.2355
 5483TIP3   OH238083   6.838   2.269   1.946  0.0292  0.0399 -0.0192
 5483TIP3    H138084   6.888   2.190   1.926 -0.4621 -0.3432  0.2385
 5483TIP3    H238085   6.864   2.293   2.035  0.9261  0.7514 -0.4625
 5484TIP3   OH238086   5.293   0.164   7.576 -0.4808  0.5297  0.0686
 5484TIP3    H138087   5.388   0.158   7.579 -0.5740 -1.1070  0.6901
 5484TIP3    H238088   5.274   0.254   7.601  0.9400  1.3577 -1.6206
 5485TIP3   OH238089   2.243   5.819   2.154 -0.1540  0.0041  0.6414
 5485TIP3    H138090   2.330   5.783   2.137  0.0878  0.8767 -0.0129
 5485TIP3    H238091   2.183   5.747   2.133  0.2387  0.3445 -1.8914
 5486TIP3   OH238092   1.720   1.749   6.351  0.4182 -0.0881 -0.0075
 5486TIP3    H138093   1.718   1.655   6.370  0.3489  0.1943  1.4529
 5486TIP3    H238094   1.639   1.765   6.303 -0.8724 -0.3497  1.9839
 5487TIP3   OH238095   5.104   3.376   0.360  0.4495 -0.2942 -0.1764
 5487TIP3    H138096   5.174   3.344   0.417  1.6114 -0.6494 -1.7429
 5487TIP3    H238097   5.024   3.345   0.401  1.2999 -1.3586  0.7533
 5488TIP3   OH238098   5.312   3.457   5.820 -0.0943 -0.5083 -0.4387
 5488TIP3    H138099   5.263   3.463   5.738 -0.6165  3.0859 -0.0385
 5488TIP3    H238100   5.391   3.509   5.805  0.6120 -1.1570  0.8497
 5489TIP3   OH238101   1.936   0.719   0.049  0.1138 -0.2136  0.2592
 5489TIP3    H138102   1.998   0.698   0.118  1.7425  1.1697 -0.6861
 5489TIP3    H238103   1.983   0.780  -0.008 -1.1586 -1.2588 -2.0604
 5490TIP3   OH238104   1.529   6.084   6.677 -0.3746 -0.3149  0.5208
 5490TIP3    H138105   1.439   6.054   6.664  0.0694 -1.8272  0.6691
 5490TIP3    H238106   1.535   6.100   6.771 -0.3854 -0.6351  0.5797
 5491TIP3   OH238107   5.925   2.097   6.658  0.0960 -0.0694  0.2028
 5491TIP3    H138108   5.957   2.095   6.568 -3.3040 -1.6561 -1.1315
 5491TIP3    H238109   5.983   2.038   6.706  2.5374  1.5007 -0.5900
 5492TIP3   OH238110   4.600   4.909   0.999 -0.2130  0.0998 -0.2229
 5492TIP3    H138111   4.578   4.963   0.923 -0.5935  0.0635 -0.1402
 5492TIP3    H238112   4.631   4.971   1.064  2.2819 -0.0549 -1.1449
 5493TIP3   OH238113   3.955   3.508   6.985 -0.0237 -0.1575 -0.5286
 5493TIP3    H138114   3.951   3.542   6.895 -1.7357 -1.4294 -0.9841
 5493TIP3    H238115   4.045   3.525   7.012  0.5764  0.1817 -2.5277
 5494TIP3   OH238116   0.973   5.796   6.037 -0.3605  0.3965  0.3228
 5494TIP3    H138117   0.975   5.747   5.955  0.7540  0.0407  0.5503
 5494TIP3    H238118   0.920   5.873   6.018 -1.7007 -0.6168 -0.1874
 5495TIP3   OH238119   5.094   2.385   6.180 -0.0643  0.1470 -0.1693
 5495TIP3    H138120   5.156   2.382   6.107  0.0437 -0.4920 -0.0597
 5495TIP3    H238121   5.087   2.294   6.209  0.3490  0.4696  0.9943
 5496TIP3   OH238122   6.545   0.464   7.766  0.3911 -0.0242 -0.3075
 5496TIP3    H138123   6.469   0.512   7.799 -1.3568 -1.8069 -1.5529
 5496TIP3    H238124   6.561   0.501   7.679  0.3504 -0.3038 -0.4337
 5497TIP3   OH238125   6.726   5.890   1.807  0.0892 -0.3104 -0.3675
 5497TIP3    H138126   6.795   5.824   1.809 -0.6055 -1.0594 -0.5564
 5497TIP3    H238127   6.653   5.847   1.763 -0.5742  0.3942  0.0177
 5498TIP3   OH238128   0.781   5.900   7.167  0.1042 -0.9821 -0.0391
 5498TIP3    H138129   0.757   5.948   7.246 -2.0142 -1.6903 -0.1857
 5498TIP3    H238130   0.822   5.966   7.111  1.1968 -0.3588  1.4187
 5499TIP3   OH238131   0.505   5.445   1.654  0.6128 -0.1140 -0.8718
 5499TIP3    H138132   0.482   5.372   1.712  0.1682  0.6705 -0.0469
 5499TIP3    H238133   0.421   5.484   1.630  0.7613 -0.7068 -2.4325
 5500TIP3   OH238134   4.858   3.564   5.697  0.2267  0.1021  0.1274
 5500TIP3    H138135   4.854   3.468   5.694  0.7317  0.0878 -0.1304
 5500TIP3    H238136   4.947   3.583   5.729  0.8368  0.5097 -1.7032
 5501TIP3   OH238137   5.135   1.204   1.276 -0.4397 -0.0311 -0.3690
 5501TIP3    H138138   5.172   1.240   1.357  0.1738  0.7098 -0.9547
 5501TIP3    H238139   5.183   1.249   1.206 -1.4637 -0.1077 -1.1510
 5502TIP3   OH238140   6.615   5.523   1.364  0.0865 -0.4046 -0.6453
 5502TIP3    H138141   6.564   5.580   1.307  0.6170  0.1404 -0.5992
 5502TIP3    H238142   6.577   5.536   1.451  2.1594  2.4256  0.0036
 5503TIP3   OH238143   6.388   5.942   2.108 -0.1116  0.3273  0.3117
 5503TIP3    H138144   6.457   5.998   2.072 -0.8955  0.9012 -0.3237
 5503TIP3    H238145   6.307   5.976   2.071 -0.5043 -2.4453 -1.7736
 5504TIP3   OH238146   5.244   3.882   6.697  0.0834  0.5311 -0.1073
 5504TIP3    H138147   5.299   3.954   6.667  0.6540  1.2472  2.4244
 5504TIP3    H238148   5.177   3.923   6.753 -0.9025 -0.6881 -0.3367
 5505TIP3   OH238149   0.361   0.110   0.232  0.0467  0.5563 -0.4185
 5505TIP3    H138150   0.372   0.174   0.162 -0.9666  0.4868 -0.6557
 5505TIP3    H238151   0.342   0.162   0.310  0.1803  0.5906 -0.4092
 5506TIP3   OH238152   2.615   4.045   0.943 -0.2447  0.3591 -0.4188
 5506TIP3    H138153   2.704   4.030   0.911 -0.4469 -0.4246 -0.6345
 5506TIP3    H238154   2.583   4.119   0.892  0.1249  0.3553 -0.6592
 5507TIP3   OH238155   5.187   2.761   6.936  0.1059 -0.4222 -0.5063
 5507TIP3    H138156   5.201   2.693   7.001  1.4384 -0.2902 -0.6156
 5507TIP3    H238157   5.203   2.718   6.852  1.0846  0.0215 -0.5695
 5508TIP3   OH238158   4.588   3.752   8.026 -0.0121  0.2221  0.2285
 5508TIP3    H138159   4.656   3.718   8.084  1.3028 -0.6600 -1.7201
 5508TIP3    H238160   4.507   3.742   8.076  1.1845  0.9262  2.4791
 5509TIP3   OH238161   3.860   0.355   6.577 -0.5681  0.1923 -0.2509
 5509TIP3    H138162   3.916   0.395   6.510 -0.1344  0.9229  0.5266
 5509TIP3    H238163   3.893   0.390   6.660 -1.2565 -0.5013  0.3326
 5510TIP3   OH238164   3.087   2.257   8.047  0.0236 -0.2569 -0.3631
 5510TIP3    H138165   3.004   2.262   8.095  0.1818 -0.5521 -0.0508
 5510TIP3    H238166   3.150   2.223   8.111  0.9247  2.0561  0.0605
 5511TIP3   OH238167   5.371   2.404   0.502 -1.0283 -0.5519  0.1970
 5511TIP3    H138168   5.376   2.498   0.484 -1.6986 -0.2880  1.3036
 5511TIP3    H238169   5.363   2.398   0.597  0.2487 -1.7880  0.2763
 5512TIP3   OH238170   6.366   4.556   6.311 -0.5296 -0.3142 -0.2759
 5512TIP3    H138171   6.359   4.479   6.253  0.9337 -0.4348 -0.3383
 5512TIP3    H238172   6.381   4.519   6.398 -0.3485 -0.1121 -0.2203
 5513TIP3   OH238173   4.149   3.587   1.874 -0.8237 -0.5025  0.0426
 5513TIP3    H138174   4.114   3.619   1.791 -2.1008 -2.7035 -0.3579
 5513TIP3    H238175   4.242   3.571   1.856 -1.3491 -2.2044 -1.4336
 5514TIP3   OH238176   0.856   5.267   1.450 -0.6735  0.1013  0.0967
 5514TIP3    H138177   0.892   5.355   1.461 -0.4260  0.2357 -1.5121
 5514TIP3    H238178   0.931   5.209   1.456 -0.6359  0.1202 -0.1724
 5515TIP3   OH238179   0.213   3.738   1.358 -0.2094 -0.2136 -0.0507
 5515TIP3    H138180   0.139   3.745   1.418  0.4728  1.7697  0.6465
 5515TIP3    H238181   0.290   3.733   1.416  0.3916  0.8154 -0.7372
 5516TIP3   OH238182   0.955   3.090   0.988  0.4263  0.2927  0.1406
 5516TIP3    H138183   0.881   3.085   1.048  0.6107  0.8422  0.4235
 5516TIP3    H238184   0.943   3.017   0.928 -0.0413  0.0473  0.5308
 5517TIP3   OH238185   4.094   2.642   0.739  0.2863  0.2686  0.5290
 5517TIP3    H138186   4.113   2.581   0.667  0.8850  0.6804  0.3314
 5517TIP3    H238187   4.133   2.601   0.816  1.4536  0.7927  0.2438
 5518TIP3   OH238188   0.531   1.167   6.399  0.2150 -0.0373 -0.5225
 5518TIP3    H138189   0.578   1.250   6.389  0.4551 -0.0557  0.3588
 5518TIP3    H238190   0.553   1.117   6.320 -2.2157  1.7834 -2.5347
 5519TIP3   OH238191   2.181   1.403   6.853  0.0154  0.6149 -0.3077
 5519TIP3    H138192   2.175   1.495   6.877  1.1011  0.1856  1.8242
 5519TIP3    H238193   2.122   1.394   6.778 -1.1829  2.7354  0.3053
 5520TIP3   OH238194   0.190   2.891   1.381 -0.0378  0.3065 -0.0716
 5520TIP3    H138195   0.209   2.956   1.313 -0.1732 -0.6532 -1.0556
 5520TIP3    H238196   0.220   2.808   1.344  0.2094 -0.2000  1.1931
 5521TIP3   OH238197   0.454   1.045   6.627 -0.0451  0.3780  0.5146
 5521TIP3    H138198   0.497   1.041   6.542  1.7679 -1.6711  1.4239
 5521TIP3    H238199   0.511   1.100   6.681 -0.7574  1.0007  0.6568
 5522TIP3   OH238200   4.269   3.488   0.178  0.3363  0.1022  0.5337
 5522TIP3    H138201   4.178   3.519   0.186  1.1865  3.7692 -1.5964
 5522TIP3    H238202   4.305   3.498   0.266 -0.5953  1.3940  0.8039
 5523TIP3   OH238203   0.101   4.736   0.087 -0.2997 -0.1811 -0.0018
 5523TIP3    H138204   0.165   4.770   0.150 -0.3876  0.7326 -0.3844
 5523TIP3    H238205   0.117   4.785   0.007 -0.4361 -1.0715 -0.5918
 5524TIP3   OH238206   6.609   6.022   0.844  0.2644  0.6811 -0.0054
 5524TIP3    H138207   6.663   6.101   0.849 -0.6468  1.2573  1.2655
 5524TIP3    H238208   6.642   5.965   0.913 -1.2580  1.4113  1.4014
 5525TIP3   OH238209   3.546   1.674   1.237 -0.0560 -1.1217  0.2527
 5525TIP3    H138210   3.515   1.603   1.180 -1.2179  0.0055 -0.6090
 5525TIP3    H238211   3.638   1.683   1.215 -0.3120 -1.1976 -0.9676
 5526TIP3   OH238212   2.841   4.221   1.288 -0.0047 -0.8665 -0.7669
 5526TIP3    H138213   2.920   4.169   1.301 -0.9407 -2.0932  0.3298
 5526TIP3    H238214   2.771   4.156   1.275 -1.2264  0.0753  0.7005
 5527TIP3   OH238215   3.480   3.354   7.888 -0.4880 -0.4601 -0.2117
 5527TIP3    H138216   3.458   3.447   7.877  2.2475  0.1108 -1.8979
 5527TIP3    H238217   3.542   3.336   7.817 -0.1572 -3.3474  0.6860
 5528TIP3   OH238218   4.111   5.823   6.686 -0.3979  0.3839 -0.0215
 5528TIP3    H138219   4.091   5.838   6.778  0.1980  1.0099  0.0079
 5528TIP3    H238220   4.141   5.907   6.653 -1.9379  0.5325 -1.1517
 5529TIP3   OH238221   1.977   3.842   7.237  0.1924 -0.3512 -0.2986
 5529TIP3    H138222   2.038   3.866   7.168  1.2739 -0.9111  0.4341
 5529TIP3    H238223   1.961   3.924   7.285 -2.5249  0.6435 -2.6051
 5530TIP3   OH238224   4.263   6.120   1.686 -0.2883 -0.0023 -0.4533
 5530TIP3    H138225   4.291   6.137   1.776 -1.7798 -1.9457  0.4555
 5530TIP3    H238226   4.180   6.168   1.677 -0.4567 -0.3086 -0.5623
 5531TIP3   OH238227   0.724   1.780   6.377 -0.5143  0.7811  0.5238
 5531TIP3    H138228   0.752   1.726   6.303  0.4646  0.3408  1.2059
 5531TIP3    H238229   0.645   1.737   6.410 -1.5113  1.4953 -0.8135
 5532TIP3   OH238230   4.838   2.470   1.346 -0.2642  0.5606 -0.3753
 5532TIP3    H138231   4.763   2.416   1.318 -0.1950  0.3524 -0.1649
 5532TIP3    H238232   4.910   2.442   1.289  0.1376 -0.5689  0.6363
 5533TIP3   OH238233   4.375   6.191   0.062 -0.1077  0.0283 -0.7899
 5533TIP3    H138234   4.287   6.154   0.058 -0.7265  1.1778  0.9034
 5533TIP3    H238235   4.363   6.284   0.041  0.5555  0.3631  0.2308
 5534TIP3   OH238236   6.776   2.715   7.265  0.0269 -0.5859  0.1506
 5534TIP3    H138237   6.859   2.706   7.311 -1.0101  0.3649  2.3349
 5534TIP3    H238238   6.741   2.799   7.295 -2.2209 -1.4608  0.1780
 5535TIP3   OH238239   2.415   0.127   5.749  0.1217 -0.5210 -0.5382
 5535TIP3    H138240   2.464   0.162   5.674 -0.1691 -2.2857 -1.6090
 5535TIP3    H238241   2.474   0.135   5.823  0.4974  1.0813 -0.9632
 5536TIP3   OH238242   2.927   0.053   0.676 -0.2255 -0.1525 -0.2833
 5536TIP3    H138243   2.996   0.014   0.729 -0.5096 -0.3722 -0.0719
 5536TIP3    H238244   2.894   0.125   0.730 -2.5768 -2.1914  1.2362
 5537TIP3   OH238245   0.808   4.759   0.532 -0.5135  0.0667  0.4329
 5537TIP3    H138246   0.856   4.802   0.603  0.7829 -0.4534 -0.0949
 5537TIP3    H238247   0.859   4.681   0.512 -0.3286  0.6406 -1.6493
 5538TIP3   OH238248   2.486   3.566   1.201  0.1302  0.1324 -0.0667
 5538TIP3    H138249   2.424   3.570   1.274 -0.9457 -0.6267 -0.9072
 5538TIP3    H238250   2.553   3.504   1.230 -0.1627  0.0058  0.3568
 5539TIP3   OH238251   6.323   6.147   6.840 -0.5133 -0.4111 -0.2927
 5539TIP3    H138252   6.232   6.166   6.820 -0.2183 -2.2248 -4.2712
 5539TIP3    H238253   6.333   6.053   6.826  1.8050 -0.4487  0.9847
 5540TIP3   OH238254   3.793   6.571   0.382  0.4421  0.1561  0.2775
 5540TIP3    H138255   3.716   6.621   0.409  0.1938 -0.3831  0.5872
 5540TIP3    H238256   3.837   6.548   0.464  0.5731 -0.1014  0.1387
 5541TIP3   OH238257   6.218   3.024   7.717  0.2000 -0.0255 -0.7079
 5541TIP3    H138258   6.243   3.038   7.626 -0.2653  0.1689 -0.8035
 5541TIP3    H238259   6.128   3.054   7.723  0.2689  0.0820 -0.1511
 5542TIP3   OH238260   4.591   6.695   7.297  0.0038  0.5645  0.1074
 5542TIP3    H138261   4.522   6.753   7.330 -1.0422 -1.1251  1.0098
 5542TIP3    H238262   4.584   6.701   7.202 -0.5241  1.3968  0.1900
 5543TIP3   OH238263   4.606   4.359   0.597 -0.2952  0.2723  0.1053
 5543TIP3    H138264   4.583   4.331   0.509 -1.0113  0.1078  0.3428
 5543TIP3    H238265   4.556   4.302   0.655 -0.2277  0.7220  0.6163
 5544TIP3   OH238266   5.451   0.798   0.430  0.0360 -0.4277  0.5179
 5544TIP3    H138267   5.513   0.842   0.488 -1.6834  1.1252  1.2928
 5544TIP3    H238268   5.490   0.804   0.343  1.5389 -0.6390  1.1524
 5545TIP3   OH238269   6.163   0.641   8.026  0.2880  0.0519 -0.6912
 5545TIP3    H138270   6.206   0.701   8.087  0.9797  0.5549 -1.6396
 5545TIP3    H238271   6.172   0.554   8.066  3.4415 -0.0946 -1.4276
 5546TIP3   OH238272   3.216   5.040   6.187 -0.3960 -0.7840 -0.0111
 5546TIP3    H138273   3.213   4.995   6.271 -1.2833 -0.2849  0.2340
 5546TIP3    H238274   3.238   4.971   6.124  1.3748 -0.9531  0.7469
 5547TIP3   OH238275   2.667   3.868   0.314 -0.6227  0.3406  0.1656
 5547TIP3    H138276   2.729   3.808   0.356 -1.1308 -1.3652 -1.3790
 5547TIP3    H238277   2.603   3.888   0.382 -1.2133 -2.0139  0.3907
 5548TIP3   OH238278   6.359   3.052   1.946  0.1545 -0.7332  0.0040
 5548TIP3    H138279   6.404   3.120   1.896  0.0684 -2.6745 -2.9205
 5548TIP3    H238280   6.352   3.088   2.035  1.0517  2.5644 -1.1399
 5549TIP3   OH238281   3.751   2.898   1.328  0.3833  0.0593  0.7128
 5549TIP3    H138282   3.708   2.849   1.258  1.8159  0.4524 -0.4821
 5549TIP3    H238283   3.680   2.950   1.367 -0.3473  0.3029 -0.8600
 5550TIP3   OH238284   3.244   6.024   5.943 -0.1633 -0.3428  0.1572
 5550TIP3    H138285   3.289   5.944   5.968  0.1529  0.0812  0.9922
 5550TIP3    H238286   3.169   5.994   5.892  2.0883 -0.9758 -3.0587
 5551TIP3   OH238287   3.819   6.226   0.390  0.5518 -0.2775  0.4712
 5551TIP3    H138288   3.736   6.260   0.421  0.5088  2.6245 -2.2728
 5551TIP3    H238289   3.796   6.147   0.342 -0.6980  0.4898 -0.2647
 5552TIP3   OH238290   5.776   1.683   7.724 -0.1739  0.1215 -1.1284
 5552TIP3    H138291   5.829   1.760   7.744 -1.0811  0.7057 -0.9359
 5552TIP3    H238292   5.840   1.611   7.718  0.8173  1.0450 -2.3203
 5553TIP3   OH238293   3.313   5.383   0.157 -0.1323 -0.2252  0.0256
 5553TIP3    H138294   3.381   5.443   0.125  0.4556 -0.7120  0.3366
 5553TIP3    H238295   3.260   5.365   0.079  1.4177 -1.5701 -0.7863
 5554TIP3   OH238296   3.055   4.055   0.312 -0.4173 -0.0869 -0.2188
 5554TIP3    H138297   3.130   3.996   0.324 -1.3479 -1.1760  0.4813
 5554TIP3    H238298   3.084   4.138   0.351  1.6400  0.6173 -2.9560
 5555TIP3   OH238299   6.475   2.321   7.293 -0.2036 -0.3232 -0.1888
 5555TIP3    H138300   6.509   2.264   7.225  0.1780 -0.7104  0.3206
 5555TIP3    H238301   6.483   2.409   7.257  0.8885 -0.4440 -0.2735
 5556TIP3   OH238302   6.305   1.011   6.458  0.1787 -0.2885 -0.3024
 5556TIP3    H138303   6.372   0.944   6.470 -1.5415 -2.0366  0.1085
 5556TIP3    H238304   6.300   1.023   6.363 -0.9260 -2.3562 -0.5511
 5557TIP3   OH238305   2.166   2.146   7.549  0.3117 -0.0975 -0.7995
 5557TIP3    H138306   2.197   2.061   7.581  0.9858  0.1752 -0.7031
 5557TIP3    H238307   2.164   2.137   7.454 -1.7870 -0.9426 -0.7191
 5558TIP3   OH238308   5.344   6.483   7.804  0.7138  0.0212  0.1503
 5558TIP3    H138309   5.381   6.559   7.760 -0.4459  0.3242 -0.3470
 5558TIP3    H238310   5.258   6.512   7.834 -0.1987 -1.3643 -0.9779
 5559TIP3   OH238311   5.698   0.965   0.469 -0.0037  0.1636 -0.1032
 5559TIP3    H138312   5.769   0.974   0.405  0.2912  1.4251  0.3825
 5559TIP3    H238313   5.701   1.045   0.521 -3.0637  1.2364 -1.3464
 5560TIP3   OH238314   1.424   3.208   1.723  0.2514  0.2197 -0.4012
 5560TIP3    H138315   1.369   3.242   1.793  0.5300  0.4117 -0.2713
 5560TIP3    H238316   1.388   3.246   1.643  0.6491  0.9518 -0.2429
 5561TIP3   OH238317   3.199   3.038   6.329  0.4602  0.2179 -0.2883
 5561TIP3    H138318   3.222   2.983   6.403  0.8797  0.9731  0.1518
 5561TIP3    H238319   3.169   2.977   6.262 -0.1551 -0.4591  0.5836
 5562TIP3   OH238320   0.486   3.428   1.791 -0.0639 -0.0184  0.2873
 5562TIP3    H138321   0.571   3.441   1.833  0.6276 -0.3501 -0.9428
 5562TIP3    H238322   0.461   3.338   1.815  0.4525 -0.3015 -0.2068
 5563TIP3   OH238323   0.622   5.159   0.393 -0.4660 -0.0319  0.4458
 5563TIP3    H138324   0.666   5.168   0.478  0.5496 -1.4592  0.0892
 5563TIP3    H238325   0.560   5.088   0.406 -0.0421 -0.5087 -0.1015
 5564TIP3   OH238326   4.389   3.665   6.711 -0.3142  0.6190  0.0098
 5564TIP3    H138327   4.310   3.638   6.664 -0.0816  1.7273 -1.0943
 5564TIP3    H238328   4.448   3.591   6.703  1.1674  1.9258 -4.8679
 5565TIP3   OH238329   0.404   4.189   0.414 -0.0012  0.1692 -0.0632
 5565TIP3    H138330   0.354   4.109   0.397 -0.6926  0.1941  1.6747
 5565TIP3    H238331   0.423   4.186   0.507  0.8086  1.5672 -0.1631
 5566TIP3   OH238332   4.827   6.396   8.052  0.5140  0.3022 -0.7738
 5566TIP3    H138333   4.831   6.353   8.137  0.1111 -0.5890 -1.1813
 5566TIP3    H238334   4.791   6.483   8.070  0.1569  0.0180 -0.0704
 5567TIP3   OH238335   5.482   4.570   0.024  0.1388  0.2921 -0.3743
 5567TIP3    H138336   5.421   4.497   0.013  1.4777 -0.5426 -3.5739
 5567TIP3    H238337   5.529   4.551   0.105 -2.1401 -0.2779  0.8965
 5568TIP3   OH238338   6.145   0.121   2.512  0.1775 -0.1896  0.4704
 5568TIP3    H138339   6.096   0.171   2.447  1.9798  1.1992  0.1146
 5568TIP3    H238340   6.157   0.035   2.471  1.8898  0.8613 -1.4434
 5569TIP3   OH238341   2.598   2.118   2.123  0.0734 -0.7536 -0.6931
 5569TIP3    H138342   2.604   2.111   2.218 -1.4078  0.7543 -0.4497
 5569TIP3    H238343   2.505   2.135   2.106  0.3586 -0.7072 -2.3908
 5570TIP3   OH238344   1.135   2.075   6.041 -0.1531 -0.1188  0.2880
 5570TIP3    H138345   1.062   2.077   5.980 -0.9522 -2.8937  1.0123
 5570TIP3    H238346   1.209   2.110   5.992 -1.2379 -0.3297 -1.5584
 5571TIP3   OH238347   0.400   3.481   0.022  0.8995 -0.8493  0.8470
 5571TIP3    H138348   0.424   3.404  -0.030 -0.5792 -0.0759 -1.1072
 5571TIP3    H238349   0.425   3.556  -0.032 -4.6147  0.0606 -1.1588
 5572TIP3   OH238350   5.487   6.574   1.451  0.0826  0.4721 -0.4720
 5572TIP3    H138351   5.507   6.484   1.478 -0.2155  0.7986  0.9492
 5572TIP3    H238352   5.566   6.624   1.472 -0.3665  0.8429  0.4070
 5573TIP3   OH238353   1.893   6.919   0.513 -0.0248  0.1443  0.3014
 5573TIP3    H138354   1.864   6.959   0.431 -1.3975 -0.9751  0.2170
 5573TIP3    H238355   1.917   6.830   0.490  2.1629  0.5618  0.6667
 5574TIP3   OH238356   0.538   4.851   0.071 -0.1564  0.4740  0.4538
 5574TIP3    H138357   0.483   4.915   0.026 -2.2993 -0.6615  1.2897
 5574TIP3    H238358   0.582   4.901   0.140 -0.2336  1.3912 -0.1469
 5575TIP3   OH238359   0.308   2.711   1.234  0.1771 -0.2967 -0.3582
 5575TIP3    H138360   0.296   2.731   1.141 -0.2693 -2.4174 -0.8016
 5575TIP3    H238361   0.397   2.677   1.239  0.2396 -0.0831  0.0315
 5576TIP3   OH238362   4.125   3.721   0.656 -0.6817 -0.3908 -0.3546
 5576TIP3    H138363   4.051   3.752   0.604 -0.5635  1.7412  0.6449
 5576TIP3    H238364   4.192   3.789   0.645  0.1736 -1.0122  0.8110
 5577TIP3   OH238365   2.318   0.489   1.503 -0.3112 -0.2036 -0.3119
 5577TIP3    H138366   2.294   0.544   1.578  2.3532 -0.8752  1.1564
 5577TIP3    H238367   2.308   0.400   1.536  1.5751 -0.5000 -0.4630
 5578TIP3   OH238368   4.011   0.649   0.542 -0.0366  0.3033 -0.5432
 5578TIP3    H138369   3.938   0.637   0.481 -1.0019 -0.1981  0.6697
 5578TIP3    H238370   4.079   0.690   0.490 -1.1100  0.5915 -1.7675
 5579TIP3   OH238371   6.176   4.776   1.343  0.4110 -0.2015 -1.1386
 5579TIP3    H138372   6.106   4.713   1.359  2.1771 -2.0181 -0.1843
 5579TIP3    H238373   6.223   4.742   1.267  0.2788  1.0206 -1.7996
 5580TIP3   OH238374   3.658   3.386   8.091  0.8214  0.0964 -0.1898
 5580TIP3    H138375   3.721   3.437   8.040  0.8987 -0.8869 -1.1048
 5580TIP3    H238376   3.579   3.384   8.037  0.7461 -0.5584 -0.0669
 5581TIP3   OH238377   0.438   2.400   0.278 -0.6857  0.1133 -0.6486
 5581TIP3    H138378   0.477   2.481   0.245 -1.1159  1.4728  1.9011
 5581TIP3    H238379   0.348   2.425   0.301 -0.7271 -1.0073  0.4895
 5582TIP3   OH238380   5.476   1.528   1.073 -0.3401  0.0230 -0.3305
 5582TIP3    H138381   5.507   1.569   0.992  0.2118  0.8781  0.3057
 5582TIP3    H238382   5.385   1.555   1.080  0.0034  1.1318  0.0577
 5583TIP3   OH238383   5.594   6.143   1.008 -0.2251 -0.0358 -0.0476
 5583TIP3    H138384   5.652   6.067   1.009  0.3957  0.3188 -2.5991
 5583TIP3    H238385   5.576   6.159   0.915 -3.7077  0.4351  0.5513
 5584TIP3   OH238386   0.667   5.328   6.591  0.3484  0.6134 -0.1896
 5584TIP3    H138387   0.741   5.388   6.593  0.6931  0.1952 -0.3035
 5584TIP3    H238388   0.621   5.344   6.674 -0.2999  1.9327 -0.7725
 5585TIP3   OH238389   0.959   5.758   0.043 -0.0265  0.2755 -0.5515
 5585TIP3    H138390   0.977   5.852   0.045  1.2129  0.0713  2.2401
 5585TIP3    H238391   1.037   5.719   0.003  0.5940  0.2967  0.5870
 5586TIP3   OH238392   3.910   4.548   1.959 -0.7113 -0.6242  0.1410
 5586TIP3    H138393   3.880   4.536   2.049 -1.3802 -0.0367  0.0081
 5586TIP3    H238394   3.912   4.460   1.923  0.6487 -0.9965  1.0505
 5587TIP3   OH238395   4.553   5.214   0.910 -0.2730  0.1804 -0.4813
 5587TIP3    H138396   4.586   5.172   0.831 -0.7722 -0.1039 -0.5494
 5587TIP3    H238397   4.522   5.300   0.882 -1.7476 -0.4502 -0.8932
 5588TIP3   OH238398   1.247   2.111   1.839  0.1538  0.0439  0.2923
 5588TIP3    H138399   1.327   2.108   1.786  0.4574 -0.8485  0.7794
 5588TIP3    H238400   1.271   2.068   1.921 -0.8480 -0.2989  0.4140
 5589TIP3   OH238401   0.945   3.083   0.271  0.3225 -0.2318 -0.3475
 5589TIP3    H138402   0.943   3.151   0.338 -1.1484  1.0231 -1.5868
 5589TIP3    H238403   0.958   3.001   0.320 -0.3110  0.6659  1.4186
 5590TIP3   OH238404   5.449   0.659   1.642  0.4881 -0.6482  0.8608
 5590TIP3    H138405   5.432   0.716   1.717 -0.8093 -0.8203  0.7173
 5590TIP3    H238406   5.534   0.618   1.662  1.3201  1.1045  1.0877
 5591TIP3   OH238407   6.718   3.456   0.708  0.5228  0.2491 -0.1102
 5591TIP3    H138408   6.649   3.390   0.704 -0.3999  1.2305 -0.5700
 5591TIP3    H238409   6.744   3.458   0.800  1.0334 -1.2049 -0.1841
 5592TIP3   OH238410   5.955   4.893   6.742  0.1786 -0.7139 -0.5732
 5592TIP3    H138411   5.933   4.959   6.676 -1.3458 -0.3190  0.2822
 5592TIP3    H238412   5.944   4.937   6.826  0.0921 -1.7779 -0.0008
 5593TIP3   OH238413   6.065   5.282   6.505 -0.0044 -0.4412 -0.1848
 5593TIP3    H138414   6.048   5.286   6.411  0.1336 -1.9246 -0.3042
 5593TIP3    H238415   6.059   5.188   6.526  2.6595 -0.4683  0.7812
 5594TIP3   OH238416   2.962   1.631   0.058 -0.3224  0.3320 -0.1151
 5594TIP3    H138417   3.009   1.548   0.062  0.5785  0.8430  3.0771
 5594TIP3    H238418   2.874   1.610   0.090  0.3409  0.7529  2.1740
 5595TIP3   OH238419   6.559   5.843   6.648 -0.2128  0.0634 -0.4205
 5595TIP3    H138420   6.588   5.770   6.703 -0.7923  0.3169  0.2252
 5595TIP3    H238421   6.571   5.811   6.558 -1.5721 -1.2970 -0.1578
 5596TIP3   OH238422   2.277   4.157   6.970 -0.2495  0.4750  0.0459
 5596TIP3    H138423   2.251   4.193   6.885  0.8038  2.7995  0.6373
 5596TIP3    H238424   2.368   4.129   6.958 -0.1078  0.7820  0.3902
 5597TIP3   OH238425   5.418   0.090   7.242 -0.3013 -0.2443 -0.3837
 5597TIP3    H138426   5.441   0.096   7.335  0.2292  0.7224 -0.5597
 5597TIP3    H238427   5.350   0.157   7.231 -0.3087 -0.3062 -0.7094
 5598TIP3   OH238428   5.826   6.072   6.644  0.0052  0.0042 -0.0510
 5598TIP3    H138429   5.859   6.077   6.554 -0.3029 -0.5379 -0.2001
 5598TIP3    H238430   5.895   6.027   6.692  0.0135 -0.0296 -0.0940
 5599TIP3   OH238431   2.958   3.186   7.295  0.6604 -0.0282 -0.2845
 5599TIP3    H138432   2.970   3.270   7.252 -0.2150 -0.5912 -1.6908
 5599TIP3    H238433   2.912   3.132   7.230 -0.6343 -0.9481  1.3344
 5600TIP3   OH238434   6.790   3.664   1.016  0.6409  0.1197  0.3713
 5600TIP3    H138435   6.825   3.695   0.932 -0.0524 -0.4778 -0.1564
 5600TIP3    H238436   6.803   3.737   1.076 -0.0801  1.0720 -0.5954
 5601TIP3   OH238437   0.060   1.640   0.503 -0.3403 -0.0349 -0.3258
 5601TIP3    H138438  -0.003   1.711   0.516  0.1415  0.4887 -0.7675
 5601TIP3    H238439   0.140   1.684   0.473  0.1902 -0.6962  0.0681
 5602TIP3   OH238440   5.213   0.279   7.226 -0.2814 -0.2386  0.0411
 5602TIP3    H138441   5.131   0.317   7.194 -0.6750 -0.3263  0.9081
 5602TIP3    H238442   5.202   0.274   7.321 -0.0147 -1.9658  0.0242
 5603TIP3   OH238443   5.580   5.413   0.452 -0.6851  0.0749 -0.3991
 5603TIP3    H138444   5.625   5.435   0.370 -1.0975 -0.9124 -0.9038
 5603TIP3    H238445   5.525   5.338   0.430 -1.6781  0.5185  0.5092
 5604TIP3   OH238446   3.888   6.138   6.828 -0.2872  0.0787  0.2577
 5604TIP3    H138447   3.964   6.185   6.863  0.2910 -1.2028  0.7859
 5604TIP3    H238448   3.898   6.049   6.860 -2.3071 -0.0197  0.7970
 5605TIP3   OH238449   4.669   0.770   7.378  0.6171 -0.3568 -0.0558
 5605TIP3    H138450   4.589   0.823   7.378 -0.0541 -1.3222 -0.4271
 5605TIP3    H238451   4.740   0.833   7.384 -0.1602  0.5647 -0.2514
 5606TIP3   OH238452   4.396   6.081   5.765 -0.5067  0.0443 -0.0151
 5606TIP3    H138453   4.311   6.066   5.723  0.1903 -0.7892 -1.1891
 5606TIP3    H238454   4.454   6.107   5.694  0.7756 -1.6355  0.3427
 5607TIP3   OH238455   4.526   0.704   1.250  0.0367  0.0589 -0.3517
 5607TIP3    H138456   4.605   0.649   1.249 -0.2304 -0.3976  0.8651
 5607TIP3    H238457   4.535   0.761   1.174  1.3935 -0.2015 -0.4203
 5608TIP3   OH238458   4.996   6.542   6.721  0.1233  0.2741 -0.4167
 5608TIP3    H138459   5.033   6.517   6.637 -0.2480  0.4745 -0.6450
 5608TIP3    H238460   4.944   6.620   6.702 -0.9991 -0.3967 -0.2656
 5609TIP3   OH238461   0.347   6.623   6.832 -0.4639  0.0367  0.3223
 5609TIP3    H138462   0.283   6.562   6.795 -1.8193  1.8515 -0.4419
 5609TIP3    H238463   0.403   6.647   6.759 -0.1430 -0.0059  0.5497
 5610TIP3   OH238464   0.564   0.336   6.075  0.1956 -0.2520  0.7231
 5610TIP3    H138465   0.602   0.253   6.106  0.8265 -0.0099  0.6055
 5610TIP3    H238466   0.616   0.359   5.998  0.9066  0.9299  1.5169
 5611TIP3   OH238467   1.950   2.041   7.984  0.1604 -0.6109  0.2223
 5611TIP3    H138468   1.963   2.117   8.041  1.8330  0.4806 -1.4997
 5611TIP3    H238469   1.874   2.063   7.931 -1.0628 -1.3956  1.5687
 5612TIP3   OH238470   6.348   5.520   0.178  0.8266  0.3606  0.1859
 5612TIP3    H138471   6.396   5.543   0.257  2.5935 -3.1690  0.3274
 5612TIP3    H238472   6.273   5.470   0.209  0.5474  0.4436 -0.3379
 5613TIP3   OH238473   5.732   0.413   7.390  0.1642 -0.3036  0.5424
 5613TIP3    H138474   5.685   0.426   7.472 -0.5481 -1.6355  0.3717
 5613TIP3    H238475   5.694   0.333   7.353  1.9936 -0.9782  0.0019
 5614TIP3   OH238476   2.732   2.811   6.190  0.9526  0.1195 -0.1242
 5614TIP3    H138477   2.654   2.763   6.161  0.9357 -0.3188  0.6023
 5614TIP3    H238478   2.797   2.795   6.122 -0.0224  1.7288 -1.5251
 5615TIP3   OH238479   5.155   1.338   7.648 -0.7522 -0.0908 -0.2791
 5615TIP3    H138480   5.201   1.260   7.680 -0.5803 -0.2885 -0.9875
 5615TIP3    H238481   5.178   1.343   7.556 -0.9123  0.7038 -0.2811
 5616TIP3   OH238482   4.410   2.339   7.195  0.0949  0.5941 -0.2600
 5616TIP3    H138483   4.386   2.280   7.267  1.5116 -0.1657 -0.3752
 5616TIP3    H238484   4.433   2.421   7.239 -1.3580  0.9179 -0.0557
 5617TIP3   OH238485   5.585   0.998   7.403 -0.4994  0.3273 -0.3071
 5617TIP3    H138486   5.509   1.056   7.412 -1.0750 -0.2875 -1.0071
 5617TIP3    H238487   5.565   0.945   7.326  1.7572  1.8239 -2.0901
 5618TIP3   OH238488   0.513   6.655   0.340 -0.0067 -0.0837  0.2665
 5618TIP3    H138489   0.479   6.691   0.258 -1.2760  0.9310  1.2001
 5618TIP3    H238490   0.606   6.638   0.322  0.2009  1.9134 -0.8105
 5619TIP3   OH238491   4.417   2.599   0.710  0.1270 -0.5127 -0.3437
 5619TIP3    H138492   4.338   2.617   0.761  0.0719 -2.0109  0.1686
 5619TIP3    H238493   4.462   2.531   0.760  0.2488 -1.7816 -2.0960
 5620TIP3   OH238494   6.454   3.292   0.269 -0.5540 -0.0057  0.4661
 5620TIP3    H138495   6.407   3.296   0.186  1.2983  1.6047 -0.5834
 5620TIP3    H238496   6.408   3.354   0.326 -0.8745  0.0787  0.1225
 5621TIP3   OH238497   2.994   1.167   0.224  0.4248  0.5307 -0.0940
 5621TIP3    H138498   3.069   1.125   0.182 -0.8044 -0.2778 -1.6045
 5621TIP3    H238499   2.936   1.190   0.151 -2.3690 -1.9779  1.0945
 5622TIP3   OH238500   4.707   5.729   7.754 -1.0170  0.4463  0.1607
 5622TIP3    H138501   4.786   5.681   7.778 -1.7514 -1.0669 -0.2820
 5622TIP3    H238502   4.736   5.819   7.741  0.5252  0.0255  0.4894
 5623TIP3   OH238503   6.315   5.389   0.922  0.4497 -0.0441  0.7802
 5623TIP3    H138504   6.242   5.327   0.927  1.7142 -1.7097 -0.3258
 5623TIP3    H238505   6.308   5.428   0.834  1.6287 -1.2402  0.1194
 5624TIP3   OH238506   3.595   4.823   1.466  0.0445  0.3776  0.4352
 5624TIP3    H138507   3.581   4.877   1.543 -2.3256 -0.6731  0.8577
 5624TIP3    H238508   3.604   4.734   1.500 -2.8236 -0.3757 -0.4402
 5625TIP3   OH238509   6.746   2.650   7.733  0.1158  0.3728 -0.0549
 5625TIP3    H138510   6.813   2.584   7.715 -0.2643 -0.3666  1.0975
 5625TIP3    H238511   6.687   2.607   7.795  0.9302  2.4289  2.3138
 5626TIP3   OH238512   1.001   3.683   0.123  0.0226  0.4472 -0.2198
 5626TIP3    H138513   0.911   3.656   0.136  0.0265  0.0811 -0.9062
 5626TIP3    H238514   0.999   3.735   0.042  0.0427  2.3933  0.9529
 5627TIP3   OH238515   0.351   6.265   6.644 -1.1241 -0.2940  0.5529
 5627TIP3    H138516   0.364   6.213   6.723  1.0532 -0.2795  0.2678
 5627TIP3    H238517   0.291   6.213   6.591 -2.8175 -0.2030  2.2599
 5628TIP3   OH238518   0.929   5.747   6.467  0.3521 -0.5598  0.0646
 5628TIP3    H138519   0.850   5.744   6.413  0.4292  1.5478 -0.2786
 5628TIP3    H238520   1.000   5.728   6.407  0.3729  1.0549 -0.4719
 5629TIP3   OH238521   5.737   6.526   7.802 -0.7862  0.2811  0.0745
 5629TIP3    H138522   5.721   6.600   7.745  0.3791 -0.8529 -1.8493
 5629TIP3    H238523   5.718   6.449   7.748 -1.3445 -0.8552  1.7879
 5630TIP3   OH238524   3.123   1.328   0.943  0.6507 -0.4837 -0.2487
 5630TIP3    H138525   3.198   1.270   0.953  1.8005  1.1580  1.2106
 5630TIP3    H238526   3.100   1.354   1.032  0.5332  1.6793 -0.8356
 5631TIP3   OH238527   4.906   0.216   5.705  0.1811  0.0833  0.0909
 5631TIP3    H138528   4.881   0.229   5.797  2.4530  0.6839  0.6798
 5631TIP3    H238529   4.918   0.122   5.696 -0.8994 -0.0697  0.1488
 5632TIP3   OH238530   1.464   1.642   7.324 -0.3534  0.2602 -0.1640
 5632TIP3    H138531   1.515   1.687   7.392 -0.2009  1.4807 -1.0726
 5632TIP3    H238532   1.407   1.709   7.287  0.1566 -0.1624 -1.8087
 5633TIP3   OH238533   5.740   6.293   0.255  0.7959 -0.1413 -0.0837
 5633TIP3    H138534   5.787   6.374   0.233  2.2959 -1.0342 -0.2933
 5633TIP3    H238535   5.729   6.249   0.171 -0.6688  0.1292 -0.0779
 5634TIP3   OH238536   7.124   7.041   1.604 -0.0017 -0.3447 -0.4084
 5634TIP3    H138537   7.176   6.988   1.544  0.5069  1.1038 -1.3024
 5634TIP3    H238538   7.036   7.040   1.567 -0.6390 -2.6515  1.0072
 5635TIP3   OH238539   1.681   7.085   7.229 -0.0186  0.3972  0.1576
 5635TIP3    H138540   1.653   7.161   7.279 -0.6211  0.1604  0.1887
 5635TIP3    H238541   1.700   7.018   7.295 -2.3565 -0.4486  0.0713
 5636TIP3   OH238542   1.173   3.720   1.086 -0.1939 -0.3001 -0.3610
 5636TIP3    H138543   1.257   3.675   1.077  0.2831  0.0071  1.9556
 5636TIP3    H238544   1.115   3.654   1.124  0.0001  0.4801  1.3386
 5637TIP3   OH238545   6.460   2.737   7.682 -0.0856 -0.1456 -0.4396
 5637TIP3    H138546   6.554   2.721   7.680 -0.5072 -3.0137 -1.1125
 5637TIP3    H238547   6.439   2.766   7.593  0.1121  0.2985 -0.3449
 5638TIP3   OH238548   6.794   1.832   8.016  0.0792 -0.0147  0.6509
 5638TIP3    H138549   6.750   1.889   8.079 -0.2763  0.8501 -0.3437
 5638TIP3    H238550   6.871   1.881   7.988 -0.0897 -0.1154 -0.0273
 5639TIP3   OH238551   4.628   1.664   7.388 -0.0742  0.3345  0.2826
 5639TIP3    H138552   4.648   1.699   7.475  1.4880  0.1620  0.0272
 5639TIP3    H238553   4.558   1.601   7.403  0.9032 -0.5006  1.6065
 5640TIP3   OH238554   4.019   1.180   6.692  0.1971 -0.3491  0.0174
 5640TIP3    H138555   4.094   1.128   6.665 -0.6204 -1.5246 -0.0320
 5640TIP3    H238556   4.044   1.271   6.672  1.9208 -0.6293  0.7692
 5641TIP3   OH238557   4.731   5.071   1.795 -0.0359 -0.1347  0.3279
 5641TIP3    H138558   4.765   5.156   1.822  0.7284 -1.0372  2.4123
 5641TIP3    H238559   4.638   5.074   1.818 -0.2195  0.4224 -0.4322
 5642TIP3   OH238560   1.327   6.426   7.795  0.4354  0.1347  0.0801
 5642TIP3    H138561   1.303   6.335   7.775  1.7665 -0.5679  1.5220
 5642TIP3    H238562   1.264   6.478   7.745 -0.0580 -1.5622 -1.1704
 5643TIP3   OH238563   4.017   1.951   1.872  0.0265 -0.0340  0.3893
 5643TIP3    H138564   4.109   1.979   1.868  0.5926 -1.9134 -1.2334
 5643TIP3    H238565   3.974   2.001   1.803 -0.3835  1.3364  1.5733
 5644TIP3   OH238566   1.470   4.558   1.718  0.4216  0.5370  0.0149
 5644TIP3    H138567   1.403   4.515   1.664  1.0910  0.1560 -0.5365
 5644TIP3    H238568   1.495   4.491   1.782  1.7900 -0.0998 -1.1295
 5645TIP3   OH238569   6.475   6.870   7.400  0.1297  0.1949 -0.2394
 5645TIP3    H138570   6.515   6.793   7.361 -0.5322 -0.9522  1.2201
 5645TIP3    H238571   6.448   6.841   7.488 -0.0539  2.1157  0.3922
 5646TIP3   OH238572   5.861   4.230   0.795  0.2010 -0.1629  0.0189
 5646TIP3    H138573   5.904   4.181   0.725 -0.3604 -1.6913  0.6985
 5646TIP3    H238574   5.900   4.196   0.875 -0.4114  0.3131  0.5245
 5647TIP3   OH238575   0.675   2.546   2.067  0.3640 -0.4679 -0.2706
 5647TIP3    H138576   0.729   2.560   1.989  1.3568 -0.6741  0.3544
 5647TIP3    H238577   0.722   2.479   2.117  0.4815  0.6097  1.1436
 5648TIP3   OH238578   2.976   3.122   6.744 -0.0902  1.0652 -0.5494
 5648TIP3    H138579   2.897   3.137   6.692 -2.1434 -0.7322  1.7812
 5648TIP3    H238580   3.019   3.048   6.701 -2.6260 -1.5088  0.9337
 5649TIP3   OH238581   0.729   4.432   8.116  0.3311 -0.1677  0.2460
 5649TIP3    H138582   0.785   4.474   8.182  0.1512  0.3194  0.0923
 5649TIP3    H238583   0.672   4.374   8.167 -0.3299  0.7831  0.6146
 5650TIP3   OH238584   5.302   6.068   6.880 -0.5298 -0.4710 -0.4283
 5650TIP3    H138585   5.273   6.128   6.811  0.1655 -0.1336 -0.4483
 5650TIP3    H238586   5.335   6.126   6.949  1.1329 -0.8090 -0.8805
 5651TIP3   OH238587   2.777   0.131   1.636 -0.0363  0.0416 -0.1079
 5651TIP3    H138588   2.773   0.215   1.682  2.2644 -0.0956  0.4733
 5651TIP3    H238589   2.764   0.065   1.705 -1.3561 -0.1336 -0.4871
 5652TIP3   OH238590   5.568   7.099   7.718 -0.2524  0.4399  0.2183
 5652TIP3    H138591   5.556   7.177   7.771  1.3666  0.8611  0.0283
 5652TIP3    H238592   5.662   7.082   7.721 -0.7315 -2.6698  1.8755
 5653TIP3   OH238593   3.997   5.639   7.255  0.0262  0.5017 -0.2036
 5653TIP3    H138594   4.036   5.626   7.168  0.3455  0.0259  0.0049
 5653TIP3    H238595   3.911   5.597   7.250 -0.2500  1.0937 -0.5037
 5654TIP3   OH238596   2.588   0.188   2.255  0.1062 -0.3665  0.2508
 5654TIP3    H138597   2.526   0.151   2.319  1.1770 -1.0007  0.9527
 5654TIP3    H238598   2.607   0.275   2.289 -3.1147  1.3744 -1.8770
 5655TIP3   OH238599   4.639   4.247   6.246  0.3060  0.2803  0.2408
 5655TIP3    H138600   4.614   4.162   6.211 -0.2710  0.2319  0.7592
 5655TIP3    H238601   4.688   4.289   6.174  0.6168 -0.4901 -0.0035
 5656TIP3   OH238602   1.209   2.970   1.979  0.3281 -0.2619  0.1350
 5656TIP3    H138603   1.221   3.044   1.919  3.2010  0.8305  1.8666
 5656TIP3    H238604   1.238   2.894   1.929 -1.0408 -0.0313 -1.0901
 5657TIP3   OH238605   6.291   6.500   7.421  0.5056  0.2217 -0.5835
 5657TIP3    H138606   6.357   6.431   7.423 -0.4044 -0.6580  0.2697
 5657TIP3    H238607   6.287   6.533   7.510  1.9066  2.3961 -1.2475
 5658TIP3   OH238608   6.248   3.217   0.776  0.5817  0.1676  0.1755
 5658TIP3    H138609   6.187   3.264   0.834  0.7913 -0.1765  0.6775
 5658TIP3    H238610   6.269   3.137   0.823  0.1171 -0.5123 -0.7395
 5659TIP3   OH238611   5.810   5.384   2.178  0.4763 -0.0400  0.3505
 5659TIP3    H138612   5.720   5.400   2.148  0.4015  2.3816  1.6469
 5659TIP3    H238613   5.857   5.360   2.098 -1.1703 -0.7924 -0.4520
 5660TIP3   OH238614   7.067   6.373   6.653 -0.1691  0.0943 -0.4239
 5660TIP3    H138615   6.985   6.422   6.645 -0.6644 -0.7483 -0.6253
 5660TIP3    H238616   7.044   6.284   6.629  1.4156  0.3832 -3.5508
 5661TIP3   OH238617   3.983   4.883   6.615  0.0012  0.7543 -0.2265
 5661TIP3    H138618   3.948   4.899   6.528  0.9767 -0.3297 -0.8574
 5661TIP3    H238619   4.047   4.953   6.629 -0.8483  1.4917  0.0409
 5662TIP3   OH238620   6.631   2.374   1.768 -0.1470 -0.5347 -0.1852
 5662TIP3    H138621   6.683   2.340   1.841  1.4574  1.2772 -0.3851
 5662TIP3    H238622   6.561   2.424   1.809 -1.4748 -2.4763  0.0792
 5663TIP3   OH238623   6.818   3.593   7.899 -0.2527  0.2642  0.0911
 5663TIP3    H138624   6.815   3.615   7.805 -1.1050  0.1198  0.0805
 5663TIP3    H238625   6.899   3.544   7.909 -0.3074  0.0091 -0.6373
 5664TIP3   OH238626   0.670   6.208   7.139 -0.5355  0.0764 -0.3377
 5664TIP3    H138627   0.640   6.163   7.218 -2.5529 -0.4868 -1.3577
 5664TIP3    H238628   0.763   6.187   7.133  0.0015  1.0990  2.4841
 5665TIP3   OH238629   6.677   3.759   6.938 -0.5062  0.1226 -0.5102
 5665TIP3    H138630   6.693   3.813   6.861  2.6372  0.6200  0.3450
 5665TIP3    H238631   6.674   3.669   6.904  1.2062  0.2976 -1.2299
 5666TIP3   OH238632   4.824   2.312   7.245  0.3859  0.5699  0.4091
 5666TIP3    H138633   4.883   2.371   7.291  0.1294  0.9732  0.2273
 5666TIP3    H238634   4.880   2.242   7.212  0.4363 -0.3196  2.2709
 5667TIP3   OH238635   6.634   2.130   6.638  0.0313  0.2333  0.2794
 5667TIP3    H138636   6.662   2.147   6.548 -3.0232 -0.3529 -0.9095
 5667TIP3    H238637   6.671   2.044   6.659  0.5592  0.2599 -0.5026
 5668TIP3   OH238638   3.614   3.147   1.030  0.4597  0.0514 -0.0518
 5668TIP3    H138639   3.584   3.112   1.114  1.5313  0.3814  0.4851
 5668TIP3    H238640   3.551   3.114   0.967 -1.1782  0.8964  1.0439
 5669TIP3   OH238641   0.325   3.912   6.523 -0.1565  0.5810 -0.1253
 5669TIP3    H138642   0.363   3.836   6.479 -0.8759  0.9716 -1.4689
 5669TIP3    H238643   0.379   3.923   6.602 -0.4123 -1.6582  0.4252
 5670TIP3   OH238644   4.408   2.626   5.920 -0.1264 -0.2331 -0.0809
 5670TIP3    H138645   4.427   2.577   5.840 -0.4553  0.3039 -0.4986
 5670TIP3    H238646   4.343   2.572   5.966  0.7645 -1.0063  0.2976
 5671TIP3   OH238647   2.867   0.073   1.135 -0.9114  0.2370  0.2792
 5671TIP3    H138648   2.943   0.110   1.088 -0.1641 -0.8001  0.6412
 5671TIP3    H238649   2.843   0.141   1.198 -1.2185  1.1784 -0.8202
 5672TIP3   OH238650   1.184   5.369   1.860 -0.4232  0.0778 -0.1025
 5672TIP3    H138651   1.164   5.318   1.939 -1.6912  0.4275 -0.1765
 5672TIP3    H238652   1.109   5.353   1.802 -0.0628  0.7594 -0.7671
 5673TIP3   OH238653   0.843   3.703   1.352  0.1283  0.0879 -0.1624
 5673TIP3    H138654   0.902   3.684   1.425 -0.4293  0.8323  0.4974
 5673TIP3    H238655   0.881   3.779   1.309  0.7921 -0.7178 -1.0469
 5674TIP3   OH238656   2.465   0.003   0.628  0.1927 -0.3312 -0.0089
 5674TIP3    H138657   2.417  -0.029   0.552  1.0186 -0.9822 -0.2697
 5674TIP3    H238658   2.538  -0.057   0.637  1.8594  1.5188 -0.5576
 5675TIP3   OH238659   6.880   0.207   5.762 -0.0772 -0.1614  0.6368
 5675TIP3    H138660   6.949   0.164   5.712  1.1244  1.4134  0.8724
 5675TIP3    H238661   6.801   0.194   5.709  0.5303 -1.2718 -0.0531
 5676TIP3   OH238662   0.193   1.827   0.202  0.8815 -0.2349  0.0805
 5676TIP3    H138663   0.222   1.860   0.287  2.3512  0.9235 -0.8193
 5676TIP3    H238664   0.241   1.745   0.190 -1.4906 -1.9729  1.5627
 5677TIP3   OH238665   0.718   4.370   2.481 -0.1185  0.8305  0.1418
 5677TIP3    H138666   0.748   4.284   2.512 -0.1117  0.8954  0.3177
 5677TIP3    H238667   0.656   4.399   2.548 -1.6572  0.0783 -0.9054
 5678TIP3   OH238668   3.513   4.632   2.256 -0.0389 -0.2137  0.8000
 5678TIP3    H138669   3.561   4.563   2.211  0.1514  0.0409  0.6134
 5678TIP3    H238670   3.519   4.708   2.198  0.0229  0.0526  1.1501
 5679TIP3   OH238671   2.491   3.580   7.196  0.2107 -0.2520 -0.1659
 5679TIP3    H138672   2.536   3.633   7.130 -0.0407 -0.7976 -0.7942
 5679TIP3    H238673   2.527   3.492   7.185 -2.5517 -1.2876 -2.2899
 5680TIP3   OH238674   6.713   2.507   5.896  0.2365  0.1817 -0.3004
 5680TIP3    H138675   6.773   2.435   5.916 -1.8208 -1.6256 -0.2625
 5680TIP3    H238676   6.746   2.544   5.815 -0.5429 -3.1417 -2.3324
 5681TIP3   OH238677   6.460   1.849   6.796 -0.1897  0.2269 -0.3953
 5681TIP3    H138678   6.418   1.774   6.752 -0.6913 -1.4006  2.5895
 5681TIP3    H238679   6.553   1.830   6.792 -0.3559 -1.0442  1.0303
 5682TIP3   OH238680   5.929   1.891   7.783  0.0898 -0.2561  0.2915
 5682TIP3    H138681   5.957   1.895   7.691 -1.7152 -0.6828 -0.3090
 5682TIP3    H238682   6.009   1.911   7.833  0.8344  1.2296 -1.3817
 5683TIP3   OH238683   5.582   0.165   7.509  0.8706 -0.2712  0.5075
 5683TIP3    H138684   5.672   0.190   7.532  1.3560 -1.4566 -0.0183
 5683TIP3    H238685   5.567   0.084   7.558  0.6026 -0.8398 -0.4899
 5684TIP3   OH238686   0.586   5.680   1.369  0.3402 -0.4238  0.5299
 5684TIP3    H138687   0.554   5.752   1.423  2.3563  0.0356  1.1770
 5684TIP3    H238688   0.585   5.604   1.427 -1.0279 -0.7884  0.0758
 5685TIP3   OH238689   0.808   2.881   7.486 -0.4833  0.4051  0.1616
 5685TIP3    H138690   0.777   2.969   7.466 -0.9526  0.4211  0.9127
 5685TIP3    H238691   0.802   2.874   7.582 -2.6117 -1.1902 -0.0019
 5686TIP3   OH238692   3.081   5.631   0.174 -0.4261  0.1866 -0.5425
 5686TIP3    H138693   3.164   5.630   0.222 -1.0871 -1.6673  0.6463
 5686TIP3    H238694   3.015   5.644   0.241 -1.3118 -1.4505 -1.0560
 5687TIP3   OH238695   6.981   2.359   1.426 -0.2474 -0.2519 -0.0422
 5687TIP3    H138696   6.995   2.352   1.331 -1.1878 -1.2937 -0.1231
 5687TIP3    H238697   6.981   2.454   1.443  0.8575 -0.0640 -0.9182
 5688TIP3   OH238698   5.038   3.968   7.241 -0.0748 -0.1126 -0.6584
 5688TIP3    H138699   5.001   3.881   7.223 -0.0326 -0.0408 -1.0984
 5688TIP3    H238700   5.012   3.986   7.331 -0.9453 -0.1587 -0.8878
 5689TIP3   OH238701   4.293   6.877   7.064  0.4220  0.6177 -0.0686
 5689TIP3    H138702   4.284   6.806   7.001  0.1426  0.9707 -0.4367
 5689TIP3    H238703   4.227   6.941   7.037  3.4787  3.0734 -2.5788
 5690TIP3   OH238704   1.717   0.352   0.144 -0.1071  0.5241  0.6009
 5690TIP3    H138705   1.797   0.358   0.196 -0.4246 -0.8368  1.3165
 5690TIP3    H238706   1.646   0.369   0.207 -0.4333  0.3890  0.2748
 5691TIP3   OH238707   1.927   4.472   6.643 -0.1016  0.2534  0.1035
 5691TIP3    H138708   1.993   4.435   6.584  0.2963  1.2029 -0.0815
 5691TIP3    H238709   1.871   4.399   6.666 -0.0186 -0.2218 -1.1397
 5692TIP3   OH238710   6.322   0.919   0.630  0.0270  0.2743 -0.1368
 5692TIP3    H138711   6.275   0.998   0.605  0.6575  0.3579 -1.1058
 5692TIP3    H238712   6.254   0.859   0.659 -0.8886 -0.0928 -2.7516
 5693TIP3   OH238713   2.606   5.397   1.223  0.5100  0.3965 -0.3974
 5693TIP3    H138714   2.579   5.305   1.223  1.4749  0.0151 -3.1244
 5693TIP3    H238715   2.539   5.442   1.170  0.1258  1.2892  0.7834
 5694TIP3   OH238716   1.541   5.306   7.190  0.6880  0.1703 -0.1727
 5694TIP3    H138717   1.539   5.222   7.144 -0.6664 -0.2634  0.6083
 5694TIP3    H238718   1.594   5.363   7.134 -0.2475 -0.5573 -1.9015
 5695TIP3   OH238719   0.582   7.114   1.435 -0.3079  0.0775  0.2339
 5695TIP3    H138720   0.525   7.183   1.400 -0.0402  0.9958  1.5411
 5695TIP3    H238721   0.665   7.159   1.454  0.2729 -0.8710  0.0092
 5696TIP3   OH238722   1.707   0.492   1.534  0.1625 -0.2947  0.2588
 5696TIP3    H138723   1.645   0.541   1.588 -3.0675 -2.6085 -1.0379
 5696TIP3    H238724   1.766   0.451   1.597 -0.1311  1.2476  1.6279
 5697TIP3   OH238725   4.539   2.731   2.203 -0.1547  0.6168  0.5530
 5697TIP3    H138726   4.557   2.697   2.115  1.1168 -0.2617  1.1163
 5697TIP3    H238727   4.446   2.755   2.201 -0.0852  0.8819 -1.1026
 5698TIP3   OH238728   0.202   0.508   0.603 -0.4224  0.0187  0.6021
 5698TIP3    H138729   0.160   0.580   0.557 -0.1435 -1.1552 -1.6218
 5698TIP3    H238730   0.130   0.452   0.631 -0.6242  0.9677  2.1428
 5699TIP3   OH238731   6.017   6.373   0.676 -0.0070  0.4829  0.2075
 5699TIP3    H138732   5.987   6.447   0.624 -0.4430 -0.1735 -0.4898
 5699TIP3    H238733   5.951   6.364   0.745 -2.2983 -1.7611 -2.0523
 5700TIP3   OH238734   6.058   1.227   0.314 -0.2576 -0.1219  0.1326
 5700TIP3    H138735   6.146   1.217   0.279  1.0982 -1.1927  3.4566
 5700TIP3    H238736   6.027   1.311   0.280  2.6722  1.0351  0.0642
 5701TIP3   OH238737   0.333   2.941   6.626  0.1182 -0.1005 -0.0017
 5701TIP3    H138738   0.245   2.946   6.662  0.4644 -1.7567  1.2394
 5701TIP3    H238739   0.338   3.013   6.563 -1.7661  0.6393  0.6183
 5702TIP3   OH238740   6.780   4.860   6.501  0.6320 -0.9796  0.0890
 5702TIP3    H138741   6.789   4.766   6.518  0.3667 -0.8570  0.9485
 5702TIP3    H238742   6.706   4.866   6.441 -2.1854 -1.0824  3.2289
 5703TIP3   OH238743   4.891   2.098   7.569  0.1402  0.0751  0.0643
 5703TIP3    H138744   4.894   2.194   7.566  1.8898  0.1366  1.8994
 5703TIP3    H238745   4.973   2.070   7.530 -0.1015 -0.6616  0.0658
 5704TIP3   OH238746   6.106   3.215   0.289  0.3007 -0.4520  0.1895
 5704TIP3    H138747   6.057   3.152   0.235 -0.0283  0.3547 -0.4761
 5704TIP3    H238748   6.137   3.281   0.227  0.0833  0.3927  0.9568
 5705TIP3   OH238749   5.842   1.044   0.222  0.0416 -0.1846  0.0531
 5705TIP3    H138750   5.903   0.976   0.192 -1.0886 -1.0637 -0.3050
 5705TIP3    H238751   5.895   1.100   0.277  0.9900 -1.4267  0.4519
 5706TIP3   OH238752   3.440   1.828   6.507 -0.4281 -0.3855 -0.4415
 5706TIP3    H138753   3.493   1.831   6.428  1.0265 -2.5848  0.3299
 5706TIP3    H238754   3.382   1.752   6.494  0.1495 -1.0627  0.7253
 5707TIP3   OH238755   3.205   3.757   7.065 -0.0252  0.4472  0.3849
 5707TIP3    H138756   3.172   3.825   7.123 -1.3012 -1.5475  2.1468
 5707TIP3    H238757   3.129   3.702   7.047  1.0192 -0.6743 -0.7489
 5708TIP3   OH238758   4.776   1.961   6.935  0.3489 -0.0582  0.1876
 5708TIP3    H138759   4.696   1.909   6.936  0.6565 -0.5297  0.6675
 5708TIP3    H238760   4.758   2.035   6.993 -0.0218  0.2873 -0.3502
 5709TIP3   OH238761   5.206   3.954   5.957 -0.2443  0.5055 -0.3675
 5709TIP3    H138762   5.136   3.903   5.915  0.0896 -1.0317  0.8888
 5709TIP3    H238763   5.191   4.044   5.926 -3.5961  0.5218  0.8474
 5710TIP3   OH238764   3.243   3.160   7.183  0.8077 -0.4419 -0.2403
 5710TIP3    H138765   3.181   3.212   7.132  1.4875  0.2847 -0.3326
 5710TIP3    H238766   3.324   3.163   7.134  0.7242 -2.0800 -0.5419
 5711TIP3   OH238767   6.879   5.465   7.010 -0.1650 -0.4806 -0.3730
 5711TIP3    H138768   6.893   5.498   7.099 -1.3938  0.8523 -0.6251
 5711TIP3    H238769   6.783   5.461   7.002 -0.0780 -3.0500 -0.7873
 5712TIP3   OH238770   1.982   2.939   1.517 -0.4733 -0.0930 -0.0351
 5712TIP3    H138771   1.906   2.880   1.512 -0.3528 -0.1437 -1.8051
 5712TIP3    H238772   2.037   2.915   1.443  1.4685 -0.2495  1.3698
 5713TIP3   OH238773   6.240   4.282   0.099 -0.1347  0.6182  0.3087
 5713TIP3    H138774   6.311   4.315   0.154 -0.3427 -0.6856  1.4157
 5713TIP3    H238775   6.166   4.339   0.120  0.4330  1.7116 -0.5323
 5714TIP3   OH238776   4.538   0.694   6.896  0.4347 -0.2077 -0.5174
 5714TIP3    H138777   4.475   0.622   6.894 -0.0656  0.2321 -1.8016
 5714TIP3    H238778   4.490   0.769   6.859  0.9481  0.7997  0.7719
 5715TIP3   OH238779   4.911   1.553   1.564  0.3232  0.1032 -0.1960
 5715TIP3    H138780   4.896   1.545   1.469 -1.3493 -0.9510  0.1137
 5715TIP3    H238781   4.963   1.633   1.573  1.3814 -0.2974 -2.0662
 5716TIP3   OH238782   6.746   4.397   6.506  0.0610  0.3299 -0.5104
 5716TIP3    H138783   6.712   4.453   6.436 -0.3570  1.6905  0.7355
 5716TIP3    H238784   6.805   4.453   6.556  0.4689 -0.6576  0.1594
 5717TIP3   OH238785   3.400   5.188   0.338 -0.2099 -0.3474  0.5673
 5717TIP3    H138786   3.375   5.251   0.270 -0.4285  0.1301  1.0744
 5717TIP3    H238787   3.380   5.103   0.301  2.0302 -0.2961 -0.9874
 5718TIP3   OH238788   5.333   2.699   7.237 -0.2840 -0.1186  0.0050
 5718TIP3    H138789   5.394   2.765   7.204 -1.7742  0.6369 -1.3590
 5718TIP3    H238790   5.351   2.695   7.331  3.2948 -1.4705 -0.5670
 5719TIP3   OH238791   2.958   4.028   1.618  0.5999  0.3328 -0.2656
 5719TIP3    H138792   2.864   4.037   1.604  0.2198 -2.2221  0.1669
 5719TIP3    H238793   2.992   3.997   1.534  0.6618 -0.8723  0.1811
 5720TIP3   OH238794   4.631   3.241   6.608  0.3802 -0.2180  0.0870
 5720TIP3    H138795   4.705   3.261   6.551 -0.3354 -1.2674 -1.2361
 5720TIP3    H238796   4.648   3.293   6.687  2.2372 -0.0204 -0.3948
 5721TIP3   OH238797   5.654   4.846   0.236 -0.2065  0.1949 -0.4439
 5721TIP3    H138798   5.560   4.846   0.221 -0.3950 -1.3867  0.5262
 5721TIP3    H238799   5.666   4.902   0.313  0.0191  2.7060 -2.1731
 5722TIP3   OH238800   1.690   5.027   1.085 -0.5036  0.4510  0.5838
 5722TIP3    H138801   1.596   5.011   1.090 -0.4896 -0.1986 -0.7392
 5722TIP3    H238802   1.698   5.120   1.066 -0.9869  0.1305 -1.3625
 5723TIP3   OH238803   0.837   5.650   5.803  0.0644  0.2643  0.1567
 5723TIP3    H138804   0.901   5.678   5.738  2.1690  1.0967  2.4368
 5723TIP3    H238805   0.752   5.667   5.762  1.2511  0.1616 -2.5558
 5724TIP3   OH238806   3.486   5.593   2.051  0.4109  0.1795  0.7493
 5724TIP3    H138807   3.395   5.619   2.066  0.2935  0.6553 -0.6191
 5724TIP3    H238808   3.492   5.505   2.088 -0.5351  0.2505  1.1080
 5725TIP3   OH238809   2.990   2.090   7.389 -0.1395 -0.5570 -0.9545
 5725TIP3    H138810   3.060   2.027   7.375  0.5072 -0.5166  1.6891
 5725TIP3    H238811   3.026   2.173   7.357  0.9761 -0.5723  0.2133
 5726TIP3   OH238812   0.901   4.074   6.123 -0.0144  0.1954 -0.7891
 5726TIP3    H138813   0.860   4.148   6.079 -0.9356 -0.6124 -1.3336
 5726TIP3    H238814   0.829   4.015   6.144  0.7629 -0.8709 -0.9987
 5727TIP3   OH238815   5.142   3.845   8.012  0.7634  0.2460 -0.4441
 5727TIP3    H138816   5.103   3.909   8.071  1.0567 -0.8649  1.0114
 5727TIP3    H238817   5.067   3.796   7.977  0.6596 -0.0536  0.1764
 5728TIP3   OH238818   6.820   5.166   1.766  0.0407  0.0205  0.2157
 5728TIP3    H138819   6.799   5.073   1.752  0.1141  0.0344  0.0137
 5728TIP3    H238820   6.763   5.213   1.705  0.8383  0.0471 -0.5304
 5729TIP3   OH238821   4.166   0.863   0.458  0.0494  0.2214  0.2735
 5729TIP3    H138822   4.261   0.854   0.464 -0.0936 -1.9195  0.2398
 5729TIP3    H238823   4.148   0.872   0.365  0.2328  1.0374  0.3126
 5730TIP3   OH238824   6.657   0.543   6.626 -0.4853  0.1713 -0.3781
 5730TIP3    H138825   6.690   0.559   6.714 -0.6439  0.5075 -0.3764
 5730TIP3    H238826   6.717   0.479   6.588 -1.3446 -1.2511  0.5404
 5731TIP3   OH238827   0.085   4.474   0.074 -0.6364  0.2967  0.6587
 5731TIP3    H138828   0.154   4.451   0.137 -0.8909  1.1946  1.2765
 5731TIP3    H238829   0.073   4.568   0.084  0.8087  0.9084 -2.2738
 5732TIP3   OH238830   2.559   2.203   1.554  0.3693  0.1133 -0.0362
 5732TIP3    H138831   2.546   2.141   1.481  1.4865 -1.1272  0.7766
 5732TIP3    H238832   2.472   2.237   1.572 -0.1350 -0.5616 -1.0805
 5733TIP3   OH238833   0.271   1.412   6.642  0.0692 -0.4870 -0.5109
 5733TIP3    H138834   0.350   1.439   6.688  0.6141 -1.0299 -1.1144
 5733TIP3    H238835   0.283   1.443   6.552 -0.2520 -0.8521 -0.6826
 5734TIP3   OH238836   2.708   5.885   6.895  0.2456 -0.0135 -0.6182
 5734TIP3    H138837   2.775   5.863   6.960 -0.9218 -0.2131  0.5484
 5734TIP3    H238838   2.704   5.981   6.896 -0.6163 -0.0579  0.4915
 5735TIP3   OH238839   4.675   1.277   6.429  0.2969 -0.3213  0.7380
 5735TIP3    H138840   4.625   1.281   6.347 -2.5003  1.1840  2.3706
 5735TIP3    H238841   4.645   1.196   6.471  1.3636 -0.8328  0.5625
 5736TIP3   OH238842   3.150   6.132   0.037 -0.3544  0.2452  0.1136
 5736TIP3    H138843   3.198   6.058   0.077 -2.1600 -0.7579  0.5305
 5736TIP3    H238844   3.093   6.091  -0.028 -0.5055  1.4247 -0.5100
 5737TIP3   OH238845   3.797   0.694   7.088  0.9158 -0.0278  0.0792
 5737TIP3    H138846   3.734   0.724   7.023  1.6623  0.1871 -0.5723
 5737TIP3    H238847   3.744   0.658   7.159  0.0307  1.6174  0.2833
 5738TIP3   OH238848   0.952   3.272   1.453 -0.1799 -0.4143 -0.4049
 5738TIP3    H138849   0.900   3.211   1.401  1.0833 -1.5004 -0.4810
 5738TIP3    H238850   1.004   3.215   1.511 -2.0003  0.7256  2.6109
 5739TIP3   OH238851   2.183   0.834   7.807  0.2735  0.1843  0.0727
 5739TIP3    H138852   2.147   0.922   7.798  0.5290  0.3050  0.1936
 5739TIP3    H238853   2.185   0.799   7.718 -3.1778 -1.0819  0.3486
 5740TIP3   OH238854   1.238   3.901   0.870 -0.3603 -0.4363  0.3771
 5740TIP3    H138855   1.209   3.836   0.934  0.0974 -1.0766 -0.0596
 5740TIP3    H238856   1.321   3.868   0.837  0.1421  0.6269  0.5101
 5741TIP3   OH238857   0.859   0.396   1.117  0.2983  0.1252  0.8469
 5741TIP3    H138858   0.896   0.413   1.030 -0.6367 -0.9391  0.2111
 5741TIP3    H238859   0.933   0.404   1.177  0.6783  2.3636  0.1633
 5742TIP3   OH238860   0.644   6.263   1.701  0.2839  0.3382  0.0179
 5742TIP3    H138861   0.605   6.350   1.691 -2.3151 -0.4161  2.4573
 5742TIP3    H238862   0.681   6.263   1.789  0.7898 -0.8472 -0.1771
 5743TIP3   OH238863   6.351   1.389   6.113  0.5626 -0.2895 -0.1487
 5743TIP3    H138864   6.387   1.444   6.044 -1.0179 -0.2196 -0.9647
 5743TIP3    H238865   6.303   1.450   6.170  1.1520 -0.4602  0.5427
 5744TIP3   OH238866   5.725   1.360   0.917 -0.2795 -0.5131 -0.1298
 5744TIP3    H138867   5.798   1.404   0.961 -0.2765 -0.8648  0.2224
 5744TIP3    H238868   5.662   1.430   0.898 -1.3226 -0.6121  2.4785
 5745TIP3   OH238869   5.037   2.833   0.765  0.4712 -0.1998  0.1330
 5745TIP3    H138870   5.097   2.785   0.823  2.2222  1.7742  0.0947
 5745TIP3    H238871   4.978   2.879   0.825  1.0922  0.3863  0.3039
 5746TIP3   OH238872   5.950   5.606   1.491  0.6863 -0.1675 -0.1096
 5746TIP3    H138873   6.041   5.606   1.462  0.0013 -0.1388 -2.4323
 5746TIP3    H238874   5.919   5.517   1.475  0.0047  0.1034 -0.3342
 5747TIP3   OH238875   6.333   6.064   1.729  0.0263  0.4627 -0.2122
 5747TIP3    H138876   6.248   6.029   1.756  0.1930 -0.2947 -0.6304
 5747TIP3    H238877   6.314   6.150   1.691 -0.1598  1.9042  2.8159
 5748TIP3   OH238878   2.617   4.967   0.290 -0.0034  0.8179 -0.2293
 5748TIP3    H138879   2.650   4.953   0.378 -0.1557  1.0071 -0.1405
 5748TIP3    H238880   2.530   4.926   0.290 -0.3159  1.4772 -0.0637
 5749TIP3   OH238881   4.335   1.951   7.161 -0.3669  0.2290  0.2920
 5749TIP3    H138882   4.353   1.941   7.255 -0.7045 -1.3769  0.2074
 5749TIP3    H238883   4.254   2.003   7.158 -1.2769 -1.0973  0.9599
 5750TIP3   OH238884   3.297   1.311   0.256 -0.3417  0.2356 -0.3231
 5750TIP3    H138885   3.275   1.363   0.333 -0.9376 -1.7174  0.9116
 5750TIP3    H238886   3.343   1.235   0.292  1.9210  0.6267 -2.1969
 5751TIP3   OH238887   1.463   6.487   6.835  0.1802 -0.3451  0.4657
 5751TIP3    H138888   1.405   6.545   6.884 -1.2230 -0.1693 -1.3171
 5751TIP3    H238889   1.544   6.486   6.886 -1.1774 -0.2057  2.7784
 5752TIP3   OH238890   2.113   6.692   6.945 -0.4179 -0.2257  0.0176
 5752TIP3    H138891   2.118   6.658   6.855 -1.9042 -1.2880  0.3087
 5752TIP3    H238892   2.075   6.621   6.995 -0.9291  0.8658  1.2297
 5753TIP3   OH238893   2.905   3.503   0.941  0.1019 -0.2486 -0.2543
 5753TIP3    H138894   2.896   3.463   1.027 -0.7116 -0.4860 -0.4458
 5753TIP3    H238895   2.891   3.432   0.879  1.6474 -0.2955 -0.6073
 5754TIP3   OH238896   6.464   0.281   7.345 -0.0074 -0.3255 -0.1651
 5754TIP3    H138897   6.524   0.351   7.317 -0.0349 -0.8634 -1.6409
 5754TIP3    H238898   6.520   0.220   7.393 -0.0394  0.8411  1.4172
 5755TIP3   OH238899   4.054   5.516   1.151 -0.3217  0.2441  0.3178
 5755TIP3    H138900   4.004   5.598   1.139 -2.2784 -1.0608 -1.1178
 5755TIP3    H238901   3.988   5.452   1.176  0.8595 -1.3019 -0.4047
 5756TIP3   OH238902   4.366   4.304   6.239  0.6183  0.0645  0.2472
 5756TIP3    H138903   4.456   4.283   6.215  1.0515  1.4238  0.5803
 5756TIP3    H238904   4.347   4.246   6.313  0.9896 -0.6685 -0.2191
 5757TIP3   OH238905   4.409   5.521   8.117  0.1833 -0.7055 -0.0729
 5757TIP3    H138906   4.409   5.540   8.024  2.4920  1.0065  0.1720
 5757TIP3    H238907   4.332   5.566   8.151  0.4064  0.3613 -0.9175
 5758TIP3   OH238908   4.911   2.402   5.734  0.4474  0.2660 -0.0663
 5758TIP3    H138909   5.002   2.429   5.750  0.5412 -0.8974  1.5406
 5758TIP3    H238910   4.917   2.312   5.703 -0.1590  0.3231 -0.3813
 5759TIP3   OH238911   2.138   2.005   0.232 -0.6156 -0.4882 -0.7525
 5759TIP3    H138912   2.175   2.065   0.168  2.1704 -0.3560  0.8410
 5759TIP3    H238913   2.179   1.921   0.213 -2.5456 -1.3601 -1.3493
 5760TIP3   OH238914   5.777   0.311   0.010 -0.0834 -0.4776  0.2444
 5760TIP3    H138915   5.813   0.358  -0.065 -0.3485 -0.5817  0.0513
 5760TIP3    H238916   5.729   0.237  -0.028 -0.0262 -0.6622  0.5255
 5761TIP3   OH238917   7.091   1.481   5.786  0.3850 -0.8203  0.5921
 5761TIP3    H138918   7.184   1.504   5.784 -0.0321  0.9530 -1.3577
 5761TIP3    H238919   7.090   1.387   5.802  2.6212 -1.3002 -1.5321
 5762TIP3   OH238920   5.615   4.780   7.410 -0.5165 -0.3742 -0.0614
 5762TIP3    H138921   5.638   4.849   7.348 -0.2571 -0.4100 -0.0061
 5762TIP3    H238922   5.661   4.703   7.379  0.4779 -0.1302  0.7708
 5763TIP3   OH238923   3.562   0.649   7.572  0.0311 -0.1010  0.9531
 5763TIP3    H138924   3.513   0.731   7.562 -0.9424 -0.4540  2.3898
 5763TIP3    H238925   3.623   0.665   7.644  0.2548 -0.4498  0.8469
 5764TIP3   OH238926   4.755   0.090   6.764 -0.4355 -0.2921 -0.2887
 5764TIP3    H138927   4.786   0.174   6.730  0.6850 -0.7553 -0.4592
 5764TIP3    H238928   4.835   0.041   6.783 -1.0660 -0.8074  1.1409
 5765TIP3   OH238929   5.106   6.412   7.406  0.1489 -0.1542 -0.0202
 5765TIP3    H138930   5.020   6.375   7.425 -0.1748  0.7711  0.3751
 5765TIP3    H238931   5.105   6.498   7.448  0.4230  0.8249 -1.8988
 5766TIP3   OH238932   3.858   6.605   7.158 -0.1142  0.2382  0.7821
 5766TIP3    H138933   3.816   6.691   7.157 -1.1285 -0.2333  0.0557
 5766TIP3    H238934   3.927   6.612   7.224  0.6078  1.9657 -0.0906
 5767TIP3   OH238935   6.273   2.716   6.789 -0.4515  0.5585 -0.0968
 5767TIP3    H138936   6.190   2.671   6.774 -0.0102  0.3648 -2.3235
 5767TIP3    H238937   6.318   2.663   6.855 -1.7260  0.1947  0.5067
 5768TIP3   OH238938   6.696   4.126   2.272  0.4873 -0.6421  0.2609
 5768TIP3    H138939   6.758   4.105   2.202  0.3618  1.0726 -0.4208
 5768TIP3    H238940   6.610   4.115   2.232  0.4152  1.5401 -0.3063
 5769TIP3   OH238941   2.271   7.042   7.373 -0.5775  0.1494 -0.6800
 5769TIP3    H138942   2.329   7.012   7.442 -0.0379  1.4908 -0.5339
 5769TIP3    H238943   2.201   7.088   7.419 -1.2002 -0.5331 -0.9256
 5770TIP3   OH238944   5.395   5.781   8.065 -0.9832 -0.0280  0.3217
 5770TIP3    H138945   5.470   5.789   8.007 -1.1234 -0.2602  0.1068
 5770TIP3    H238946   5.430   5.739   8.144 -0.8065  0.2305  0.3792
 5771TIP3   OH238947   0.252   2.260   0.615 -0.0969 -0.5341 -0.2064
 5771TIP3    H138948   0.188   2.261   0.544  1.1522  0.6475 -1.3829
 5771TIP3    H238949   0.209   2.305   0.687  0.0822  2.2902 -1.6960
 5772TIP3   OH238950   5.380   2.305   6.783  0.1584  0.3887 -0.3032
 5772TIP3    H138951   5.449   2.281   6.845  2.5389  0.5121 -2.7265
 5772TIP3    H238952   5.346   2.388   6.815  2.8774  1.5697 -0.2887
 5773TIP3   OH238953   3.132   6.084   6.665  0.6580 -0.2683  0.5505
 5773TIP3    H138954   3.174   6.009   6.623  1.1658  0.9773 -1.3164
 5773TIP3    H238955   3.204   6.130   6.708  0.2679 -1.0785  2.1454
 5774TIP3   OH238956   1.089   5.666   0.444 -0.7454  0.0241 -0.6432
 5774TIP3    H138957   1.073   5.755   0.475  2.3294  1.3228 -2.3409
 5774TIP3    H238958   1.021   5.613   0.486 -2.9171  3.1780  0.1687
 5775TIP3   OH238959   1.002   1.589   1.762  0.2704  0.8100 -0.2268
 5775TIP3    H138960   0.958   1.525   1.818 -0.1949  0.8933 -0.4919
 5775TIP3    H238961   1.006   1.668   1.816 -2.1571  1.5863 -1.0119
 5776TIP3   OH238962   4.735   3.003   1.724 -0.1146 -0.0008  0.0895
 5776TIP3    H138963   4.771   3.026   1.810 -1.3569  2.4446  0.0430
 5776TIP3    H238964   4.646   2.972   1.743  0.3845 -1.7450 -0.1841
 5777TIP3   OH238965   0.522   6.165   0.091 -0.4422  0.0093  0.0482
 5777TIP3    H138966   0.481   6.135   0.172  1.4042 -2.4319  0.1797
 5777TIP3    H238967   0.576   6.092   0.062 -1.5332  0.4658 -3.8114
 5778TIP3   OH238968   3.686   6.257   1.495  0.4974 -0.0654 -0.2908
 5778TIP3    H138969   3.760   6.220   1.544  0.1962  0.3550  0.5061
 5778TIP3    H238970   3.640   6.182   1.459  0.2562 -0.4437  0.7754
 5779TIP3   OH238971   6.715   5.698   0.753 -0.4704  0.3696 -0.5168
 5779TIP3    H138972   6.707   5.701   0.657  0.0027 -0.0601 -0.5672
 5779TIP3    H238973   6.780   5.766   0.773 -1.1592  1.0206 -0.4281
 5780TIP3   OH238974   2.520   4.252   7.962  0.5425 -0.2800  0.8012
 5780TIP3    H138975   2.545   4.264   7.870  1.7462  1.7578  1.3199
 5780TIP3    H238976   2.595   4.208   8.002  0.7686  0.4191  1.1548
 5781TIP3   OH238977   2.422   5.048   0.909 -0.4908 -0.6191  0.1720
 5781TIP3    H138978   2.495   5.010   0.959 -0.4326 -0.3539  0.2916
 5781TIP3    H238979   2.417   5.139   0.940 -0.6345 -0.5322 -0.1042
 5782TIP3   OH238980   6.064   5.656   1.165  0.1160 -0.6018 -0.2651
 5782TIP3    H138981   6.108   5.736   1.191  2.2921 -1.7089 -0.3111
 5782TIP3    H238982   6.064   5.658   1.069 -2.2795  0.5464 -0.3111
 5783TIP3   OH238983   0.005   0.682   1.078 -0.6292  0.0944 -0.0868
 5783TIP3    H138984  -0.074   0.669   1.131 -0.2082 -0.9122  0.3274
 5783TIP3    H238985   0.034   0.771   1.099 -2.9061  1.4074 -1.9809
 5784TIP3   OH238986   0.438   3.130   7.565  0.1071 -0.0469 -0.3316
 5784TIP3    H138987   0.488   3.087   7.634 -1.7917 -2.3099 -0.2034
 5784TIP3    H238988   0.398   3.206   7.607  0.2799 -0.4752  0.6425
 5785TIP3   OH238989   1.709   2.169   1.557 -0.3970 -0.3642  0.4471
 5785TIP3    H138990   1.717   2.264   1.556 -0.2508 -0.3819 -0.1623
 5785TIP3    H238991   1.764   2.139   1.485 -0.9332 -0.8701  0.2412
 5786TIP3   OH238992   3.724   3.975   7.147  0.3702  0.4537 -1.1642
 5786TIP3    H138993   3.662   3.956   7.218  1.2209  1.4258 -0.1236
 5786TIP3    H238994   3.706   3.908   7.081 -2.0603  0.9313 -1.0898
 5787TIP3   OH238995   2.102   5.395   7.082  0.2125  0.0070 -0.6363
 5787TIP3    H138996   2.196   5.378   7.086  0.1463 -0.3200 -0.3984
 5787TIP3    H238997   2.066   5.349   7.158 -0.4337 -1.8577 -1.9969
 5788TIP3   OH238998   5.802   6.499   7.348  0.5573 -0.0880 -0.2785
 5788TIP3    H138999   5.864   6.538   7.409  2.6342  0.5004 -2.6253
 5788TIP3    H239000   5.772   6.572   7.294  0.1732 -0.8682 -1.1420
 5789TIP3   OH239001   0.608   3.942   1.668 -0.1416 -0.4396  0.2583
 5789TIP3    H139002   0.523   3.915   1.703 -0.7865  0.5967 -0.4518
 5789TIP3    H239003   0.658   3.861   1.661  0.5956 -0.6377  4.8659
 5790TIP3   OH239004   6.721   3.200   0.360  0.0431 -0.0923  0.4871
 5790TIP3    H139005   6.627   3.192   0.341  0.0395 -0.7490  0.7290
 5790TIP3    H239006   6.764   3.177   0.277 -0.0101  1.1710  0.0912
 5791TIP3   OH239007   4.216   3.241   7.229  0.3439  0.4431  0.2810
 5791TIP3    H139008   4.220   3.337   7.231  0.3034  0.4433  0.3495
 5791TIP3    H239009   4.177   3.221   7.144 -0.0574  0.5008  0.4501
 5792TIP3   OH239010   6.094   5.467   7.056 -0.8512 -0.1993  0.2674
 5792TIP3    H139011   6.172   5.497   7.103 -0.6252 -1.2870  0.6208
 5792TIP3    H239012   6.117   5.378   7.026 -2.8994 -1.7113  2.8082
 5793TIP3   OH239013   2.040   3.363   1.133  1.0386 -0.1359  0.3091
 5793TIP3    H139014   1.947   3.359   1.109  0.0950  1.4982  3.1843
 5793TIP3    H239015   2.051   3.295   1.198  2.0020 -0.5985 -0.3164
 5794TIP3   OH239016   3.407   0.600   6.879 -0.2464 -0.2553 -0.4823
 5794TIP3    H139017   3.445   0.548   6.950 -0.0234  1.2646  0.5547
 5794TIP3    H239018   3.443   0.687   6.892 -0.2037  0.0653 -2.4957
 5795TIP3   OH239019   6.834   5.719   0.005 -0.4931  0.0158 -0.0632
 5795TIP3    H139020   6.786   5.798   0.030 -0.1027 -0.2220  1.5591
 5795TIP3    H239021   6.864   5.736  -0.084 -1.8175  1.0065 -0.3477
 5796TIP3   OH239022   4.903   6.968   0.588  0.2148  0.3034 -0.6709
 5796TIP3    H139023   4.837   6.970   0.519  0.3669 -0.4229 -0.8480
 5796TIP3    H239024   4.857   6.997   0.666  0.0661  1.2511 -1.0839
 5797TIP3   OH239025   6.970   2.938   2.173  0.1514 -0.5213 -0.0181
 5797TIP3    H139026   6.920   2.857   2.184 -0.4603 -0.3373 -1.2813
 5797TIP3    H239027   6.913   2.994   2.120 -1.3334  2.4316  4.1630
 5798TIP3   OH239028   3.483   5.110   7.674 -1.2907 -0.3629 -0.2284
 5798TIP3    H139029   3.417   5.139   7.737  0.3835  1.7305  0.6787
 5798TIP3    H239030   3.539   5.050   7.723 -0.4127  0.7024  0.0981
 5799TIP3   OH239031   0.038   0.048   1.869 -0.0264  0.0220  0.5421
 5799TIP3    H139032   0.016  -0.021   1.806 -1.2265  0.6455  0.2417
 5799TIP3    H239033   0.110   0.012   1.919  0.0040 -1.0734 -0.2406
 5800TIP3   OH239034   4.503   2.163   7.704 -0.0155  0.0868  0.1933
 5800TIP3    H139035   4.547   2.220   7.766  0.6022 -1.0333  0.8178
 5800TIP3    H239036   4.571   2.135   7.644 -0.7486  1.7531 -1.5055
 5801TIP3   OH239037   7.078   5.896   6.395 -0.3698 -0.1803  0.1577
 5801TIP3    H139038   7.017   5.825   6.414 -1.0269  1.0756  3.3415
 5801TIP3    H239039   7.150   5.883   6.456  0.4896  0.7747 -0.6190
 5802TIP3   OH239040   2.270   4.925   2.217  0.1276 -0.2822 -0.6050
 5802TIP3    H139041   2.358   4.961   2.215  0.1164  0.0799  2.1399
 5802TIP3    H239042   2.276   4.850   2.277 -1.2715 -0.7501 -1.0127
 5803TIP3   OH239043   3.633   3.814   0.296  0.3684  0.2140  0.0627
 5803TIP3    H139044   3.635   3.720   0.314  0.3721 -0.4154 -2.7237
 5803TIP3    H239045   3.595   3.853   0.375  1.7813 -1.9145  1.9107
 5804TIP3   OH239046   6.773   0.021   2.185 -0.1218  0.3956 -1.0826
 5804TIP3    H139047   6.856   0.051   2.222  0.1954  0.7160 -2.0237
 5804TIP3    H239048   6.707   0.048   2.249  0.4963  0.0963 -0.3002
 5805TIP3   OH239049   3.696   4.088   1.192 -0.1908  0.0557  0.4337
 5805TIP3    H139050   3.766   4.024   1.205 -0.2461 -0.4964 -1.5920
 5805TIP3    H239051   3.733   4.152   1.131 -0.4652  1.4708  1.6823
 5806TIP3   OH239052   4.890   0.724   0.546 -0.1332  0.1550  0.4190
 5806TIP3    H139053   4.877   0.669   0.469 -0.6303  1.3015 -0.3366
 5806TIP3    H239054   4.985   0.732   0.553 -0.0918  0.4111 -0.3467
 5807TIP3   OH239055   7.080   4.690   1.839 -0.5006  0.2864 -0.0340
 5807TIP3    H139056   7.048   4.647   1.759 -1.2154  0.4256  0.1672
 5807TIP3    H239057   7.164   4.727   1.815 -0.1544 -0.6940 -0.3913
 5808TIP3   OH239058   0.611   1.545   7.877 -0.0487  0.1445  0.3643
 5808TIP3    H139059   0.598   1.628   7.923  3.3823  1.9478 -1.5326
 5808TIP3    H239060   0.588   1.564   7.786 -0.0641 -1.2753  0.0455
 5809TIP3   OH239061   1.752   4.646   6.779  0.2445  0.1388  0.8089
 5809TIP3    H139062   1.833   4.600   6.756  0.1963  0.1849  0.5472
 5809TIP3    H239063   1.763   4.668   6.872  0.8319  0.7593  0.6041
 5810TIP3   OH239064   4.562   4.828   7.510  0.5306 -0.0754 -0.1187
 5810TIP3    H139065   4.544   4.766   7.580 -3.2818  0.4651 -0.4175
 5810TIP3    H239066   4.590   4.908   7.555  0.5702 -0.4912  0.6102
 5811TIP3   OH239067   1.604   0.168   7.415  0.3366 -0.0256  0.9846
 5811TIP3    H139068   1.674   0.153   7.478 -0.0153 -0.1213  1.3526
 5811TIP3    H239069   1.570   0.255   7.437  1.3967  0.7407 -0.2114
 5812TIP3   OH239070   3.157   2.222   7.683 -0.1321  0.1023 -0.7333
 5812TIP3    H139071   3.230   2.282   7.699 -0.5602  0.6379 -0.7389
 5812TIP3    H239072   3.175   2.146   7.738  0.0603  0.5358 -0.1944
 5813TIP3   OH239073   0.864   1.065   0.664 -0.0203  0.2886  0.5814
 5813TIP3    H139074   0.799   1.105   0.723 -0.2055  1.6196 -0.4623
 5813TIP3    H239075   0.897   1.139   0.613 -0.1749 -0.8594 -1.2588
 5814TIP3   OH239076   7.051   3.661   8.118  0.0855 -0.4242 -0.3497
 5814TIP3    H139077   6.967   3.674   8.163  0.0900  2.5057 -0.9883
 5814TIP3    H239078   7.093   3.589   8.165 -1.8258 -0.4915  1.3898
 5815TIP3   OH239079   5.211   1.038   1.531 -0.2354 -0.7645  0.0751
 5815TIP3    H139080   5.200   0.960   1.478 -0.5433 -1.4069  1.0710
 5815TIP3    H239081   5.217   1.006   1.621  1.1838  0.2262  0.3732
 5816TIP3   OH239082   3.932   4.821   1.544  0.1009 -0.1624 -0.0659
 5816TIP3    H139083   3.932   4.811   1.449  2.3145 -2.2936  0.0453
 5816TIP3    H239084   3.883   4.901   1.560  2.9934  2.5717 -3.2664
 5817TIP3   OH239085   5.292   6.169   0.358 -0.1050  0.1439 -0.1388
 5817TIP3    H139086   5.367   6.223   0.383 -1.2025  1.8155 -0.3434
 5817TIP3    H239087   5.331   6.088   0.325  1.7410  1.8705 -2.5323
 5818TIP3   OH239088   2.064   7.020   7.963  0.6829 -0.0579 -0.2187
 5818TIP3    H139089   2.142   6.973   7.934  0.3566  0.0128 -1.2625
 5818TIP3    H239090   2.044   7.081   7.891 -0.7086 -0.5497 -0.2891
 5819TIP3   OH239091   0.968   7.117   6.676 -0.4371  0.6743 -0.0458
 5819TIP3    H139092   0.955   7.202   6.635 -0.6962 -0.3044 -2.0899
 5819TIP3    H239093   0.913   7.057   6.626  0.0991 -0.7988  1.0447
 5820TIP3   OH239094   2.748   2.244   7.458 -0.1298  0.4554 -0.0536
 5820TIP3    H139095   2.722   2.303   7.387  0.6243 -0.9825 -1.5720
 5820TIP3    H239096   2.707   2.161   7.436  2.1017 -0.6755 -0.1584
 5821TIP3   OH239097   3.678   6.489   2.092 -0.1718 -0.4864  0.5775
 5821TIP3    H139098   3.677   6.584   2.098 -0.4037 -0.3835 -0.7579
 5821TIP3    H239099   3.592   6.461   2.123  0.1998 -0.3352  1.7800
 5822TIP3   OH239100   4.932   5.334   6.299 -0.3215  0.0036  0.2447
 5822TIP3    H139101   4.842   5.337   6.330 -1.1424  0.1943 -1.9853
 5822TIP3    H239102   4.942   5.246   6.261  0.3005  0.1216  0.1162
 5823TIP3   OH239103   2.115   1.076   0.818  0.1380  0.8413  1.0349
 5823TIP3    H139104   2.186   1.072   0.753 -1.5567  1.7855 -0.9775
 5823TIP3    H239105   2.088   1.168   0.819 -1.7556  0.3252  0.9340
 5824TIP3   OH239106   0.191   5.836   0.138 -0.1626  0.2611  0.2097
 5824TIP3    H139107   0.245   5.772   0.183  1.1616  0.1375 -1.4482
 5824TIP3    H239108   0.217   5.920   0.176  2.6351  0.4215 -1.7156
 5825TIP3   OH239109   2.589   6.608   0.298  0.2180  0.4460  0.4550
 5825TIP3    H139110   2.613   6.517   0.316  1.0651  0.4339 -0.6685
 5825TIP3    H239111   2.599   6.652   0.383  2.2308  0.0025  0.5008
 5826TIP3   OH239112   0.661   1.615   5.868 -0.4446 -0.9999  0.0833
 5826TIP3    H139113   0.698   1.527   5.866  0.1082 -0.8055  0.9776
 5826TIP3    H239114   0.737   1.672   5.882 -0.8907 -0.4555  0.3128
 5827TIP3   OH239115   5.111   3.502   0.665 -0.1471  0.0929  0.2238
 5827TIP3    H139116   5.022   3.482   0.636 -0.2002  1.7724 -0.8974
 5827TIP3    H239117   5.167   3.438   0.621 -0.5828  0.4430 -0.8485
 5828TIP3   OH239118   6.548   5.906   0.582 -0.0894 -0.1039  0.0693
 5828TIP3    H139119   6.580   5.925   0.670 -1.4082 -1.2891  0.8446
 5828TIP3    H239120   6.609   5.840   0.548 -0.1024 -0.3159  0.4548
 5829TIP3   OH239121   2.656   5.961   1.260  0.0905 -0.0402 -0.2773
 5829TIP3    H139122   2.705   5.941   1.180 -1.9940 -0.3664 -1.5617
 5829TIP3    H239123   2.687   6.048   1.286  0.4960  0.2783 -1.7386
 5830TIP3   OH239124   6.828   3.192   0.080  0.3953  0.1427  0.1052
 5830TIP3    H139125   6.921   3.207   0.059  0.6953 -0.2644  1.0638
 5830TIP3    H239126   6.815   3.099   0.063  0.2472  0.1362  0.2546
 5831TIP3   OH239127   3.310   1.320   7.943 -0.0300 -0.5976 -0.0482
 5831TIP3    H139128   3.261   1.248   7.983  0.6158 -0.7851  0.4054
 5831TIP3    H239129   3.253   1.350   7.872 -1.7096  0.4592  1.6421
 5832TIP3   OH239130   0.558   1.577   7.623  0.0040  0.0207  0.1010
 5832TIP3    H139131   0.477   1.548   7.583  0.7755  0.3391 -1.7729
 5832TIP3    H239132   0.618   1.503   7.613  0.2876  0.1915  0.4716
 5833TIP3   OH239133   6.483   3.188   1.249 -0.8157 -0.7190  0.0045
 5833TIP3    H139134   6.465   3.245   1.323 -0.1826 -1.2568  0.5783
 5833TIP3    H239135   6.514   3.247   1.180 -1.2065 -0.2471  0.2254
 5834TIP3   OH239136   6.299   3.767   2.236 -0.5791 -0.2265  0.4516
 5834TIP3    H139137   6.336   3.846   2.275  1.5254 -0.3509 -1.1143
 5834TIP3    H239138   6.337   3.695   2.288 -0.5586 -0.2746  0.3704
 5835TIP3   OH239139   0.143   2.671   0.208  0.3735  0.0003 -0.0003
 5835TIP3    H139140   0.145   2.589   0.159  0.2972  0.5402 -0.9421
 5835TIP3    H239141   0.050   2.690   0.220  0.3748 -0.8880  1.7135
 5836TIP3   OH239142   5.669   4.467   0.266 -0.4167 -0.1726 -0.1363
 5836TIP3    H139143   5.643   4.375   0.265  0.2364 -0.3651 -0.5357
 5836TIP3    H239144   5.705   4.483   0.178 -0.2159  0.3712  0.0386
 5837TIP3   OH239145   5.494   4.996   0.021  0.2207  0.1242 -0.5022
 5837TIP3    H139146   5.560   4.996   0.091 -0.5458 -0.7342  0.2382
 5837TIP3    H239147   5.466   5.088   0.016  1.1680  0.4236 -0.5477
 5838TIP3   OH239148   0.500   1.642   6.427 -0.1035  0.3286  0.3876
 5838TIP3    H139149   0.511   1.592   6.508  0.1442 -1.3485 -0.6216
 5838TIP3    H239150   0.446   1.585   6.372  1.3628  0.5226 -1.3248
 5839TIP3   OH239151   0.860   1.604   6.175  0.7994  0.0406 -0.2634
 5839TIP3    H139152   0.906   1.521   6.165  1.3260  0.3182 -0.1805
 5839TIP3    H239153   0.879   1.652   6.094  0.2353 -0.0455 -0.4492
 5840TIP3   OH239154   3.450   4.373   6.262 -0.4403 -0.0921  0.2856
 5840TIP3    H139155   3.468   4.332   6.177  0.3752  2.7239 -0.9911
 5840TIP3    H239156   3.512   4.332   6.322 -0.1619 -1.2299 -0.7353
 5841TIP3   OH239157   1.698   5.521   7.544 -0.1549 -0.0714 -0.0417
 5841TIP3    H139158   1.696   5.436   7.499 -1.5331  0.0532 -0.2535
 5841TIP3    H239159   1.615   5.562   7.521  0.0177  0.8691  0.9580
 5842TIP3   OH239160   3.591   2.770   6.329  0.0810 -0.5754  0.7926
 5842TIP3    H139161   3.569   2.684   6.365 -0.4180 -0.4053  0.9043
 5842TIP3    H239162   3.617   2.822   6.406 -0.7211 -0.2934  0.8832
 5843TIP3   OH239163   0.820   4.110   1.255  0.5229  0.0672  0.5248
 5843TIP3    H139164   0.858   4.023   1.241  0.3308 -0.1074  1.0538
 5843TIP3    H239165   0.737   4.093   1.301  0.6600  0.5483  0.9642
 5844TIP3   OH239166   3.029   0.003   2.062 -0.5584 -0.1934  0.2371
 5844TIP3    H139167   2.935   0.012   2.076 -0.4117 -1.5932  3.0048
 5844TIP3    H239168   3.068   0.066   2.122  0.2824 -0.2589 -0.2275
 5845TIP3   OH239169   1.812   4.729   7.037  0.3328 -0.4359  0.1547
 5845TIP3    H139170   1.740   4.691   7.088  0.0287  0.5155  0.4496
 5845TIP3    H239171   1.821   4.818   7.070  0.9931 -0.2176 -0.5733
 5846TIP3   OH239172   1.312   2.621   0.785 -0.1126 -0.1128  0.0917
 5846TIP3    H139173   1.404   2.641   0.802 -0.3401  1.1233 -0.0912
 5846TIP3    H239174   1.309   2.525   0.786  1.2717 -0.1891 -0.4657
 5847TIP3   OH239175   5.609   4.361   0.865 -0.1298  0.3716  0.5550
 5847TIP3    H139176   5.653   4.446   0.870  1.9519 -0.5764 -0.3145
 5847TIP3    H239177   5.653   4.308   0.932 -1.1037 -0.1604  0.7858
 5848TIP3   OH239178   0.562   6.629   1.799 -0.3999  0.1563 -0.2134
 5848TIP3    H139179   0.607   6.604   1.718 -1.0713 -0.9292 -0.2761
 5848TIP3    H239180   0.471   6.645   1.772 -0.8851 -1.2678  0.4606
 5849TIP3   OH239181   3.790   1.001   7.966 -0.1175  0.4303 -0.0060
 5849TIP3    H139182   3.823   0.997   7.877 -0.0679  0.6796  0.0016
 5849TIP3    H239183   3.695   1.008   7.957 -0.2026 -0.5872 -0.0254
 5850TIP3   OH239184   2.758   5.825   1.612 -0.8900  0.2323 -0.1257
 5850TIP3    H139185   2.779   5.918   1.600  0.0517  0.1095  0.5620
 5850TIP3    H239186   2.823   5.779   1.559  0.1762 -0.1175  1.4333
 5851TIP3   OH239187   3.286   0.796   7.544 -0.1848  0.6571  0.0695
 5851TIP3    H139188   3.270   0.726   7.481 -2.2527  0.8938  0.2716
 5851TIP3    H239189   3.264   0.758   7.628  0.0246  1.1491  0.3504
 5852TIP3   OH239190   6.206   3.058   5.573  0.6122  0.5870  0.3995
 5852TIP3    H139191   6.167   2.972   5.562  1.3779  0.0965  1.3478
 5852TIP3    H239192   6.176   3.108   5.497  1.5135 -0.9975 -1.0683
 5853TIP3   OH239193   3.221   3.939   6.673  0.1679  0.3141  0.4805
 5853TIP3    H139194   3.173   3.998   6.614 -1.3734 -1.0295  0.3099
 5853TIP3    H239195   3.189   3.961   6.760 -0.4015 -0.2247  0.4177
 5854TIP3   OH239196   3.748   2.527   1.123  0.7655  0.3362 -0.6694
 5854TIP3    H139197   3.710   2.485   1.201  2.4687  0.6747  0.3901
 5854TIP3    H239198   3.703   2.611   1.118  0.2270  0.0757 -0.4111
 5855TIP3   OH239199   4.533   1.833   6.750 -0.7489  0.1119  0.2650
 5855TIP3    H139200   4.519   1.894   6.822  0.3871 -0.2789  0.8222
 5855TIP3    H239201   4.600   1.874   6.696 -1.0046  0.0145 -0.1345
 5856TIP3   OH239202   5.665   2.862   6.121  0.0680 -0.6155  0.4208
 5856TIP3    H139203   5.723   2.804   6.170 -0.8581 -2.0075 -0.0739
 5856TIP3    H239204   5.683   2.841   6.029  0.1545  0.3227  0.2196
 5857TIP3   OH239205   5.035   5.783   0.394  0.4404 -0.5509  0.1276
 5857TIP3    H139206   5.121   5.763   0.431  0.3332  1.0297  1.3501
 5857TIP3    H239207   5.029   5.727   0.317  2.1309 -1.4488  0.5819
 5858TIP3   OH239208   5.853   1.634   5.595  0.3330  0.1296 -0.2977
 5858TIP3    H139209   5.830   1.718   5.555 -1.7667 -1.1187 -1.9316
 5858TIP3    H239210   5.812   1.636   5.681 -0.8926  0.2890 -0.8617
 5859TIP3   OH239211   6.011   4.297   6.669  0.1138 -0.0251  0.3734
 5859TIP3    H139212   5.934   4.346   6.699  0.5000  0.2278  0.9745
 5859TIP3    H239213   6.084   4.358   6.682  0.1802  0.5956 -2.2646
 5860TIP3   OH239214   5.437   3.544   0.618 -0.3600 -0.3587  0.0357
 5860TIP3    H139215   5.445   3.599   0.696 -2.4405 -1.5206  1.1620
 5860TIP3    H239216   5.368   3.586   0.566 -1.2337 -1.2993  0.4071
 5861TIP3   OH239217   4.494   5.935   7.485  0.2949 -0.0316 -0.0690
 5861TIP3    H139218   4.511   5.841   7.475 -0.7026 -0.3474  1.0240
 5861TIP3    H239219   4.408   5.948   7.444  0.5143  0.4397 -0.3835
 5862TIP3   OH239220   1.275   2.250   1.495  0.8424 -0.3595 -0.4497
 5862TIP3    H139221   1.327   2.307   1.437  1.2382 -1.2935 -1.0243
 5862TIP3    H239222   1.339   2.193   1.537  0.3520 -1.1179 -0.7095
 5863TIP3   OH239223   3.189   0.072   7.637  0.0449  0.3405 -0.8207
 5863TIP3    H139224   3.220   0.107   7.554 -0.4503 -0.5171 -1.3857
 5863TIP3    H239225   3.097   0.099   7.642  0.1258  0.5629 -0.4489
 5864TIP3   OH239226   1.043   4.725   1.693 -0.4162  0.4561 -0.9280
 5864TIP3    H139227   1.012   4.746   1.781  2.0388  0.6638 -0.0331
 5864TIP3    H239228   0.972   4.674   1.654 -1.0556 -0.8077  1.6388
 5865TIP3   OH239229   5.753   5.845   7.503 -0.0584 -0.1179  0.1382
 5865TIP3    H139230   5.808   5.875   7.431  1.9058 -2.4895  0.5010
 5865TIP3    H239231   5.676   5.806   7.460  1.1714 -1.6719 -0.7772
 5866TIP3   OH239232   3.916   5.260   0.976 -0.1382  0.3066  0.7241
 5866TIP3    H139233   3.880   5.189   0.924 -1.4674  0.5687  1.2443
 5866TIP3    H239234   3.905   5.338   0.921 -0.0569  0.3351  0.7479
 5867TIP3   OH239235   5.550   5.730   6.112  0.0867  0.3060  0.3279
 5867TIP3    H139236   5.596   5.807   6.144  0.7882  0.4802 -1.0141
 5867TIP3    H239237   5.534   5.749   6.019  1.4988 -1.7258 -0.3885
 5868TIP3   OH239238   4.644   0.948   1.178 -0.0055 -0.1029 -0.3224
 5868TIP3    H139239   4.605   0.995   1.105 -0.9866  0.5946  0.6136
 5868TIP3    H239240   4.716   1.003   1.207 -0.0470 -0.0469 -0.3275
 5869TIP3   OH239241   1.176   2.716   6.420 -0.6447 -0.0222  0.2708
 5869TIP3    H139242   1.099   2.676   6.380 -0.5352  0.5875 -0.5605
 5869TIP3    H239243   1.179   2.805   6.384 -0.3514  0.4352  1.3659
 5870TIP3   OH239244   6.019   1.980   7.275  0.3355 -0.4320  0.0288
 5870TIP3    H139245   5.943   1.924   7.266  0.2015 -0.1902 -0.3417
 5870TIP3    H239246   6.090   1.931   7.234  0.5242 -0.9388  0.9405
 5871TIP3   OH239247   3.875   5.856   5.989  0.6123  0.5452  0.1334
 5871TIP3    H139248   3.970   5.852   5.977  0.6116  1.1190 -0.0809
 5871TIP3    H239249   3.854   5.780   6.044  1.0605 -0.1900 -0.6843
 5872TIP3   OH239250   6.671   1.350   6.120  0.3361 -0.2566 -0.4136
 5872TIP3    H139251   6.635   1.353   6.031 -0.5974 -0.1833 -0.0531
 5872TIP3    H239252   6.644   1.264   6.154 -0.7817  0.3534  0.3557
 5873TIP3   OH239253   0.733   5.286   5.935 -0.1540 -0.2549  0.1490
 5873TIP3    H139254   0.750   5.196   5.964 -1.1092 -0.1510  1.0703
 5873TIP3    H239255   0.655   5.280   5.880  0.5167 -0.1597 -0.8388
 5874TIP3   OH239256   6.231   0.697   0.974 -0.2328 -0.5834 -0.5355
 5874TIP3    H139257   6.288   0.774   0.965  1.3049 -1.3918  1.5175
 5874TIP3    H239258   6.145   0.733   0.993 -0.4418  0.6620 -3.2932
 5875TIP3   OH239259   4.088   3.520   6.511 -0.3572 -0.1393 -0.3896
 5875TIP3    H139260   4.117   3.608   6.487 -1.6739 -0.1666 -2.2709
 5875TIP3    H239261   4.156   3.462   6.475 -0.5519  0.0210 -1.0376
 5876TIP3   OH239262   2.698   6.176   6.982 -0.6232  0.1926 -0.0552
 5876TIP3    H139263   2.757   6.212   6.916 -1.6316 -0.1197 -1.1491
 5876TIP3    H239264   2.721   6.224   7.062  1.3319 -0.1612 -0.3394
 5877TIP3   OH239265   4.728   7.008   0.045 -0.2436 -0.2697 -0.3898
 5877TIP3    H139266   4.708   7.100   0.026 -3.1502 -0.3856  1.5001
 5877TIP3    H239267   4.665   6.958  -0.006 -0.3828 -1.0581  0.5172
 5878TIP3   OH239268   5.789   3.144   8.108  0.3157  0.0613  0.3040
 5878TIP3    H139269   5.718   3.160   8.170 -0.2118  1.1924 -0.5492
 5878TIP3    H239270   5.837   3.227   8.105  0.1453  0.1267 -1.0248
 5879TIP3   OH239271   4.957   0.735   1.186 -0.0952  0.1721 -0.0974
 5879TIP3    H139272   4.888   0.714   1.122 -1.1493  3.6722 -0.3093
 5879TIP3    H239273   5.018   0.791   1.139  0.8486  0.2275  1.1378
 5880TIP3   OH239274   1.603   4.417   1.927  0.4980  0.0758  0.4056
 5880TIP3    H139275   1.692   4.382   1.940  0.4673 -0.6968 -1.2455
 5880TIP3    H239276   1.549   4.367   1.989  1.1187  0.1680  1.0381
 5881TIP3   OH239277   6.977   2.731   0.594 -0.2246 -0.0918  0.1307
 5881TIP3    H139278   6.940   2.746   0.681 -0.3258 -1.6842  0.3921
 5881TIP3    H239279   6.903   2.699   0.541 -0.1153  0.6477 -0.4934
 5882TIP3   OH239280   5.658   2.934   0.861 -0.0039 -0.3564 -0.6654
 5882TIP3    H139281   5.628   2.847   0.888  1.9138 -0.6583  0.6395
 5882TIP3    H239282   5.672   2.981   0.944  2.3536 -0.0129 -1.2002
 5883TIP3   OH239283   3.680   6.684   0.674 -0.0958 -0.3977  0.9656
 5883TIP3    H139284   3.761   6.652   0.634 -0.3389 -1.3668  1.2282
 5883TIP3    H239285   3.699   6.775   0.697 -0.1071  0.3699 -1.7537
 5884TIP3   OH239286   0.453   4.077   7.812 -0.4174  0.2028  0.4707
 5884TIP3    H139287   0.483   3.988   7.826 -1.2627 -0.4047 -1.2298
 5884TIP3    H239288   0.502   4.107   7.735 -1.0383  0.7269  0.2665
 5885TIP3   OH239289   2.721   1.284   1.747  0.2241 -0.7421 -0.2256
 5885TIP3    H139290   2.801   1.287   1.694  0.3792 -0.5846  0.0157
 5885TIP3    H239291   2.751   1.262   1.835  0.0725 -0.0333  0.0072
 5886TIP3   OH239292   4.323   1.345   0.404 -0.1664 -0.5242  0.1070
 5886TIP3    H139293   4.335   1.374   0.314 -1.0361 -3.2393 -0.9567
 5886TIP3    H239294   4.351   1.254   0.404  2.2897  0.0382  3.2279
 5887TIP3   OH239295   6.372   0.117   1.313  0.2982  0.6422 -0.4745
 5887TIP3    H139296   6.392   0.210   1.306  2.6566  0.1692 -1.0283
 5887TIP3    H239297   6.430   0.086   1.383 -0.3437 -0.4432 -0.4075
 5888TIP3   OH239298   5.600   6.558   7.016 -0.1569 -0.2281 -0.0744
 5888TIP3    H139299   5.559   6.553   7.102 -0.7913  1.9163 -0.1968
 5888TIP3    H239300   5.546   6.621   6.967  1.2951  0.0571 -1.3873
 5889TIP3   OH239301   0.768   6.177   0.558 -0.3373 -0.1045  0.0509
 5889TIP3    H139302   0.859   6.183   0.586  0.4986 -0.2055 -2.4012
 5889TIP3    H239303   0.738   6.093   0.592 -0.5928  1.2767  3.5787
 5890TIP3   OH239304   5.827   1.143   1.655 -0.2679 -0.0080  0.0411
 5890TIP3    H139305   5.839   1.115   1.564  1.8992  0.6822  0.0376
 5890TIP3    H239306   5.795   1.233   1.648  2.7532  1.1838 -0.2112
 5891TIP3   OH239307   6.597   5.288   6.950  0.0529 -0.1900 -0.6043
 5891TIP3    H139308   6.625   5.236   7.025  1.2565  0.4126 -0.6101
 5891TIP3    H239309   6.583   5.224   6.880 -0.2009 -0.6616 -0.1335
 5892TIP3   OH239310   6.157   1.659   1.554  0.2008  0.0339  0.3406
 5892TIP3    H139311   6.078   1.660   1.607  0.3787 -1.3137  0.6719
 5892TIP3    H239312   6.127   1.635   1.466  0.2322 -0.4476  0.4596
 5893TIP3   OH239313   2.227   1.464   8.048  0.2995  0.2493 -0.5298
 5893TIP3    H139314   2.304   1.407   8.049  1.3742  1.6479 -0.6028
 5893TIP3    H239315   2.231   1.511   8.131  0.2560  1.2781 -1.1017
 5894TIP3   OH239316   1.736   2.463   7.958 -0.2635  0.1665 -0.3030
 5894TIP3    H139317   1.809   2.402   7.966 -1.6501 -1.6315 -0.8142
 5894TIP3    H239318   1.717   2.490   8.047  1.0947  0.7718 -0.1779
 5895TIP3   OH239319   6.192   2.339   7.867  0.1605 -0.7310 -0.2812
 5895TIP3    H139320   6.195   2.314   7.775 -1.3015 -0.0601 -0.5295
 5895TIP3    H239321   6.152   2.426   7.867 -1.5813 -1.4786  1.1159
 5896TIP3   OH239322   6.705   4.520   7.652 -0.5224  0.5487 -0.5446
 5896TIP3    H139323   6.758   4.586   7.607 -0.3554 -1.5233 -3.6848
 5896TIP3    H239324   6.615   4.552   7.645 -0.2070  1.8099  0.6476
 5897TIP3   OH239325   5.209   3.700   0.515 -0.0294 -0.0614  0.2108
 5897TIP3    H139326   5.145   3.657   0.572 -1.4256  0.8573 -0.6169
 5897TIP3    H239327   5.157   3.737   0.444  1.5171  0.0889 -0.8838
 5898TIP3   OH239328   0.893   2.287   6.101  0.6520  0.4408  0.1639
 5898TIP3    H139329   0.965   2.334   6.059 -0.2774  2.9647  1.1885
 5898TIP3    H239330   0.817   2.305   6.047  0.2667  0.0330  0.5602
 5899TIP3   OH239331   0.884   5.854   7.932 -0.1854 -0.5130 -0.0660
 5899TIP3    H139332   0.894   5.809   8.016  0.7581  1.1413  0.7670
 5899TIP3    H239333   0.815   5.918   7.947  1.7792  1.6249  0.3484
 5900TIP3   OH239334   4.116   2.098   7.201 -0.6030  0.0182 -0.0695
 5900TIP3    H139335   4.039   2.120   7.254 -1.9288 -0.1897 -1.8371
 5900TIP3    H239336   4.147   2.182   7.168 -0.0205  0.1072  0.6854
 5901TIP3   OH239337   5.477   5.660   0.167 -0.2167  0.4187 -0.2496
 5901TIP3    H139338   5.417   5.593   0.199  0.9948 -1.2550 -1.3240
 5901TIP3    H239339   5.540   5.672   0.238  0.0232 -0.1767 -0.3587
 5902TIP3   OH239340   2.708   0.735   6.138 -0.2274  0.2692  0.0580
 5902TIP3    H139341   2.700   0.645   6.170  0.1989 -0.4469 -1.7023
 5902TIP3    H239342   2.747   0.783   6.210 -0.7404 -0.8901  1.1403
 5903TIP3   OH239343   4.607   5.764   0.769 -0.0541 -0.5987 -0.2121
 5903TIP3    H139344   4.665   5.726   0.703  1.3496 -0.1546  0.7098
 5903TIP3    H239345   4.590   5.693   0.831  0.2956 -0.4754  0.0277
 5904TIP3   OH239346   5.604   3.708   7.534 -0.2469  0.7511  0.2323
 5904TIP3    H139347   5.536   3.647   7.504  0.4551 -0.4953  1.0939
 5904TIP3    H239348   5.686   3.671   7.501  0.3615  0.2805  2.1662
 5905TIP3   OH239349   3.203   4.892   1.117 -0.3104 -0.0272 -0.2950
 5905TIP3    H139350   3.212   4.973   1.165  0.8399  0.1442 -0.7783
 5905TIP3    H239351   3.267   4.833   1.156 -2.2500 -1.3113  1.1844
 5906TIP3   OH239352   0.885   5.368   0.796 -0.0473 -0.1396 -0.1201
 5906TIP3    H139353   0.910   5.392   0.885 -0.5299 -0.9459  0.2402
 5906TIP3    H239354   0.791   5.385   0.792 -0.5393 -2.4001  0.3343
 5907TIP3   OH239355   7.080   1.903   1.394  0.2795 -0.4634  0.1092
 5907TIP3    H139356   7.131   1.862   1.324 -0.4397  1.0723 -1.3842
 5907TIP3    H239357   7.143   1.956   1.442  0.1939  1.6487 -1.8942
 5908TIP3   OH239358   2.970   4.830   7.870 -0.0844  0.6185  0.2700
 5908TIP3    H139359   2.993   4.915   7.833  1.3226 -0.5430 -1.7173
 5908TIP3    H239360   2.892   4.802   7.822 -0.2090  0.5194  0.5215
 5909TIP3   OH239361   2.906   5.642   5.932 -0.1931  0.0041  0.1372
 5909TIP3    H139362   2.956   5.658   5.852 -0.9659 -0.7173 -0.5122
 5909TIP3    H239363   2.897   5.547   5.936 -0.5600  0.0611  0.8374
 5910TIP3   OH239364   4.210   2.793   1.602  0.2353 -0.4981 -0.2605
 5910TIP3    H139365   4.289   2.768   1.650 -0.6433 -1.7160  0.6263
 5910TIP3    H239366   4.232   2.775   1.511  1.5582  0.8333 -0.2546
 5911TIP3   OH239367   0.492   5.412   1.125  0.8887  0.4552 -0.4015
 5911TIP3    H139368   0.423   5.476   1.139 -0.3375 -0.1166 -3.1507
 5911TIP3    H239369   0.542   5.411   1.207 -0.1190  3.5595  0.3592
 5912TIP3   OH239370   6.516   6.346   1.505  0.0601  0.4766 -0.0445
 5912TIP3    H139371   6.570   6.311   1.577  1.2049  0.0145 -1.0793
 5912TIP3    H239372   6.426   6.341   1.538  0.1326 -3.3504 -0.0179
 5913TIP3   OH239373   0.175   4.075   1.813  0.3679 -0.4107 -0.2440
 5913TIP3    H139374   0.111   4.110   1.876 -1.3184 -1.6111 -1.1989
 5913TIP3    H239375   0.247   4.045   1.867 -0.5167 -0.3567  1.0246
 5914TIP3   OH239376   4.788   2.593   1.595  0.0381  0.4852  0.3735
 5914TIP3    H139377   4.785   2.538   1.517 -3.2056 -1.7181  1.8021
 5914TIP3    H239378   4.723   2.661   1.580  1.1997  1.6117  0.2310
 5915TIP3   OH239379   5.804   5.359   6.044 -0.1242  0.1744  0.5345
 5915TIP3    H139380   5.850   5.423   5.989 -1.3809  2.0405  1.5651
 5915TIP3    H239381   5.717   5.352   6.005 -0.0256 -0.8703  0.4822
 5916TIP3   OH239382   1.215   2.296   7.583  0.1948 -0.0802  0.5891
 5916TIP3    H139383   1.202   2.374   7.530 -0.1713 -1.2953 -1.1946
 5916TIP3    H239384   1.127   2.265   7.604  0.2835 -1.2459 -0.6551
 5917TIP3   OH239385   4.968   0.689   7.173  0.6790  0.3880  0.5336
 5917TIP3    H139386   4.917   0.699   7.092 -0.7211 -0.4623  1.2671
 5917TIP3    H239387   5.059   0.693   7.144  0.2116  0.6427 -1.0175
 5918TIP3   OH239388   4.971   4.554   1.437  0.7634 -0.2164 -0.1472
 5918TIP3    H139389   4.954   4.566   1.343  1.1104  0.3596 -0.1368
 5918TIP3    H239390   4.897   4.502   1.468  0.9732 -0.9828 -0.8748
 5919TIP3   OH239391   4.552   4.440   0.950 -0.0486  0.6258 -0.2785
 5919TIP3    H139392   4.579   4.520   0.906  0.3063  2.0006  2.2996
 5919TIP3    H239393   4.484   4.403   0.892  0.6741  2.0575 -2.1466
 5920TIP3   OH239394   3.388   2.187   0.781 -0.4485  0.2190  0.2934
 5920TIP3    H139395   3.351   2.109   0.823  1.8498 -0.9150  0.4241
 5920TIP3    H239396   3.354   2.185   0.692 -1.7645  0.0490  0.7783
 5921TIP3   OH239397   2.201   6.822   0.588  0.3309 -0.2080  0.2685
 5921TIP3    H139398   2.158   6.802   0.671 -1.0697  0.6525 -0.2172
 5921TIP3    H239399   2.236   6.910   0.599  0.8170 -0.3856  0.1939
 5922TIP3   OH239400   0.747   5.784   6.256  0.3244  0.0000 -0.6260
 5922TIP3    H139401   0.786   5.780   6.168  0.3911 -0.5712 -0.5799
 5922TIP3    H239402   0.673   5.843   6.247  0.8312  0.6120 -0.8672
 5923TIP3   OH239403   5.601   6.320   1.217 -0.0561  0.1713  0.0484
 5923TIP3    H139404   5.681   6.372   1.205 -0.9080  0.9869 -2.9038
 5923TIP3    H239405   5.605   6.254   1.147 -0.8609 -1.3049  1.3412
 5924TIP3   OH239406   6.190   0.266   7.257  0.1677 -0.3107  0.3110
 5924TIP3    H139407   6.210   0.195   7.196  1.7877  0.2530  0.1607
 5924TIP3    H239408   6.275   0.305   7.278 -0.5046  0.4049  1.8387
 5925TIP3   OH239409   2.644   1.838   0.901 -0.5892 -0.5135 -0.3174
 5925TIP3    H139410   2.555   1.844   0.936 -0.4104 -1.2875  0.3095
 5925TIP3    H239411   2.675   1.751   0.929  0.1507 -0.4919 -1.0277
 5926TIP3   OH239412   2.871   1.508   6.664 -0.9772  0.2527  0.5710
 5926TIP3    H139413   2.817   1.434   6.636 -0.7998 -0.3779  1.8239
 5926TIP3    H239414   2.859   1.511   6.759 -2.4045  2.9553  0.4060
 5927TIP3   OH239415   4.322   5.643   6.746 -0.5209 -0.0789 -0.2978
 5927TIP3    H139416   4.336   5.633   6.840  0.6902  2.5909 -0.1161
 5927TIP3    H239417   4.250   5.706   6.739  1.2525  1.9842 -1.0506
 5928TIP3   OH239418   4.735   2.624   0.779 -0.0740  0.4564 -0.2276
 5928TIP3    H139419   4.738   2.719   0.785  0.7912  0.3942  0.6327
 5928TIP3    H239420   4.677   2.597   0.850 -0.4515  0.3535 -0.5761
 5929TIP3   OH239421   0.806   2.719   6.448 -0.1143  0.1862  0.0784
 5929TIP3    H139422   0.795   2.777   6.373  0.9874 -1.3319 -1.3227
 5929TIP3    H239423   0.829   2.777   6.521 -2.9116  1.8900 -0.2561
 5930TIP3   OH239424   2.126   4.938   7.087 -0.5141 -0.1447 -0.2126
 5930TIP3    H139425   2.138   4.999   7.160  0.4084  0.0558 -0.5120
 5930TIP3    H239426   2.042   4.896   7.103 -0.4552  0.1169  0.8084
 5931TIP3   OH239427   3.821   5.243   6.365  0.1506 -0.2069  0.5580
 5931TIP3    H139428   3.757   5.294   6.415  0.3723  3.5405 -2.5052
 5931TIP3    H239429   3.903   5.290   6.378  0.6033 -0.3373 -1.6012
 5932TIP3   OH239430   6.640   3.943   0.900  0.4608  0.5680 -0.3707
 5932TIP3    H139431   6.610   3.955   0.990  1.3792 -1.5329  0.2666
 5932TIP3    H239432   6.617   3.853   0.878  2.0527  0.3929 -1.5027
 5933TIP3   OH239433   4.541   2.626   6.157 -0.1911  0.4808 -0.1570
 5933TIP3    H139434   4.520   2.534   6.174  2.1666 -0.3031 -1.0681
 5933TIP3    H239435   4.492   2.647   6.077 -2.2141  0.6709  1.0442
 5934TIP3   OH239436   2.700   3.894   7.374 -0.0094 -0.1419 -0.1745
 5934TIP3    H139437   2.741   3.876   7.459  0.1499 -1.4351 -0.5082
 5934TIP3    H239438   2.746   3.971   7.341  0.1649  0.1688  0.7534
 5935TIP3   OH239439   2.557   6.219   7.652 -0.0790 -0.5779 -0.2156
 5935TIP3    H139440   2.589   6.157   7.717  0.0414 -0.2512  0.0459
 5935TIP3    H239441   2.549   6.302   7.700 -0.6651 -0.4978 -0.4452
 5936TIP3   OH239442   1.037   2.169   0.633  0.1821 -0.0579  0.2558
 5936TIP3    H139443   0.943   2.163   0.612  0.6821  0.6606 -2.5561
 5936TIP3    H239444   1.043   2.138   0.723 -2.7627 -0.0930  0.5359
 5937TIP3   OH239445   0.426   6.762   1.421  0.2848 -0.0956  0.3625
 5937TIP3    H139446   0.392   6.718   1.343  0.1789  1.9014 -0.7777
 5937TIP3    H239447   0.365   6.737   1.490 -0.1150 -1.2392 -0.3768
 5938TIP3   OH239448   5.549   3.749   7.199  0.3293 -0.4539  0.6385
 5938TIP3    H139449   5.493   3.708   7.134 -0.5599 -0.6320  1.5009
 5938TIP3    H239450   5.489   3.797   7.256  0.7522 -2.3583  2.8536
 5939TIP3   OH239451   7.060   0.363   2.025 -0.2335  0.0427 -0.1034
 5939TIP3    H139452   7.070   0.384   1.932  0.0427 -1.0631 -0.3471
 5939TIP3    H239453   7.120   0.422   2.070 -0.8472  1.0391 -0.5569
 5940TIP3   OH239454   1.571   0.226   1.913 -0.5125 -0.2315  0.3239
 5940TIP3    H139455   1.648   0.257   1.866 -2.1572  1.9078 -1.1545
 5940TIP3    H239456   1.606   0.186   1.993  2.1340  0.0551 -0.5958
 5941TIP3   OH239457   3.812   0.033   1.611  0.3779  0.4703 -0.3305
 5941TIP3    H139458   3.877   0.043   1.541  1.9077 -1.5207  0.7089
 5941TIP3    H239459   3.858  -0.012   1.681 -2.1918 -1.2932  0.3817
 5942TIP3   OH239460   0.729   5.808   7.505  0.3637  0.2307  0.7053
 5942TIP3    H139461   0.681   5.757   7.571  0.0052  0.3087  0.5076
 5942TIP3    H239462   0.813   5.763   7.497 -0.5166 -1.2772 -0.5868
 5943TIP3   OH239463   0.269   3.854   7.424  0.4960 -0.5315 -0.5696
 5943TIP3    H139464   0.242   3.780   7.370 -0.7341 -1.6703  1.4894
 5943TIP3    H239465   0.339   3.820   7.479  0.9077  0.2567 -0.5815
 5944TIP3   OH239466   5.149   2.121   1.692 -0.1901  0.0776  0.5499
 5944TIP3    H139467   5.214   2.067   1.647 -1.1691 -0.1284 -0.6808
 5944TIP3    H239468   5.137   2.079   1.777  0.7590 -0.2703  0.5291
 5945TIP3   OH239469   6.185   6.938   5.976  0.4130  0.0190  0.0818
 5945TIP3    H139470   6.253   6.908   6.037 -0.8289  0.1677  1.6056
 5945TIP3    H239471   6.185   7.033   5.983  1.5017  0.1760 -1.5845
 5946TIP3   OH239472   0.297   5.398   7.764 -0.0325 -0.1604  1.1545
 5946TIP3    H139473   0.207   5.386   7.734  0.7017  1.0765 -1.8718
 5946TIP3    H239474   0.295   5.480   7.814 -0.3130  0.7751 -0.3587
 5947TIP3   OH239475   6.123   2.416   0.042 -0.2490  0.0522  0.3116
 5947TIP3    H139476   6.108   2.460  -0.042  0.2210  0.6567  0.5268
 5947TIP3    H239477   6.209   2.375   0.032 -0.2102  0.0914  0.4825
 5948TIP3   OH239478   3.410   4.169   5.965 -0.5911 -0.2878 -0.0753
 5948TIP3    H139479   3.368   4.245   5.925 -1.6110  1.7797  4.3084
 5948TIP3    H239480   3.495   4.162   5.922 -1.5133  1.6830 -2.4020
 5949TIP3   OH239481   2.470   2.053   6.973 -0.2242 -0.2236  0.5451
 5949TIP3    H139482   2.544   2.045   6.912 -0.6494  0.2727 -0.0541
 5949TIP3    H239483   2.439   2.143   6.962 -0.5417 -0.2433  1.2320
 5950TIP3   OH239484   3.886   1.954   0.569 -0.5403  0.2988  0.2837
 5950TIP3    H139485   3.910   2.045   0.588 -1.5635  0.6533 -0.0706
 5950TIP3    H239486   3.967   1.914   0.539 -0.0732  1.0891  0.4653
 5951TIP3   OH239487   1.391   0.921   1.497  0.2333  0.6498 -0.5231
 5951TIP3    H139488   1.481   0.894   1.511  0.9941  2.1237 -2.1559
 5951TIP3    H239489   1.374   0.984   1.567  0.2598 -0.0584  0.1277
 5952TIP3   OH239490   2.981   5.581   7.328  0.0454 -0.2945 -0.0888
 5952TIP3    H139491   3.031   5.561   7.249 -0.1055 -1.7223  0.1589
 5952TIP3    H239492   2.935   5.500   7.349 -1.5085  0.6432  0.3272
 5953TIP3   OH239493   4.227   4.682   7.038 -0.3079 -0.2821 -0.6017
 5953TIP3    H139494   4.171   4.742   6.989 -0.1509 -0.2962 -0.7970
 5953TIP3    H239495   4.294   4.739   7.078 -0.9610 -0.1479  0.3486
 5954TIP3   OH239496   2.289   0.258   0.866  0.1545  0.2612  0.0000
 5954TIP3    H139497   2.267   0.339   0.911 -2.1528  0.8738 -2.0187
 5954TIP3    H239498   2.380   0.271   0.837  0.9397  0.7177  2.4324
 5955TIP3   OH239499   5.861   1.817   7.024 -0.0690 -0.6767  0.1135
 5955TIP3    H139500   5.857   1.814   7.119  1.8890  0.2219  0.2580
 5955TIP3    H239501   5.814   1.897   7.000 -1.1679 -1.2623  0.2457
 5956TIP3   OH239502   0.030   1.221   7.404 -0.1231 -0.0996 -0.1154
 5956TIP3    H139503  -0.049   1.258   7.364 -0.7753 -1.8086 -0.4933
 5956TIP3    H239504   0.027   1.252   7.495 -1.1097  0.0460 -0.1846
 5957TIP3   OH239505   0.045   5.651   1.040 -0.2483  0.0090 -0.7802
 5957TIP3    H139506   0.078   5.649   0.950  1.4624  0.5465 -0.1901
 5957TIP3    H239507   0.068   5.565   1.076  0.2122  0.2535 -0.4788
 5958TIP3   OH239508   6.502   0.753   6.785 -0.1424  0.2714 -0.4476
 5958TIP3    H139509   6.476   0.843   6.765 -0.0115  0.0967 -1.4586
 5958TIP3    H239510   6.594   0.749   6.761 -0.2339 -0.2295 -0.7198
 5959TIP3   OH239511   4.333   4.146   6.465  0.0597  0.0521  1.2923
 5959TIP3    H139512   4.389   4.072   6.441 -1.5990 -0.6048 -0.7843
 5959TIP3    H239513   4.333   4.146   6.561  2.3173 -0.8703  1.3521
 5960TIP3   OH239514   2.581   5.385   2.183  0.3874 -0.3727 -0.4410
 5960TIP3    H139515   2.509   5.359   2.240  0.5180 -1.2644 -0.6716
 5960TIP3    H239516   2.652   5.407   2.242  0.2677 -0.5189 -0.2414
 5961TIP3   OH239517   5.796   5.020   0.423  0.0182  0.2662 -0.1390
 5961TIP3    H139518   5.874   4.967   0.440  0.5818  0.8158 -0.9460
 5961TIP3    H239519   5.801   5.092   0.486  0.1684  0.3047 -0.1945
 5962TIP3   OH239520   5.855   2.816   7.330 -0.3037 -0.1692 -0.7319
 5962TIP3    H139521   5.878   2.768   7.410 -2.6894  2.3121  1.6481
 5962TIP3    H239522   5.923   2.882   7.321  0.9114 -1.4976 -1.8562
 5963TIP3   OH239523   3.146   4.870   2.239  0.0879  0.6076 -0.4800
 5963TIP3    H139524   3.172   4.954   2.201  0.1571  0.8631  0.1195
 5963TIP3    H239525   3.123   4.890   2.330 -2.2126  0.3977 -0.9540
 5964TIP3   OH239526   6.594   5.131   2.177 -0.0195  0.7295 -0.1108
 5964TIP3    H139527   6.503   5.159   2.173  0.1201  1.0475 -3.1537
 5964TIP3    H239528   6.592   5.038   2.156  0.2501  0.1562  2.0726
 5965TIP3   OH239529   6.921   5.963   0.245 -0.1031 -0.5086 -0.5884
 5965TIP3    H139530   6.834   5.970   0.206 -0.8232  1.3026  1.2207
 5965TIP3    H239531   6.969   6.038   0.211  0.2931 -0.6886 -0.4385
 5966TIP3   OH239532   6.243   2.410   6.637  0.0901 -0.2831  0.0832
 5966TIP3    H139533   6.217   2.348   6.706 -0.0575  0.7944  1.0194
 5966TIP3    H239534   6.331   2.438   6.663  0.1795 -0.1438 -0.3679
 5967TIP3   OH239535   6.146   5.161   0.666 -0.5094  0.3179 -0.2828
 5967TIP3    H139536   6.099   5.203   0.738  0.9790  0.5427  0.5994
 5967TIP3    H239537   6.176   5.234   0.611  2.4220  0.5596  1.4644
 5968TIP3   OH239538   1.282   6.104   0.066 -0.3746 -0.8637  0.2385
 5968TIP3    H139539   1.343   6.048   0.019  0.5775 -1.3147  1.9183
 5968TIP3    H239540   1.322   6.191   0.063  0.3604 -1.1471  1.2861
 5969TIP3   OH239541   6.151   0.711   7.116  0.0621 -0.3694  0.2885
 5969TIP3    H139542   6.090   0.690   7.186  0.1967 -0.0492  0.5057
 5969TIP3    H239543   6.143   0.806   7.104 -0.7956 -0.5699 -0.9171
 5970TIP3   OH239544   5.007   3.690   7.481  0.3306 -0.3927 -0.0365
 5970TIP3    H139545   4.976   3.739   7.557  0.6925  1.3162 -0.9161
 5970TIP3    H239546   5.097   3.721   7.468  0.0115 -0.0019 -1.6114
 5971TIP3   OH239547   6.592   2.023   0.038 -0.3897 -0.1235  0.3198
 5971TIP3    H139548   6.545   2.095  -0.003  0.7922  0.2733 -0.4117
 5971TIP3    H239549   6.532   1.949   0.034 -0.5667  0.0609 -1.6168
 5972TIP3   OH239550   4.911   1.671   6.642 -0.0022  0.7506  0.3199
 5972TIP3    H139551   5.001   1.649   6.665  0.2182  0.5057 -0.7187
 5972TIP3    H239552   4.859   1.636   6.714  0.6959  0.4863  0.7114
 5973TIP3   OH239553   2.009   3.195   1.575 -0.0994 -0.0790 -0.0771
 5973TIP3    H139554   2.002   3.100   1.581  0.4185 -0.0099  3.2132
 5973TIP3    H239555   1.934   3.222   1.523 -1.3841 -2.1503  0.6139
 5974TIP3   OH239556   4.062   7.046   0.892  0.1447 -0.0474 -0.3582
 5974TIP3    H139557   4.129   7.044   0.824  0.5894  2.0584 -0.0567
 5974TIP3    H239558   4.059   6.957   0.925  0.3786 -0.9873 -2.6650
 5975TIP3   OH239559   4.639   0.130   0.020 -0.0252 -0.3605 -0.1123
 5975TIP3    H139560   4.694   0.146  -0.057  1.3908 -0.7315  0.7778
 5975TIP3    H239561   4.674   0.189   0.087 -2.2071  1.0615 -0.1341
 5976TIP3   OH239562   0.269   5.057   6.314  0.2836  0.5762  0.7164
 5976TIP3    H139563   0.352   5.082   6.354  0.9035  0.6390 -0.5473
 5976TIP3    H239564   0.251   5.126   6.250 -0.8172  0.6384  1.0761
 5977TIP3   OH239565   4.621   1.909   6.291 -0.0577 -0.2652  0.6939
 5977TIP3    H139566   4.674   1.840   6.332 -1.5818 -1.6170  0.5042
 5977TIP3    H239567   4.562   1.938   6.360  0.0883  0.3634  0.5608
 5978TIP3   OH239568   4.787   3.661   0.084 -0.1022 -0.2455 -0.0115
 5978TIP3    H139569   4.747   3.577   0.061  0.5934 -0.2210 -1.4488
 5978TIP3    H239570   4.877   3.639   0.106 -0.2754 -0.0229  0.9594
 5979TIP3   OH239571   5.435   3.294   1.308 -0.3337  0.9205  0.3562
 5979TIP3    H139572   5.505   3.357   1.298 -0.6115  1.2396  0.4031
 5979TIP3    H239573   5.371   3.336   1.365  0.2835 -0.0969  1.8503
 5980TIP3   OH239574   2.571   6.604   1.146 -0.3438 -0.3323  0.1130
 5980TIP3    H139575   2.574   6.562   1.231 -0.6456 -2.5781 -0.9255
 5980TIP3    H239576   2.659   6.638   1.133  0.2218 -1.5875  0.5593
 5981TIP3   OH239577   3.086   2.800   0.504 -0.1415 -0.1975 -0.0356
 5981TIP3    H139578   3.171   2.824   0.542  0.7589 -2.0429 -0.7506
 5981TIP3    H239579   3.026   2.800   0.579  1.1375 -1.6652  1.0839
 5982TIP3   OH239580   0.788   1.321   7.951  0.6721  0.4678  0.3421
 5982TIP3    H139581   0.819   1.321   8.042 -0.8436  1.6652  0.9042
 5982TIP3    H239582   0.719   1.388   7.949  0.7511  0.5532 -1.7307
 5983TIP3   OH239583   2.865   4.821   1.421 -0.3373  0.0022  0.6346
 5983TIP3    H139584   2.961   4.830   1.424 -0.2184 -0.9429  0.1207
 5983TIP3    H239585   2.839   4.863   1.340  0.1449 -3.3007 -1.4280
 5984TIP3   OH239586   1.465   4.013   1.823  0.0946  0.1604 -0.0477
 5984TIP3    H139587   1.393   4.026   1.761 -0.7101 -1.8982  0.3542
 5984TIP3    H239588   1.517   3.943   1.784  1.6735  1.3357 -0.1217
 5985TIP3   OH239589   0.915   4.738   0.914 -0.1768 -0.0609  0.3493
 5985TIP3    H139590   0.894   4.645   0.903 -0.3853  0.0200  0.0490
 5985TIP3    H239591   0.958   4.763   0.832  2.6839 -0.6373  1.5708
 5986TIP3   OH239592   1.893   4.707   0.131 -0.2456  0.1083  0.1271
 5986TIP3    H139593   1.828   4.683   0.065 -0.0461  0.2143 -0.1135
 5986TIP3    H239594   1.881   4.801   0.143  0.3045  0.2576 -0.4169
 5987TIP3   OH239595   5.859   3.570   1.588  0.2490 -0.0306 -0.1272
 5987TIP3    H139596   5.849   3.477   1.608  2.5241 -0.6190 -1.3838
 5987TIP3    H239597   5.895   3.608   1.668 -0.2588 -0.3081  0.2404
 5988TIP3   OH239598   5.079   4.880   7.369  0.3945 -0.3861  0.5623
 5988TIP3    H139599   5.009   4.866   7.432 -0.1388 -0.0042  0.0547
 5988TIP3    H239600   5.060   4.819   7.297  0.6291 -0.3443  0.4629
 5989TIP3   OH239601   4.610   5.401   7.160 -0.2392  0.2701  0.0593
 5989TIP3    H139602   4.685   5.350   7.129 -1.4067 -0.0538 -2.4386
 5989TIP3    H239603   4.646   5.487   7.179  0.8597 -0.0083 -0.6736
 5990TIP3   OH239604   6.617   3.125   1.596 -0.1525  0.0318  0.5898
 5990TIP3    H139605   6.704   3.089   1.614 -0.2087  0.3487  1.5041
 5990TIP3    H239606   6.563   3.048   1.578  0.0843 -0.2368  1.0094
 5991TIP3   OH239607   7.014   6.646   0.641  0.3353 -0.1343  0.0682
 5991TIP3    H139608   7.010   6.738   0.665 -0.0385 -0.3178  0.7141
 5991TIP3    H239609   7.095   6.638   0.590  0.2878  0.5754 -0.1214
 5992TIP3   OH239610   5.010   5.442   1.461 -0.1032  0.2525  0.6548
 5992TIP3    H139611   5.047   5.383   1.528 -0.8516  0.1693  1.0053
 5992TIP3    H239612   4.923   5.464   1.494 -1.3038 -1.3634 -1.2183
 5993TIP3   OH239613   3.330   7.055   5.731 -0.0440  0.2815  0.3296
 5993TIP3    H139614   3.292   7.142   5.722 -0.2385  0.2808  1.1192
 5993TIP3    H239615   3.262   7.002   5.772 -0.3073 -0.5252 -1.0563
 5994TIP3   OH239616   3.751   0.124   6.666 -0.3135  0.1259 -0.3078
 5994TIP3    H139617   3.813   0.068   6.619  0.8539  0.1284  1.1464
 5994TIP3    H239618   3.763   0.211   6.627  0.8396  0.1872  0.1412
 5995TIP3   OH239619   6.503   3.670   2.400  0.3948 -0.1962 -0.4393
 5995TIP3    H139620   6.551   3.753   2.407  0.6841 -0.4187  0.4963
 5995TIP3    H239621   6.571   3.605   2.380  0.2625 -0.2951 -0.5660
 5996TIP3   OH239622   5.680   3.347   1.476 -0.2540 -0.1449 -0.2262
 5996TIP3    H139623   5.718   3.319   1.559 -1.5286 -2.4321 -0.3434
 5996TIP3    H239624   5.664   3.441   1.487  1.3097 -0.0122  1.3879
 5997TIP3   OH239625   0.356   2.323   7.073  0.4861  1.0026 -0.5597
 5997TIP3    H139626   0.415   2.268   7.022 -1.0726 -1.0171 -0.3323
 5997TIP3    H239627   0.361   2.287   7.162 -0.9750  0.8572 -0.5172
 5998TIP3   OH239628   6.021   2.471   1.596  0.6414  0.1805 -0.2986
 5998TIP3    H139629   5.974   2.530   1.537  0.2505 -0.7658 -0.9654
 5998TIP3    H239630   6.113   2.486   1.576  0.7953  3.0068  1.9363
 5999TIP3   OH239631   1.516   2.077   6.327 -0.0363 -0.1600  0.5314
 5999TIP3    H139632   1.560   2.081   6.242  0.2254 -0.7568  0.6271
 5999TIP3    H239633   1.448   2.010   6.316  0.2070 -0.4731  0.8725
 6000TIP3   OH239634   6.640   3.814   0.207  0.5515  0.8946 -0.3928
 6000TIP3    H139635   6.715   3.781   0.256  1.3420  1.0280 -1.4791
 6000TIP3    H239636   6.671   3.894   0.165 -0.5632  1.6113  0.0869
 6001TIP3   OH239637   2.676   0.519   6.307  0.1152 -0.2278 -0.0946
 6001TIP3    H139638   2.672   0.444   6.248 -0.8720 -1.4573  1.4600
 6001TIP3    H239639   2.751   0.501   6.364  0.4722  0.4698 -0.3259
 6002TIP3   OH239640   4.900   2.931   0.432 -0.1317  0.4618  0.0058
 6002TIP3    H139641   4.958   2.998   0.466  0.3941  1.0763 -1.9655
 6002TIP3    H239642   4.950   2.850   0.437  0.3263  0.7263 -0.2412
 6003TIP3   OH239643   1.147   6.439   0.353 -0.3009 -0.4620 -0.0416
 6003TIP3    H139644   1.070   6.382   0.348 -0.6090  0.0445 -1.4998
 6003TIP3    H239645   1.113   6.524   0.380 -0.1169 -0.4651  0.2067
 6004TIP3   OH239646   3.432   0.654   6.217 -0.0192 -0.4595  0.1927
 6004TIP3    H139647   3.397   0.600   6.287 -0.1813 -1.7339 -0.8290
 6004TIP3    H239648   3.362   0.715   6.195  0.2759  0.4186  1.5629
 6005TIP3   OH239649   0.757   2.968   6.286 -0.2939 -0.3744 -0.1797
 6005TIP3    H139650   0.762   3.046   6.231 -0.6066  1.1010  1.7692
 6005TIP3    H239651   0.668   2.970   6.322  0.6080  0.0915  2.2023
 6006TIP3   OH239652   6.486   6.538   6.878  0.4501 -0.6108  0.2858
 6006TIP3    H139653   6.465   6.563   6.968 -0.1603 -1.3608  0.3633
 6006TIP3    H239654   6.579   6.516   6.880  0.0378 -2.4611  1.1901
 6007TIP3   OH239655   0.239   4.743   6.645  0.2053 -0.3173 -0.2362
 6007TIP3    H139656   0.206   4.670   6.594 -1.4130  1.3997 -1.8170
 6007TIP3    H239657   0.302   4.787   6.587 -1.4725  1.5210 -0.7889
 6008TIP3   OH239658   6.884   5.536   7.711 -0.3574 -0.2972  0.6185
 6008TIP3    H139659   6.854   5.498   7.793  0.0234 -1.6693  0.1558
 6008TIP3    H239660   6.820   5.508   7.646 -0.2701  0.1757  0.3230
 6009TIP3   OH239661   1.504   0.881   6.159 -0.3507 -0.7921  0.7599
 6009TIP3    H139662   1.451   0.906   6.083  1.2639 -0.1952 -0.2055
 6009TIP3    H239663   1.586   0.849   6.122  1.0446  0.8764  2.2718
 6010TIP3   OH239664   3.775   4.283   1.002  0.8021  0.3589  0.1636
 6010TIP3    H139665   3.713   4.349   1.031  1.9045  1.3422  0.3432
 6010TIP3    H239666   3.752   4.266   0.910 -1.5084 -1.3936  0.9789
 6011TIP3   OH239667   4.256   1.651   8.080  0.2730 -0.0467 -0.2591
 6011TIP3    H139668   4.240   1.598   8.158  1.2796  0.3128  0.2205
 6011TIP3    H239669   4.181   1.634   8.023 -0.5676 -0.1965  0.8493
 6012TIP3   OH239670   3.993   3.272   0.142  0.5177 -0.0575  0.0420
 6012TIP3    H139671   3.977   3.356   0.099 -2.1316  0.2464  1.3764
 6012TIP3    H239672   4.026   3.215   0.073 -0.3289  1.3237 -1.5785
 6013TIP3   OH239673   6.272   3.316   0.056 -0.0029  0.9829 -0.1314
 6013TIP3    H139674   6.236   3.255  -0.009 -0.3353  0.3029  0.6734
 6013TIP3    H239675   6.336   3.368   0.007  0.2794  0.0001 -0.8422
 6014TIP3   OH239676   5.052   6.345   1.575  0.4146 -0.0413 -0.3304
 6014TIP3    H139677   4.994   6.274   1.603  0.2282  1.0871  2.5577
 6014TIP3    H239678   5.139   6.306   1.577  0.1432 -0.6861 -0.7147
 6015TIP3   OH239679   3.323   5.994   0.222 -0.1477  0.1758  0.4388
 6015TIP3    H139680   3.304   5.903   0.200  0.8304  0.0931 -0.0807
 6015TIP3    H239681   3.417   6.004   0.209  0.0595  0.8251  2.1075
 6016TIP3   OH239682   2.968   2.902   0.284  0.2481 -0.2762 -0.2543
 6016TIP3    H139683   3.021   2.872   0.357 -0.7615  0.7175  0.9505
 6016TIP3    H239684   2.878   2.878   0.308 -0.4072  2.1877  0.0530
 6017TIP3   OH239685   5.655   6.950   1.383  0.0579 -0.2780  0.4667
 6017TIP3    H139686   5.592   7.002   1.333  0.9255  1.0721  0.7286
 6017TIP3    H239687   5.704   7.014   1.435  1.6792 -1.2612  0.2409
 6018TIP3   OH239688   2.838   2.361   6.587  0.3764  0.2835  0.2255
 6018TIP3    H139689   2.811   2.281   6.543  0.5926 -0.0427  0.6694
 6018TIP3    H239690   2.794   2.431   6.540  1.8851  0.1011 -1.5649
 6019TIP3   OH239691   3.275   6.894   0.304  0.2697  0.0376  0.3404
 6019TIP3    H139692   3.208   6.956   0.333 -0.3028 -1.0211  1.3752
 6019TIP3    H239693   3.278   6.903   0.209 -0.4779  0.9664  0.3967
 6020TIP3   OH239694   0.770   1.081   7.592 -0.5249 -0.1908 -0.2375
 6020TIP3    H139695   0.756   0.997   7.635 -3.2983  0.6804  0.8560
 6020TIP3    H239696   0.715   1.077   7.514 -0.2364  0.4064 -0.4761
 6021TIP3   OH239697   2.354   4.553   7.661  0.3548 -0.4690 -0.3785
 6021TIP3    H139698   2.406   4.633   7.649  0.4916 -0.6893 -1.3412
 6021TIP3    H239699   2.378   4.522   7.748  2.7283 -1.1745 -1.2063
 6022TIP3   OH239700   0.837   1.250   1.621 -0.6688  0.0065  0.5560
 6022TIP3    H139701   0.856   1.235   1.713 -0.0947 -1.8144  0.1782
 6022TIP3    H239702   0.754   1.203   1.606 -0.7154  0.2200  0.1361
 6023TIP3   OH239703   4.917   5.037   6.156  0.3592 -0.0315  0.2939
 6023TIP3    H139704   4.855   5.011   6.088  0.6828  0.1107 -0.0665
 6023TIP3    H239705   4.995   4.984   6.138  0.5385  0.1973  0.3907
 6024TIP3   OH239706   0.765   0.949   6.766 -0.4698 -0.1072  0.2354
 6024TIP3    H139707   0.706   1.024   6.777  1.8602  1.6736  1.3370
 6024TIP3    H239708   0.848   0.977   6.804  1.1990 -2.4347 -1.3709
 6025TIP3   OH239709   1.365   1.051   6.330  0.3502 -0.0841  0.3988
 6025TIP3    H139710   1.423   0.988   6.287 -1.0758 -1.3952  0.2808
 6025TIP3    H239711   1.280   1.007   6.332  0.0589  0.4153  3.4851
 6026TIP3   OH239712   5.399   4.067   1.018 -0.2046  0.1586 -0.4165
 6026TIP3    H139713   5.476   4.021   0.983 -0.1642  0.7524 -1.1292
 6026TIP3    H239714   5.334   4.059   0.948 -0.2641  0.9985 -0.4636
 6027TIP3   OH239715   3.428   0.347   0.513 -0.1871  0.5548  0.2286
 6027TIP3    H139716   3.374   0.332   0.435  1.2752 -2.0907 -0.4030
 6027TIP3    H239717   3.376   0.406   0.567 -1.6774  1.7274 -2.3046
 6028TIP3   OH239718   0.078   1.903   1.797  0.7874 -0.0782  0.6672
 6028TIP3    H139719   0.055   1.828   1.743 -0.9810  0.5885  0.4356
 6028TIP3    H239720   0.117   1.865   1.876  0.3056 -1.2156  0.3725
 6029TIP3   OH239721   5.082   0.486   0.600 -0.2240 -0.0319  0.0980
 6029TIP3    H139722   5.009   0.452   0.651  0.0841 -0.1069  0.5016
 6029TIP3    H239723   5.083   0.434   0.520  0.3316 -1.0950  0.7732
 6030TIP3   OH239724   3.935   2.261   1.448 -0.2680  0.1286 -0.0238
 6030TIP3    H139725   3.996   2.208   1.396  0.4423  1.0868 -0.2065
 6030TIP3    H239726   3.975   2.349   1.449 -1.1953  0.5582  0.6183
 6031TIP3   OH239727   4.167   5.937   7.672  0.5396  0.2548  0.5996
 6031TIP3    H139728   4.122   6.005   7.721  0.9129  0.9184  0.0319
 6031TIP3    H239729   4.251   5.926   7.717  1.1011  1.2353 -0.1847
 6032TIP3   OH239730   6.186   1.351   1.176  0.1018 -0.7208 -0.2737
 6032TIP3    H139731   6.234   1.311   1.103  0.8457 -1.1723  0.4391
 6032TIP3    H239732   6.246   1.419   1.209 -1.2927  1.3292 -1.7113
 6033TIP3   OH239733   5.347   4.951   6.366  0.0238 -0.0599  0.0973
 6033TIP3    H139734   5.314   4.861   6.365 -0.5028  0.1232  0.2335
 6033TIP3    H239735   5.269   5.005   6.353  0.4808  0.3499 -1.0200
 6034TIP3   OH239736   2.373   6.402   7.887 -0.0841  0.1998  0.2328
 6034TIP3    H139737   2.413   6.483   7.919 -0.4839 -0.2083  1.9090
 6034TIP3    H239738   2.311   6.430   7.820  0.5806  1.1655  0.0080
 6035TIP3   OH239739   1.238   2.018   0.482 -0.1101  0.1044  0.9481
 6035TIP3    H139740   1.153   2.051   0.453  0.3173 -0.3230 -0.9420
 6035TIP3    H239741   1.222   1.927   0.509 -0.0313 -0.4822 -0.8635
 6036TIP3   OH239742   2.048   4.103   7.332 -0.3424  0.4913 -0.5538
 6036TIP3    H139743   2.143   4.091   7.341 -0.6630 -0.6535  2.2908
 6036TIP3    H239744   2.029   4.179   7.387 -1.2327 -0.1827  0.0848
 6037TIP3   OH239745   3.355   2.215   2.084  0.1094 -0.0724  0.3212
 6037TIP3    H139746   3.432   2.164   2.058 -0.8663 -1.1394 -0.6478
 6037TIP3    H239747   3.294   2.202   2.012 -0.7872  1.1911  0.8227
 6038TIP3   OH239748   3.944   3.984   7.479  0.1831 -0.2444 -0.4372
 6038TIP3    H139749   3.966   3.998   7.386  2.3412 -0.9853 -0.1036
 6038TIP3    H239750   3.938   3.889   7.488  3.8531 -0.5030  0.8491
 6039TIP3   OH239751   0.858   0.808   7.718 -0.4189 -0.2866  0.0133
 6039TIP3    H139752   0.834   0.793   7.809 -0.0125 -1.8682 -0.1053
 6039TIP3    H239753   0.788   0.766   7.668  0.0166 -0.5687 -0.3713
 6040TIP3   OH239754   0.070   6.389   1.121  0.1822  0.0196 -0.3180
 6040TIP3    H139755  -0.021   6.370   1.143 -0.2945 -1.6730 -3.2155
 6040TIP3    H239756   0.065   6.443   1.042  1.7203  0.9243  0.1583
 6041TIP3   OH239757   5.407   5.325   7.600  0.2204  0.1655 -0.2706
 6041TIP3    H139758   5.451   5.313   7.683  0.4193 -1.0985 -0.5309
 6041TIP3    H239759   5.453   5.397   7.557  0.4857  0.4349  0.4666
 6042TIP3   OH239760   1.756   5.334   1.116 -0.0670 -0.3938 -0.0928
 6042TIP3    H139761   1.772   5.303   1.205 -1.2449  0.3908  0.4088
 6042TIP3    H239762   1.697   5.408   1.126 -0.5836 -0.5672 -1.5643
 6043TIP3   OH239763   4.057   4.133   7.689 -0.0730 -0.4585 -0.0147
 6043TIP3    H139764   4.021   4.084   7.615 -0.1817  0.0928 -0.3306
 6043TIP3    H239765   4.041   4.224   7.667 -0.4559 -0.3037  0.8704
 6044TIP3   OH239766   5.300   1.403   7.091  0.2549  0.2830 -0.2055
 6044TIP3    H139767   5.290   1.360   7.007  1.3302 -0.5066  0.0532
 6044TIP3    H239768   5.211   1.408   7.126 -0.1740  0.4430 -1.2819
 6045TIP3   OH239769   4.874   0.612   1.423 -0.3198  0.3210  0.0045
 6045TIP3    H139770   4.860   0.519   1.406 -2.5912  0.7142 -0.6611
 6045TIP3    H239771   4.900   0.648   1.338  0.9239  0.2444  0.3460
 6046TIP3   OH239772   2.884   6.581   1.966  0.0981 -1.0795 -0.0090
 6046TIP3    H139773   2.796   6.584   1.928  0.8129 -0.8031 -1.6892
 6046TIP3    H239774   2.879   6.512   2.032 -1.5786 -0.5405  0.4894
 6047TIP3   OH239775   3.097   3.566   0.496 -0.2552  0.2398  0.4071
 6047TIP3    H139776   3.055   3.574   0.410 -0.0038 -0.2034  0.2383
 6047TIP3    H239777   3.162   3.637   0.497  1.3251 -1.0924 -0.7104
 6048TIP3   OH239778   1.693   6.591   6.660 -0.8106  0.6354 -0.4322
 6048TIP3    H139779   1.670   6.602   6.752 -0.0166  2.2018 -0.3907
 6048TIP3    H239780   1.659   6.504   6.637 -1.0091  0.2121  1.3247
 6049TIP3   OH239781   4.325   6.728   8.020 -0.3261 -0.1285 -0.1030
 6049TIP3    H139782   4.372   6.696   7.943  0.0070 -2.0764  0.8522
 6049TIP3    H239783   4.256   6.664   8.034 -1.3571  1.0460  0.3371
 6050TIP3   OH239784   3.891   5.958   2.010 -0.0966  0.7378 -0.7200
 6050TIP3    H139785   3.838   6.020   2.061  0.1291  0.9008 -0.6835
 6050TIP3    H239786   3.827   5.900   1.969 -0.2456 -0.3855  1.0091
 6051TIP3   OH239787   2.023   1.633   0.260 -0.0000 -0.7684  0.0913
 6051TIP3    H139788   1.956   1.582   0.305  1.7379 -2.4998  0.8483
 6051TIP3    H239789   2.012   1.722   0.293 -2.4920 -0.7786 -0.5360
 6052TIP3   OH239790   0.889   4.742   6.696  0.1658 -0.0819  0.3662
 6052TIP3    H139791   0.942   4.685   6.752 -0.2628  0.3132  1.1912
 6052TIP3    H239792   0.951   4.806   6.661  0.6660 -1.0825 -0.6349
 6053TIP3   OH239793   1.239   6.739   7.424 -0.1426  0.2465 -0.4044
 6053TIP3    H139794   1.283   6.812   7.380  1.8690 -0.0035  1.0396
 6053TIP3    H239795   1.158   6.726   7.375  0.7892  1.5909 -2.4177
 6054TIP3   OH239796   0.325   4.370   0.224  0.1973  0.1090  0.1216
 6054TIP3    H139797   0.353   4.302   0.284  2.0368 -0.5833 -1.3868
 6054TIP3    H239798   0.309   4.325   0.141  0.0395  1.3096 -0.5351
 6055TIP3   OH239799   4.901   6.903   1.689  0.2122 -0.5908 -0.6134
 6055TIP3    H139800   4.812   6.905   1.725  0.6899  0.3431  0.5675
 6055TIP3    H239801   4.922   6.810   1.684 -1.1797 -0.8788 -1.8379
 6056TIP3   OH239802   5.245   4.425   1.712  0.2609  0.4483  0.3174
 6056TIP3    H139803   5.309   4.355   1.697  1.4931  1.1095  2.0979
 6056TIP3    H239804   5.247   4.477   1.632 -0.0801 -1.0617 -0.7144
 6057TIP3   OH239805   4.041   3.153   6.653  0.0517 -0.3320  0.6031
 6057TIP3    H139806   3.953   3.191   6.656  0.6792  1.1153  1.9508
 6057TIP3    H239807   4.070   3.153   6.744  2.3563  1.4683 -0.0617
 6058TIP3   OH239808   5.098   2.002   7.439  0.1007  0.4999 -0.7852
 6058TIP3    H139809   5.129   1.927   7.489 -0.8348 -0.8331 -2.1397
 6058TIP3    H239810   5.177   2.053   7.421  1.4212 -2.0962 -2.9995
 6059TIP3   OH239811   4.466   2.400   6.281 -0.4695  0.2696 -0.2053
 6059TIP3    H139812   4.482   2.325   6.224  0.2611  0.3760 -0.1386
 6059TIP3    H239813   4.478   2.366   6.370 -0.2207  0.4461 -0.1715
 6060TIP3   OH239814   6.728   6.129   2.207  0.6092 -0.2290  0.2134
 6060TIP3    H139815   6.798   6.194   2.201  0.2290  0.2649  0.9767
 6060TIP3    H239816   6.653   6.178   2.241 -0.1961 -0.6837 -0.8731
 6061TIP3   OH239817   6.094   5.327   1.381  0.0940 -0.2786  0.1535
 6061TIP3    H139818   6.124   5.236   1.376 -1.1899 -0.7021 -0.0854
 6061TIP3    H239819   6.058   5.345   1.294  3.3012  1.5780 -1.0004
 6062TIP3   OH239820   0.463   3.341   1.513 -0.0475  0.1329 -0.5782
 6062TIP3    H139821   0.373   3.344   1.546 -0.0534  0.3510 -0.6092
 6062TIP3    H239822   0.516   3.379   1.583  0.0066  0.1018 -0.6021
 6063TIP3   OH239823   1.280   6.600   6.384 -0.0451  0.0754  0.0365
 6063TIP3    H139824   1.215   6.602   6.314  0.3505  1.5003 -0.3306
 6063TIP3    H239825   1.329   6.519   6.370  0.5769  0.7369 -1.8580
 6064TIP3   OH239826   0.568   2.551   7.134 -0.1301 -0.2617 -0.5787
 6064TIP3    H139827   0.649   2.535   7.086  0.2273 -0.3083  0.0356
 6064TIP3    H239828   0.511   2.477   7.109 -0.3015  0.2110 -1.6621
 6065TIP3   OH239829   2.231   3.371   2.249  0.4818 -0.4275  0.4687
 6065TIP3    H139830   2.154   3.356   2.194  0.6418  0.6967 -0.0882
 6065TIP3    H239831   2.196   3.408   2.330  0.3628 -0.8673  0.6239
 6066TIP3   OH239832   5.973   1.290   0.656 -0.2177  0.4615 -0.3401
 6066TIP3    H139833   5.963   1.360   0.591 -0.1847  2.9172  2.1378
 6066TIP3    H239834   6.036   1.325   0.719 -0.1598 -1.8658  0.9873
 6067TIP3   OH239835   0.167   6.466   6.702  0.0165  0.1421 -0.6337
 6067TIP3    H139836   0.080   6.432   6.682 -0.4604  0.1952  1.1356
 6067TIP3    H239837   0.227   6.413   6.650 -0.9799 -0.7864 -0.8615
 6068TIP3   OH239838   5.516   6.337   0.401  0.8663 -0.3670 -0.1826
 6068TIP3    H139839   5.506   6.428   0.374 -2.8596 -0.6287 -0.2069
 6068TIP3    H239840   5.590   6.304   0.349  2.3362  2.5754 -0.1323
 6069TIP3   OH239841   4.550   0.968   8.007  0.3704  0.8160 -0.1582
 6069TIP3    H139842   4.539   0.888   8.058 -0.2606  0.9547 -0.0655
 6069TIP3    H239843   4.641   0.994   8.022  0.4508  0.3582  0.1661
 6070TIP3   OH239844   2.504   1.361   8.072 -0.1343 -0.1724 -0.2885
 6070TIP3    H139845   2.492   1.340   8.164  0.4105 -0.3818 -0.2621
 6070TIP3    H239846   2.573   1.428   8.072 -0.2613 -0.0412 -0.5300
 6071TIP3   OH239847   1.365   2.963   0.980 -0.4182 -0.3375  0.0168
 6071TIP3    H139848   1.347   3.056   0.991 -1.0571 -0.5483  0.8521
 6071TIP3    H239849   1.314   2.938   0.903 -1.1372 -0.2247  0.4455
 6072TIP3   OH239850   2.147   0.599   0.596  0.0377 -0.3893  0.1963
 6072TIP3    H139851   2.102   0.519   0.569 -0.3338 -0.0085 -0.3460
 6072TIP3    H239852   2.106   0.622   0.679  0.3007 -0.8783  0.4661
 6073TIP3   OH239853   1.220   4.475   0.966 -0.0909 -0.0570 -0.0035
 6073TIP3    H139854   1.164   4.429   1.028 -0.5423  0.2850 -0.1534
 6073TIP3    H239855   1.182   4.456   0.880  0.8711 -1.0231 -0.2513
 6074TIP3   OH239856   3.370   3.560   6.390  0.0760  0.3851 -0.5374
 6074TIP3    H139857   3.397   3.566   6.299  0.3168  0.3273 -0.4715
 6074TIP3    H239858   3.288   3.510   6.388  0.6552 -0.5913 -0.6211
 6075TIP3   OH239859   3.872   1.514   7.656  0.0312 -0.2533  0.5053
 6075TIP3    H139860   3.877   1.569   7.577  1.1834 -0.9487  0.0632
 6075TIP3    H239861   3.812   1.561   7.714 -0.4499  0.5325 -0.5811
 6076TIP3   OH239862   4.453   0.954   0.727 -0.1156 -0.5156  0.0688
 6076TIP3    H139863   4.377   1.006   0.753 -0.1533 -1.3093  1.7125
 6076TIP3    H239864   4.432   0.922   0.640 -1.0908  0.3332 -0.0289
 6077TIP3   OH239865   0.584   1.711   0.598  0.0022  0.3347 -0.4805
 6077TIP3    H139866   0.506   1.683   0.646 -0.9064 -2.1397 -3.1431
 6077TIP3    H239867   0.655   1.660   0.637 -0.4022 -0.3352 -0.6113
 6078TIP3   OH239868   5.330   0.592   6.116  0.1357 -0.1432 -0.1692
 6078TIP3    H139869   5.397   0.638   6.166  0.4331  0.6531 -1.2736
 6078TIP3    H239870   5.256   0.652   6.114  0.5612  0.3769 -1.7024
 6079TIP3   OH239871   6.188   7.064   0.769  0.0670 -0.3387  0.2390
 6079TIP3    H139872   6.206   7.158   0.759 -1.8035 -0.1389 -2.2505
 6079TIP3    H239873   6.254   7.021   0.715 -0.9486 -0.2256 -1.1210
 6080TIP3   OH239874   0.543   1.089   7.844 -0.0675  0.0749 -0.7592
 6080TIP3    H139875   0.563   1.016   7.786  1.1548  0.1887 -0.5142
 6080TIP3    H239876   0.619   1.096   7.901 -1.0595  0.2425  0.5938
 6081TIP3   OH239877   1.898   7.040   2.169 -0.3316  0.1686 -0.4921
 6081TIP3    H139878   1.985   7.060   2.135 -0.6796  0.8096 -1.0191
 6081TIP3    H239879   1.846   7.018   2.092 -0.8576  0.6137 -0.2733
 6082TIP3   OH239880   0.050   0.237   0.298 -0.2529 -0.4291  0.3110
 6082TIP3    H139881   0.033   0.282   0.215 -1.6750 -2.3641 -0.5364
 6082TIP3    H239882  -0.025   0.259   0.353  0.3794  0.3428  0.8958
 6083TIP3   OH239883   5.831   5.931   8.032 -0.4086 -0.1001 -0.1094
 6083TIP3    H139884   5.923   5.953   8.046 -0.4594  0.9607 -1.2498
 6083TIP3    H239885   5.831   5.837   8.015  0.6749  0.1057 -1.4677
 6084TIP3   OH239886   1.213   3.227   0.736 -0.4042  0.0041  0.0681
 6084TIP3    H139887   1.136   3.173   0.717 -1.5131  0.8636  1.8452
 6084TIP3    H239888   1.249   3.248   0.650 -1.4586 -1.3876 -0.7592
 6085TIP3   OH239889   1.071   4.466   1.384 -0.2128 -0.3166  0.4865
 6085TIP3    H139890   0.983   4.463   1.347 -0.1463  1.0947  0.1456
 6085TIP3    H239891   1.110   4.381   1.363 -1.5014 -0.9722  0.6915
 6086TIP3   OH239892   5.449   4.337   6.937  0.1047 -0.3100 -0.4102
 6086TIP3    H139893   5.503   4.259   6.949  0.9127  0.4486  1.1719
 6086TIP3    H239894   5.462   4.388   7.017 -0.1190  1.6172 -1.5425
 6087TIP3   OH239895   5.061   3.949   6.204  0.5399  0.2335 -0.2778
 6087TIP3    H139896   5.084   3.872   6.256 -2.7757 -1.8030 -1.4584
 6087TIP3    H239897   5.100   3.933   6.118 -0.9331 -0.7305 -0.8121
 6088TIP3   OH239898   6.081   3.780   0.290  0.0096 -0.3943  0.0565
 6088TIP3    H139899   6.141   3.853   0.278  1.4918 -1.1808  2.0770
 6088TIP3    H239900   6.111   3.713   0.229  0.7379 -0.4939  0.5088
 6089TIP3   OH239901   1.137   1.642   7.376 -0.2376  0.5698  0.0240
 6089TIP3    H139902   1.113   1.550   7.385 -0.4307  0.6814  0.7080
 6089TIP3    H239903   1.114   1.664   7.285 -0.1353 -0.0631 -0.1619
 6090TIP3   OH239904   6.762   4.053   1.822 -0.0001 -0.3528  0.4576
 6090TIP3    H139905   6.668   4.055   1.843 -0.3878  2.0567 -1.1013
 6090TIP3    H239906   6.806   4.062   1.907 -1.2222  0.2845  1.0517
 6091TIP3   OH239907   6.393   1.609   1.674 -0.4556  0.3047  0.2105
 6091TIP3    H139908   6.381   1.628   1.767  0.2504 -3.2527  1.1530
 6091TIP3    H239909   6.306   1.622   1.635 -1.1409  0.3027  1.6830
 6092TIP3   OH239910   1.479   0.304   0.963  0.0133 -0.2587 -0.3495
 6092TIP3    H139911   1.513   0.263   0.883  1.0435 -1.0236  0.4382
 6092TIP3    H239912   1.547   0.366   0.988 -0.8791  0.8972 -0.7307
 6093TIP3   OH239913   6.280   2.230   1.049  0.3599 -0.1510  0.2373
 6093TIP3    H139914   6.254   2.268   1.133  0.6129  0.8174 -0.1080
 6093TIP3    H239915   6.237   2.285   0.983 -0.7586 -1.5766 -0.2787
 6094TIP3   OH239916   5.918   0.200   1.984  0.0727  0.5670  0.4994
 6094TIP3    H139917   5.885   0.131   1.927  0.2485  0.8462  0.0585
 6094TIP3    H239918   5.866   0.277   1.962 -0.5221  0.4356  1.3990
 6095TIP3   OH239919   1.329   0.979   7.903  0.0168  0.9724  0.4334
 6095TIP3    H139920   1.308   1.033   7.980 -0.1665  1.1869  0.2351
 6095TIP3    H239921   1.244   0.962   7.862  0.1912  1.5957 -0.2112
 6096TIP3   OH239922   5.572   3.554   1.735 -0.0901 -0.2697  0.4647
 6096TIP3    H139923   5.501   3.515   1.787 -1.0056 -0.7731 -1.0928
 6096TIP3    H239924   5.650   3.504   1.760 -1.1465 -3.0193 -1.2007
 6097TIP3   OH239925   0.082   5.021   0.840  0.9940 -0.2383 -0.4131
 6097TIP3    H139926  -0.004   5.063   0.838  1.1000 -0.0170 -0.2880
 6097TIP3    H239927   0.122   5.052   0.922  1.6493  0.5625 -1.0232
 6098TIP3   OH239928   1.626   3.538   2.515  0.1500 -0.0383  0.1831
 6098TIP3    H139929   1.631   3.564   2.423 -0.3405  0.3619  0.2635
 6098TIP3    H239930   1.595   3.448   2.512 -0.6017  0.2155 -0.0293
 6099TIP3   OH239931   3.554   4.258   1.690  0.2521  0.0223 -0.0918
 6099TIP3    H139932   3.545   4.264   1.785 -0.9287  0.3727 -0.2033
 6099TIP3    H239933   3.569   4.165   1.673  1.3958  0.0864  0.4908
 6100TIP3   OH239934   4.825   4.743   6.663 -0.1084 -0.1849  0.2262
 6100TIP3    H139935   4.818   4.736   6.758  2.3844  0.1409  0.5198
 6100TIP3    H239936   4.901   4.801   6.649 -1.7490  1.6144 -1.9792
 6101TIP3   OH239937   0.204   2.797   7.376  0.3576 -0.6240 -0.4545
 6101TIP3    H139938   0.271   2.733   7.352  0.0791 -0.7707 -0.8579
 6101TIP3    H239939   0.234   2.833   7.459  0.7830 -0.9046 -0.4812
 6102TIP3   OH239940   3.332   5.808   6.263  0.1863  0.0181  0.2696
 6102TIP3    H139941   3.419   5.849   6.267  0.1977  0.2520 -1.4898
 6102TIP3    H239942   3.320   5.788   6.170 -0.7992 -1.8846  0.7676
 6103TIP3   OH239943   0.565   6.427   0.169  0.3233  0.0074 -0.4109
 6103TIP3    H139944   0.563   6.333   0.155  0.1783  0.1392 -1.3559
 6103TIP3    H239945   0.563   6.438   0.264 -0.7993 -0.9079 -0.3143
 6104TIP3   OH239946   4.945   6.670   1.317  0.1077 -0.3010 -1.1957
 6104TIP3    H139947   4.973   6.759   1.294  1.4793 -0.4920 -0.3660
 6104TIP3    H239948   4.960   6.619   1.238  1.5571 -0.2566 -0.9767
 6105TIP3   OH239949   1.198   3.515   7.658  0.0345 -0.3833 -0.5356
 6105TIP3    H139950   1.204   3.536   7.751 -1.9835  3.2137 -1.0315
 6105TIP3    H239951   1.113   3.471   7.649  0.2884 -0.8499 -0.6558
 6106TIP3   OH239952   2.040   5.853   6.225  0.0909  0.1472  0.2447
 6106TIP3    H139953   1.981   5.911   6.176 -1.3330 -1.9816 -0.7527
 6106TIP3    H239954   1.985   5.816   6.294  0.8006 -0.4340  0.5083
 6107TIP3   OH239955   6.594   5.170   7.886  0.2338 -0.5262 -0.3798
 6107TIP3    H139956   6.522   5.148   7.946  0.2625 -1.2055 -0.5890
 6107TIP3    H239957   6.673   5.156   7.937  0.2325  0.3359 -0.1113
 6108TIP3   OH239958   5.465   4.336   1.406 -0.5626 -0.1335 -0.2265
 6108TIP3    H139959   5.409   4.261   1.386 -1.0441 -0.2939  1.5668
 6108TIP3    H239960   5.409   4.413   1.393 -1.1274 -0.2757  1.1759
 6109TIP3   OH239961   2.853   0.571   0.362  0.1349 -0.4715 -0.9873
 6109TIP3    H139962   2.785   0.637   0.350 -0.4757 -1.2223 -1.8028
 6109TIP3    H239963   2.843   0.541   0.453 -0.1905 -0.1084 -0.9033
 6110TIP3   OH239964   0.600   0.348   0.450  0.2440 -0.2286  0.6587
 6110TIP3    H139965   0.568   0.391   0.529  1.0597 -1.1897  1.5343
 6110TIP3    H239966   0.630   0.420   0.395  0.7913  0.3892  1.7376
 6111TIP3   OH239967   1.432   5.238   0.288 -0.6148 -0.4648 -0.5784
 6111TIP3    H139968   1.463   5.312   0.340  0.2788 -0.8783 -0.5101
 6111TIP3    H239969   1.471   5.251   0.202 -2.0044  0.1608 -1.1497
 6112TIP3   OH239970   0.973   4.921   6.079  0.0519 -0.4562 -0.1042
 6112TIP3    H139971   1.024   5.003   6.077 -0.2314 -0.1188  2.4341
 6112TIP3    H239972   1.023   4.864   6.138 -1.1720 -1.0762  0.3583
 6113TIP3   OH239973   4.165   4.413   7.239 -1.0490 -0.2115 -0.1712
 6113TIP3    H139974   4.185   4.497   7.282 -1.0182  0.0305 -0.6511
 6113TIP3    H239975   4.237   4.355   7.266 -0.8501  0.0357 -0.1653
 6114TIP3   OH239976   1.055   3.720   2.209 -0.0962  0.0038  0.1845
 6114TIP3    H139977   1.109   3.788   2.168 -0.7635  1.1892  1.2067
 6114TIP3    H239978   0.971   3.725   2.164  0.2668 -1.0949 -0.6591
 6115TIP3   OH239979   7.018   3.107   6.409 -0.2596  0.6095 -0.4033
 6115TIP3    H139980   6.935   3.089   6.366 -0.1911 -0.2088 -0.2105
 6115TIP3    H239981   7.068   3.026   6.399  0.5654  1.1341 -0.6312
 6116TIP3   OH239982   5.626   5.319   6.751  0.2662 -0.4923  0.0581
 6116TIP3    H139983   5.573   5.277   6.683 -1.3194  0.6828  0.4811
 6116TIP3    H239984   5.623   5.258   6.825  0.5553 -0.9958 -0.3401
 6117TIP3   OH239985   6.806   2.566   1.215  0.5590  0.0344 -0.3121
 6117TIP3    H139986   6.841   2.621   1.286  1.6548  0.0694 -0.8569
 6117TIP3    H239987   6.722   2.534   1.249 -0.7843  3.0411 -0.4439
 6118TIP3   OH239988   6.661   4.837   0.974 -0.3029  0.3679  0.4416
 6118TIP3    H139989   6.582   4.796   1.009 -0.2865 -0.1874 -0.1518
 6118TIP3    H239990   6.733   4.795   1.021 -0.3826  1.8065  1.9437
 6119TIP3   OH239991   0.311   0.597   6.694  0.0590  0.0745  0.1060
 6119TIP3    H139992   0.341   0.507   6.707  1.6366  0.5893  0.3000
 6119TIP3    H239993   0.382   0.639   6.643 -1.1963  0.8900 -1.0503
 6120TIP3   OH239994   6.014   6.197   7.957 -0.3216  0.2246  0.0504
 6120TIP3    H139995   5.925   6.175   7.930 -0.1126 -0.3166 -0.2127
 6120TIP3    H239996   6.070   6.151   7.895  0.1452  2.4167 -1.2558
 6121TIP3   OH239997   5.379   0.329   6.414  0.4128  0.3821  0.0283
 6121TIP3    H139998   5.400   0.280   6.334  0.9985 -1.6272  1.3551
 6121TIP3    H239999   5.450   0.309   6.475 -1.3590 -0.3521  1.9733
 6122TIP3   OH240000   6.372   2.338   0.041  0.6206  0.2498 -0.2964
 6122TIP3    H140001   6.420   2.409  -0.001 -0.5717  0.1213 -1.9682
 6122TIP3    H240002   6.386   2.262  -0.016 -0.9593  0.0434 -0.4651
 6123TIP3   OH240003   3.016   2.571   5.986  0.1571  0.0130  0.0220
 6123TIP3    H140004   3.040   2.532   6.071  1.1315  0.3898 -0.0669
 6123TIP3    H240005   3.087   2.545   5.927 -0.1252  0.3931 -0.4911
 6124TIP3   OH240006   0.457   3.058   0.061  0.2742 -0.3732  0.1242
 6124TIP3    H140007   0.501   2.998   0.001  1.0720 -0.4088  0.7237
 6124TIP3    H240008   0.419   3.002   0.128 -0.9874 -0.3647 -0.5615
 6125TIP3   OH240009   4.756   4.892   7.058 -0.1861 -0.6417  0.3856
 6125TIP3    H140010   4.826   4.957   7.059  0.5502 -1.4068  1.6003
 6125TIP3    H240011   4.676   4.942   7.041  0.6711  0.1955 -1.4503
 6126TIP3   OH240012   2.102   5.743   8.035  0.7459 -0.3890  0.0019
 6126TIP3    H140013   2.042   5.807   7.997  0.6222 -0.9994 -0.8575
 6126TIP3    H240014   2.089   5.751   8.129 -1.7775 -1.5054 -0.1672
 6127TIP3   OH240015   6.679   0.747   8.041  0.0013  0.2355 -0.0416
 6127TIP3    H140016   6.613   0.729   7.974 -0.9911  1.3915  0.5654
 6127TIP3    H240017   6.653   0.693   8.116  0.5166 -0.2991 -0.2505
 6128TIP3   OH240018   0.371   3.361   7.758 -0.6105  0.2627  0.2794
 6128TIP3    H140019   0.446   3.393   7.707  0.0461 -2.8297 -0.9198
 6128TIP3    H240020   0.326   3.440   7.787  2.0055  2.2084 -0.6353
 6129TIP3   OH240021   0.879   3.722   6.986 -0.6487 -0.2585 -0.2151
 6129TIP3    H140022   0.806   3.750   6.931  0.5332  1.1139 -1.1399
 6129TIP3    H240023   0.938   3.797   6.989  0.1512 -0.8872  1.5470
 6130TIP3   OH240024   4.860   0.391   0.726 -0.0282 -0.1297 -0.1987
 6130TIP3    H140025   4.803   0.390   0.650  1.4996 -1.9023 -1.4218
 6130TIP3    H240026   4.801   0.398   0.801 -1.8687 -1.7423 -1.3918
 6131TIP3   OH240027   1.792   4.028   1.360 -0.2737  0.5369 -0.1825
 6131TIP3    H140028   1.708   4.021   1.404 -0.5748  0.4714 -0.7618
 6131TIP3    H240029   1.813   3.939   1.332  0.0937  0.5153  0.1449
 6132TIP3   OH240030   3.105   0.051   0.870  0.1552 -0.2326 -0.4054
 6132TIP3    H140031   3.176   0.085   0.815  0.7634 -1.2555 -0.2696
 6132TIP3    H240032   3.149  -0.006   0.933 -0.5419  0.7928  1.0680
 6133TIP3   OH240033   3.842   5.190   2.217  0.7728  0.1777  0.0743
 6133TIP3    H140034   3.819   5.103   2.184 -0.5258  0.8394 -0.8176
 6133TIP3    H240035   3.859   5.175   2.310  1.8296 -1.2387 -0.3086
 6134TIP3   OH240036   1.306   3.357   1.184  0.2249  0.0197  0.2397
 6134TIP3    H140037   1.266   3.296   1.122  0.7191 -0.7774  0.6808
 6134TIP3    H240038   1.232   3.402   1.225 -0.1283  0.0464 -0.4119
 6135TIP3   OH240039   4.929   0.906   7.849  0.1225  0.3071  0.9303
 6135TIP3    H140040   4.978   0.866   7.777  1.4126  1.4739  1.1179
 6135TIP3    H240041   4.844   0.928   7.811  0.6510  0.5730 -0.1335
 6136TIP3   OH240042   3.468   2.833   0.037 -0.6639 -0.5994 -0.0531
 6136TIP3    H140043   3.528   2.803  -0.031  1.4957  0.7817  1.1081
 6136TIP3    H240044   3.466   2.929   0.026 -1.7758 -0.5166  0.6688
 6137TIP3   OH240045   3.636   5.386   2.141 -0.5844 -0.2280 -0.2130
 6137TIP3    H140046   3.713   5.437   2.163 -0.4215  1.1988 -3.4868
 6137TIP3    H240047   3.671   5.300   2.116 -0.4960 -0.8247  1.8304
 6138TIP3   OH240048   2.051   4.559   7.926  0.2119  0.4173  0.2264
 6138TIP3    H140049   2.071   4.518   8.010  1.3061  0.1612 -0.1458
 6138TIP3    H240050   2.125   4.617   7.909 -0.3594  1.0419 -0.2158
 6139TIP3   OH240051   3.166   6.140   1.154 -0.5747  0.0957 -0.1091
 6139TIP3    H140052   3.173   6.112   1.063 -1.6821  0.2741 -0.2606
 6139TIP3    H240053   3.090   6.091   1.188 -1.8756  2.0387 -0.0667
 6140TIP3   OH240054   6.563   6.091   1.977  0.0542  0.1121  0.1522
 6140TIP3    H140055   6.608   6.017   1.936  0.1194  0.2049  0.0549
 6140TIP3    H240056   6.611   6.106   2.058 -0.6188 -0.6421  0.7010
 6141TIP3   OH240057   1.350   0.033   1.083  0.2281  0.6006  0.2966
 6141TIP3    H140058   1.280   0.090   1.115 -0.0622  0.2901  0.2275
 6141TIP3    H240059   1.420   0.093   1.057  0.1159  0.8988  0.6721
 6142TIP3   OH240060   2.439   2.756   7.062 -0.2927 -0.0352 -0.8279
 6142TIP3    H140061   2.398   2.670   7.074  0.8363 -0.3936  0.7555
 6142TIP3    H240062   2.367   2.813   7.036 -1.8384 -0.6480  1.7326
 6143TIP3   OH240063   4.834   2.080   7.871 -0.1569 -0.1446 -0.4431
 6143TIP3    H140064   4.850   2.086   7.776  0.1651 -1.0750 -0.4562
 6143TIP3    H240065   4.841   1.987   7.890  1.4456  0.2036  0.8023
 6144TIP3   OH240066   3.760   0.878   0.996 -0.1761 -0.2607  0.3995
 6144TIP3    H140067   3.775   0.834   0.913  1.4805  1.1171 -0.0891
 6144TIP3    H240068   3.690   0.828   1.038 -0.1920 -1.7109 -1.2679
 6145TIP3   OH240069   5.871   2.846   1.040 -0.3027 -0.4226 -0.1326
 6145TIP3    H140070   5.823   2.896   1.105 -0.3244 -1.3860  0.6141
 6145TIP3    H240071   5.955   2.891   1.032  0.0124 -0.7328  1.1601
 6146TIP3   OH240072   1.473   1.736   0.833 -0.0758 -0.5148  0.4996
 6146TIP3    H140073   1.377   1.742   0.834 -0.0769  0.5576 -1.3908
 6146TIP3    H240074   1.500   1.801   0.768  2.1419  1.3468  3.1044
 6147TIP3   OH240075   3.513   5.584   0.075 -0.0029 -0.1801 -0.6449
 6147TIP3    H140076   3.586   5.618   0.126  1.5327 -1.9064 -1.5623
 6147TIP3    H240077   3.553   5.553  -0.006 -2.0127  0.2551 -1.8677
 6148TIP3   OH240078   3.479   1.606   7.586 -0.0391 -0.0196  0.0212
 6148TIP3    H140079   3.403   1.650   7.549  0.9846  1.2563 -0.6830
 6148TIP3    H240080   3.497   1.534   7.525  0.2649  0.6754 -0.7413
 6149TIP3   OH240081   5.099   0.373   0.315  0.0485 -0.5912  0.3169
 6149TIP3    H140082   5.104   0.277   0.325  0.2085 -0.3743  3.1152
 6149TIP3    H240083   5.190   0.401   0.311  0.1598 -0.3712  2.8345
 6150TIP3   OH240084   2.943   3.493   8.126  0.0417  0.6873  0.7409
 6150TIP3    H140085   2.883   3.567   8.138 -0.6532  0.2085  0.3245
 6150TIP3    H240086   2.916   3.430   8.192  0.2649  0.5782  0.7275
 6151TIP3   OH240087   4.678   1.778   1.535  0.3049  0.0508 -0.3090
 6151TIP3    H140088   4.687   1.857   1.588 -1.6245 -0.6165  1.1006
 6151TIP3    H240089   4.652   1.710   1.597  1.2764 -1.5639 -1.5992
 6152TIP3   OH240090   2.923   0.969   0.724  0.0979  0.2278 -0.6086
 6152TIP3    H140091   2.952   1.026   0.652  1.6130  0.4750  0.1637
 6152TIP3    H240092   2.998   0.914   0.742 -0.3962 -0.0865  0.5599
 6153TIP3   OH240093   4.359   3.736   0.062 -0.6041  0.1614 -0.1048
 6153TIP3    H140094   4.353   3.641   0.071  1.4603 -0.0907 -0.9787
 6153TIP3    H240095   4.379   3.767   0.151 -1.0011 -0.2270  0.1265
 6154TIP3   OH240096   6.988   5.710   6.153 -0.2033 -0.5787  0.3188
 6154TIP3    H140097   6.950   5.667   6.230  0.3281  0.1150  0.9878
 6154TIP3    H240098   7.082   5.697   6.162 -0.1016 -0.0455  0.0610
 6155TIP3   OH240099   5.841   5.389   7.600 -0.1976 -0.2400 -0.5750
 6155TIP3    H140100   5.820   5.295   7.603 -0.3042 -0.2529  3.3469
 6155TIP3    H240101   5.761   5.429   7.566 -1.0898 -1.3973  0.0617
 6156TIP3   OH240102   2.740   1.319   0.387  0.3237 -0.4953 -0.2711
 6156TIP3    H140103   2.771   1.273   0.465  0.0953 -1.3137 -0.6460
 6156TIP3    H240104   2.797   1.288   0.317  0.3188 -0.0144 -0.4874
 6157TIP3   OH240105   4.600   6.265   1.588 -0.5892 -0.2042 -0.5213
 6157TIP3    H140106   4.547   6.286   1.665 -1.1028  2.0924 -1.4315
 6157TIP3    H240107   4.686   6.241   1.625 -1.4390 -1.3909  0.8257
 6158TIP3   OH240108   1.890   3.635   7.079 -0.2468  0.1640 -0.4053
 6158TIP3    H140109   1.967   3.634   7.023 -0.2295  1.6482 -0.4299
 6158TIP3    H240110   1.917   3.685   7.156 -1.3491  1.1983 -0.6713
 6159TIP3   OH240111   0.210   1.892   6.009  0.5972  0.3459 -0.6709
 6159TIP3    H140112   0.263   1.940   6.072  0.0247 -0.4315  0.4438
 6159TIP3    H240113   0.208   1.803   6.043 -0.5981  0.1467 -1.2117
 6160TIP3   OH240114   6.937   5.392   6.356  0.0295  0.1351  0.2747
 6160TIP3    H140115   6.951   5.370   6.264 -0.2144  0.4862  0.1523
 6160TIP3    H240116   6.995   5.333   6.404 -0.6191 -0.7992 -0.0497
 6161TIP3   OH240117   6.176   7.005   6.855 -0.6891  0.6782  0.0867
 6161TIP3    H140118   6.120   6.928   6.848 -0.3640  0.4411  0.0409
 6161TIP3    H240119   6.253   6.983   6.802 -0.5258  0.9719  0.2010
 6162TIP3   OH240120   6.731   0.316   0.984  0.2987  0.5081 -0.0069
 6162TIP3    H140121   6.657   0.377   0.989  0.7318  1.1287 -0.9995
 6162TIP3    H240122   6.690   0.230   0.975 -0.3158  0.8658 -0.7952
 6163TIP3   OH240123   3.507   4.177   1.988  0.3626 -0.4382  0.1176
 6163TIP3    H140124   3.442   4.110   1.964 -0.5943  0.5769 -0.2111
 6163TIP3    H240125   3.562   4.134   2.053  0.2392 -1.7966 -0.6173
 6164TIP3   OH240126   1.351   6.358   1.072 -0.0818 -0.4867 -0.6703
 6164TIP3    H140127   1.340   6.390   1.162  0.1816 -0.0058 -0.8093
 6164TIP3    H240128   1.442   6.329   1.068  0.3114  0.7326 -1.1638
 6165TIP3   OH240129   1.098   2.460   5.967  1.2195 -0.1997  0.3729
 6165TIP3    H140130   1.066   2.516   5.896 -3.3071  0.5129  2.5848
 6165TIP3    H240131   1.165   2.513   6.011  1.8890  0.5787 -1.4870
 6166TIP3   OH240132   6.232   3.305   1.476  0.5442 -0.1743  0.5358
 6166TIP3    H140133   6.151   3.255   1.474  0.7062 -0.4571 -1.3666
 6166TIP3    H240134   6.218   3.375   1.412  1.4222  0.4000  0.9552
 6167TIP3   OH240135   1.839   3.465   1.454 -0.1758 -0.4242 -0.0439
 6167TIP3    H140136   1.892   3.503   1.384  0.9134 -0.7035  0.6100
 6167TIP3    H240137   1.764   3.525   1.462  1.6186  1.8267  1.1641
 6168TIP3   OH240138   5.040   2.695   0.521  0.2647 -0.0924 -0.2102
 6168TIP3    H140139   5.133   2.673   0.518  0.3793 -0.0511  1.8521
 6168TIP3    H240140   5.030   2.743   0.603 -1.5234  0.2254 -0.5844
 6169TIP3   OH240141   5.638   1.881   7.914  0.4185 -0.1922  0.9366
 6169TIP3    H140142   5.726   1.851   7.894  0.6826 -0.7928  2.7904
 6169TIP3    H240143   5.646   1.922   8.001 -1.0492  0.0672  0.9712
 6170TIP3   OH240144   7.006   0.237   6.287 -0.1128  0.8367  0.0103
 6170TIP3    H140145   6.983   0.146   6.305 -0.1810  0.6633 -0.8768
 6170TIP3    H240146   6.984   0.249   6.194  0.7547  1.4828 -0.1267
 6171TIP3   OH240147   4.147   2.332   7.053  0.1276 -0.2050 -0.0359
 6171TIP3    H140148   4.190   2.392   7.114 -0.4534  0.9928 -0.7716
 6171TIP3    H240149   4.182   2.356   6.967 -0.4882 -0.5934 -0.4016
 6172TIP3   OH240150   5.229   4.883   7.854 -0.1578  0.1115 -0.6840
 6172TIP3    H140151   5.177   4.928   7.920 -0.7991 -1.9063  0.2844
 6172TIP3    H240152   5.297   4.837   7.904  1.2642  0.9811 -1.7407
 6173TIP3   OH240153   5.073   0.344   7.900  0.1183 -0.2722  0.3221
 6173TIP3    H140154   5.095   0.407   7.969  0.9008 -0.4309  0.2303
 6173TIP3    H240155   5.105   0.384   7.819  1.4542 -1.1522  0.3701
 6174TIP3   OH240156   6.957   3.874   7.485 -0.2369 -0.2277 -0.2043
 6174TIP3    H140157   7.005   3.922   7.553 -1.4699  0.5841  0.1295
 6174TIP3    H240158   6.971   3.924   7.405 -1.6718  0.8419  0.1803
 6175TIP3   OH240159   4.768   1.069   6.009 -0.0217  0.2290  0.4729
 6175TIP3    H140160   4.842   1.014   5.983  0.1921  0.4992  0.5062
 6175TIP3    H240161   4.745   1.038   6.097  0.1957  0.2972  0.5544
 6176TIP3   OH240162   7.064   0.960   0.572 -0.0238 -0.7294  0.2150
 6176TIP3    H140163   7.158   0.977   0.562  0.2013 -2.2045 -0.4258
 6176TIP3    H240164   7.024   1.002   0.495 -0.0219  0.5967  0.8972
 6177TIP3   OH240165   3.964   6.261   0.656 -0.3738 -0.3947 -0.1927
 6177TIP3    H140166   3.987   6.324   0.588 -0.2086  1.0564  1.1627
 6177TIP3    H240167   3.884   6.219   0.623 -1.1565  1.3527 -0.6322
 6178TIP3   OH240168   0.043   3.379   7.519 -0.0716  0.0099 -0.9674
 6178TIP3    H140169   0.018   3.469   7.499 -0.6674  0.1845  0.4139
 6178TIP3    H240170  -0.040   3.330   7.516  0.1132 -0.3157 -0.8401
 6179TIP3   OH240171   3.829   2.959   7.655 -0.2575 -0.4492 -0.0484
 6179TIP3    H140172   3.821   3.043   7.701 -0.6003 -1.3011  1.5327
 6179TIP3    H240173   3.866   2.982   7.570 -2.4700  1.5849 -0.5843
 6180TIP3   OH240174   0.947   5.248   7.323 -0.0499  0.1217  0.6120
 6180TIP3    H140175   0.907   5.272   7.240  2.5027  3.0304  0.0390
 6180TIP3    H240176   0.934   5.324   7.380 -0.2046 -1.1070  2.2986
 6181TIP3   OH240177   0.848   0.338   0.137 -0.0090  0.0935  0.0257
 6181TIP3    H140178   0.779   0.386   0.182  0.8653  0.2313  1.2676
 6181TIP3    H240179   0.861   0.259   0.190 -0.2754 -0.7049 -1.0643
 6182TIP3   OH240180   3.176   0.999   0.093 -0.9565 -0.3250  0.4861
 6182TIP3    H140181   3.262   1.020   0.129 -0.6000  0.6785 -0.8877
 6182TIP3    H240182   3.174   0.903   0.091  0.6500 -0.3778 -0.5854
 6183TIP3   OH240183   1.159   2.631   2.366 -0.0388  0.0395 -0.4922
 6183TIP3    H140184   1.081   2.576   2.362 -0.4940  0.4279  1.6059
 6183TIP3    H240185   1.232   2.569   2.367 -0.4365 -0.4389 -0.4307
 6184TIP3   OH240186   4.667   2.757   7.926  0.0385  0.0609 -0.1673
 6184TIP3    H140187   4.617   2.680   7.953 -0.4027 -0.3348 -1.9408
 6184TIP3    H240188   4.644   2.825   7.989 -2.0814 -0.3719 -0.3932
 6185TIP3   OH240189   0.493   5.074   0.772  0.8768  0.4884  0.2484
 6185TIP3    H140190   0.440   5.020   0.712 -0.8354  0.7834  1.4415
 6185TIP3    H240191   0.540   5.010   0.826  0.2586  0.1937  0.4458
 6186TIP3   OH240192   5.950   0.722   1.098  0.4440 -0.0376 -0.6195
 6186TIP3    H140193   5.905   0.713   1.182  0.1200 -1.1751 -0.8924
 6186TIP3    H240194   5.944   0.815   1.077 -1.6437 -0.1034 -0.5595
 6187TIP3   OH240195   2.643   5.971   6.131  0.6851 -0.2917 -0.2489
 6187TIP3    H140196   2.576   5.953   6.197  0.7523 -0.5212 -0.2428
 6187TIP3    H240197   2.624   5.908   6.061 -0.3816  0.9876 -1.1720
 6188TIP3   OH240198   6.447   1.071   0.371 -0.2862  0.0534 -0.4105
 6188TIP3    H140199   6.381   1.007   0.394 -2.0040  1.9429  0.2085
 6188TIP3    H240200   6.507   1.071   0.446  0.9270 -2.1777 -1.2854
 6189TIP3   OH240201   1.410   4.487   6.569 -0.4649  0.1280 -0.3876
 6189TIP3    H140202   1.359   4.560   6.605  1.1846  1.2066 -0.1087
 6189TIP3    H240203   1.444   4.442   6.646 -1.1238 -0.6882 -0.5671
 6190TIP3   OH240204   6.985   1.372   1.605 -0.4897 -0.1122 -0.0688
 6190TIP3    H140205   6.919   1.318   1.649 -0.4562  0.1414  0.2893
 6190TIP3    H240206   6.938   1.411   1.531 -0.4758 -0.7554 -0.4269
 6191TIP3   OH240207   6.701   2.556   6.513  0.7870 -0.0710 -0.0379
 6191TIP3    H140208   6.762   2.554   6.440  1.5733  1.1872  0.5486
 6191TIP3    H240209   6.751   2.594   6.586 -0.1739 -0.6381  0.9598
 6192TIP3   OH240210   6.626   3.964   7.503 -0.0139 -0.2714  0.0624
 6192TIP3    H140211   6.664   4.051   7.518 -0.3542  0.0516 -0.8542
 6192TIP3    H240212   6.624   3.955   7.408 -0.1395 -1.2204  0.1448
 6193TIP3   OH240213   6.752   4.384   1.511 -0.2632  0.0268  0.1238
 6193TIP3    H140214   6.723   4.377   1.420 -2.1329  0.0662  0.6835
 6193TIP3    H240215   6.828   4.326   1.517  0.1696  0.3765 -1.5554
 6194TIP3   OH240216   0.473   1.255   7.502  0.0214 -0.1005  0.1599
 6194TIP3    H140217   0.553   1.269   7.553  0.7611  1.5937 -1.3625
 6194TIP3    H240218   0.467   1.332   7.446 -0.8002 -1.7922 -2.2349
 6195TIP3   OH240219   2.300   0.878   5.816 -0.1301 -0.5039  0.4167
 6195TIP3    H140220   2.298   0.967   5.782 -0.9169 -0.4824  0.5131
 6195TIP3    H240221   2.385   0.873   5.862  1.2187 -0.7224 -1.9593
 6196TIP3   OH240222   5.146   6.265   1.316  0.2956  0.2607  0.1353
 6196TIP3    H140223   5.093   6.294   1.390  0.9592  0.8386  0.3968
 6196TIP3    H240224   5.183   6.181   1.345 -1.4588 -0.7854 -0.5412
 6197TIP3   OH240225   2.552   0.532   6.932 -0.0859  0.2814  0.0340
 6197TIP3    H140226   2.592   0.501   7.013  0.9947  0.9404 -0.2225
 6197TIP3    H240227   2.561   0.459   6.871 -0.1693  0.0712  0.2729
 6198TIP3   OH240228   5.950   4.303   5.967  0.1228  0.2011 -0.0061
 6198TIP3    H140229   5.911   4.218   5.986 -1.0666  0.5754 -0.6665
 6198TIP3    H240230   6.010   4.287   5.894  0.4961 -0.2061  0.3858
 6199TIP3   OH240231   2.619   0.576   0.929  0.1026  0.1342 -0.1216
 6199TIP3    H140232   2.624   0.514   1.001 -0.0588  0.5333  0.2379
 6199TIP3    H240233   2.587   0.525   0.855 -0.9327 -0.0092  0.4116
 6200TIP3   OH240234   1.689   5.335   1.699 -0.3355 -0.1768 -0.2597
 6200TIP3    H140235   1.687   5.430   1.701  1.0165 -0.1191 -0.7189
 6200TIP3    H240236   1.757   5.310   1.761 -1.2013 -0.8856  0.4250
 6201TIP3   OH240237   3.233   2.708   0.069  0.2571 -0.0530  0.2434
 6201TIP3    H140238   3.320   2.746   0.072  0.8333 -1.3572  0.7052
 6201TIP3    H240239   3.236   2.647  -0.005 -0.6856  0.8545 -0.5701
 6202TIP3   OH240240   5.404   0.809   6.622  0.3926  0.1017 -0.5269
 6202TIP3    H140241   5.454   0.729   6.605  1.2678  0.0528  1.8855
 6202TIP3    H240242   5.315   0.789   6.595  1.1018 -0.7531 -2.3928
 6203TIP3   OH240243   2.676   5.385   0.389  0.1345  0.2607 -0.3261
 6203TIP3    H140244   2.656   5.309   0.444 -0.7274  0.7243  0.0206
 6203TIP3    H240245   2.715   5.347   0.310  2.2458 -0.3623  0.9400
 6204TIP3   OH240246   0.966   3.802   6.310 -0.3017 -0.1354 -0.2917
 6204TIP3    H140247   1.007   3.883   6.341 -1.1150  0.4029 -0.5988
 6204TIP3    H240248   1.020   3.732   6.348 -0.4938  0.5233  1.2561
 6205TIP3   OH240249   3.243   2.940   7.835 -0.3648  0.3947 -0.3999
 6205TIP3    H140250   3.150   2.922   7.849 -0.2576  1.8551  3.5231
 6205TIP3    H240251   3.287   2.860   7.861 -0.4648  0.3860 -0.2546
 6206TIP3   OH240252   6.205   5.104   6.121  0.3349 -0.6091 -0.1527
 6206TIP3    H140253   6.134   5.041   6.107 -1.1432  1.1954 -1.2881
 6206TIP3    H240254   6.161   5.189   6.124  2.0194  0.2851  3.4618
 6207TIP3   OH240255   0.038   1.132   6.111 -0.2345 -0.0938  0.2359
 6207TIP3    H140256   0.081   1.056   6.149 -0.7408 -0.7619 -0.4874
 6207TIP3    H240257   0.021   1.190   6.185  3.3561  0.9885  0.3857
 6208TIP3   OH240258   6.800   4.529   0.483  0.3189 -0.4941 -0.1034
 6208TIP3    H140259   6.805   4.566   0.572 -0.8790  1.9313 -0.9707
 6208TIP3    H240260   6.876   4.566   0.438  1.5884 -2.6321  0.1412
 6209TIP3   OH240261   2.471   3.639   0.252  0.4148  0.1789  0.0465
 6209TIP3    H140262   2.430   3.677   0.329  3.2681 -0.9164  2.3278
 6209TIP3    H240263   2.454   3.701   0.182 -4.4681  0.0480  0.7674
 6210TIP3   OH240264   2.856   4.126   7.262  0.5676  0.6149  0.3438
 6210TIP3    H140265   2.811   4.158   7.183  0.7810 -0.0856 -0.0767
 6210TIP3    H240266   2.863   4.202   7.318  1.2828  1.3645 -0.7209
 6211TIP3   OH240267   3.324   0.538   1.922 -0.0839  0.1162 -0.2032
 6211TIP3    H140268   3.371   0.497   1.994  0.7020  1.0343 -0.1836
 6211TIP3    H240269   3.273   0.608   1.962  0.1802  0.4844 -0.5004
 6212TIP3   OH240270   3.877   0.175   0.410 -0.8273 -0.3687  0.4286
 6212TIP3    H140271   3.836   0.181   0.324  1.2100 -0.6031 -0.6214
 6212TIP3    H240272   3.815   0.217   0.469 -1.2757  1.9009 -1.5168
 6213TIP3   OH240273   4.735   4.942   5.951 -0.2211  0.7009  0.3238
 6213TIP3    H140274   4.650   4.971   5.917 -0.1516  0.2922 -0.2178
 6213TIP3    H240275   4.715   4.860   5.996  0.1289 -0.2996 -1.2658
 6214TIP3   OH240276   0.312   0.588   8.035  0.2572  0.0029 -0.5004
 6214TIP3    H140277   0.301   0.569   8.128 -1.8392 -0.6325 -0.8158
 6214TIP3    H240278   0.261   0.667   8.020  0.1732 -0.1717 -1.1842
 6215TIP3   OH240279   1.316   4.827   5.628  0.5240  0.7483 -0.2247
 6215TIP3    H140280   1.354   4.888   5.691 -0.4015  1.4027 -0.2770
 6215TIP3    H240281   1.353   4.742   5.652  0.4306  1.0331  1.0262
 6216TIP3   OH240282   3.980   2.196   0.633 -0.2263  0.0542 -0.2085
 6216TIP3    H140283   3.975   2.233   0.721 -0.1323 -0.1406 -0.1190
 6216TIP3    H240284   4.068   2.220   0.602 -0.8476  1.5589 -0.9070
 6217TIP3   OH240285   6.572   4.955   6.283  0.1828  0.1053  0.2997
 6217TIP3    H140286   6.557   4.893   6.212 -0.0056 -0.1068  0.5236
 6217TIP3    H240287   6.485   4.981   6.311  0.2316  1.6908 -0.8379
 6218TIP3   OH240288   6.754   6.875   1.732 -0.2734 -0.3446  0.4356
 6218TIP3    H140289   6.663   6.897   1.713 -0.6694 -1.3057  1.1607
 6218TIP3    H240290   6.764   6.897   1.825 -0.5029 -2.5321  1.0285
 6219TIP3   OH240291   2.916   6.775   0.295  0.4296  0.2551  0.4324
 6219TIP3    H140292   2.954   6.850   0.248  0.6277  0.3433  0.7235
 6219TIP3    H240293   2.829   6.805   0.321  0.6739  0.5515  0.9303
 6220TIP3   OH240294   2.542   3.061   1.239 -0.0021  0.1829  0.2569
 6220TIP3    H140295   2.533   2.991   1.174  1.7199  0.7639 -0.6654
 6220TIP3    H240296   2.572   3.016   1.318 -0.7623 -0.3569  0.2443
 6221TIP3   OH240297   0.513   7.005   6.866 -0.1757  0.4591 -0.7743
 6221TIP3    H140298   0.477   7.080   6.818 -3.4273 -1.1204 -1.1167
 6221TIP3    H240299   0.491   7.023   6.958 -1.1045 -0.0745 -0.8746
 6222TIP3   OH240300   6.925   4.746   0.166 -0.3869 -0.1389 -0.3771
 6222TIP3    H140301   6.977   4.689   0.223 -3.4598 -2.0923  0.7349
 6222TIP3    H240302   6.962   4.833   0.179  1.0716 -1.0221  2.1800
 6223TIP3   OH240303   1.106   1.555   2.314  0.0801 -0.0195 -0.0937
 6223TIP3    H140304   1.142   1.594   2.235 -0.7066  0.0728 -0.4126
 6223TIP3    H240305   1.019   1.524   2.288 -0.6939  1.1019  1.0313
 6224TIP3   OH240306   0.491   1.779   1.349 -0.0753 -0.1910  0.1309
 6224TIP3    H140307   0.437   1.762   1.426  2.1397 -1.1517  1.5590
 6224TIP3    H240308   0.450   1.727   1.280 -0.2489 -1.9764  1.5052
 6225TIP3   OH240309   4.595   1.330   7.518 -0.6185  0.2463  0.1917
 6225TIP3    H140310   4.608   1.283   7.600 -2.9711  1.0066  1.1035
 6225TIP3    H240311   4.571   1.262   7.455  0.9712 -0.3170  0.1598
 6226TIP3   OH240312   3.503   7.004   0.434 -0.0538 -0.1266  0.6851
 6226TIP3    H140313   3.414   6.987   0.403 -0.3960  3.2133 -0.5636
 6226TIP3    H240314   3.551   7.032   0.356  1.5026  0.1979  1.7119
 6227TIP3   OH240315   0.487   6.244   2.195 -0.1568 -0.3281  0.2445
 6227TIP3    H140316   0.402   6.288   2.186 -0.2498 -0.9472 -4.0045
 6227TIP3    H240317   0.466   6.151   2.191  0.5873 -0.6316  2.2623
 6228TIP3   OH240318   4.125   3.940   0.047  0.0373 -0.2031  0.0876
 6228TIP3    H140319   4.208   3.892   0.054  0.9809  1.4461  0.7923
 6228TIP3    H240320   4.114   3.952  -0.048  0.0130 -1.3697 -0.0794
 6229TIP3   OH240321   4.471   6.988   7.636  0.1445  0.1410 -0.6212
 6229TIP3    H140322   4.541   6.937   7.675 -1.9150 -2.1891  0.2934
 6229TIP3    H240323   4.470   6.963   7.544  1.6087  1.5985 -1.0807
 6230TIP3   OH240324   5.319   5.342   1.061 -0.0128 -0.7388 -0.3774
 6230TIP3    H140325   5.256   5.332   0.990 -0.3190 -0.6776 -0.1172
 6230TIP3    H240326   5.286   5.285   1.130 -1.8241  1.9936  1.1609
 6231TIP3   OH240327   2.177   4.339   5.837  0.2734  0.1249  0.1214
 6231TIP3    H140328   2.240   4.282   5.882  0.0852 -1.0273 -1.0041
 6231TIP3    H240329   2.093   4.295   5.850  0.3367 -0.7951 -2.1065
 6232TIP3   OH240330   3.574   4.000   1.637 -0.6808  0.3157  0.2980
 6232TIP3    H140331   3.541   3.995   1.548  1.3147  1.9084 -0.6318
 6232TIP3    H240332   3.616   3.915   1.652  0.7356  0.7232 -1.0959
 6233TIP3   OH240333   5.960   6.757   7.904 -0.2883  0.9197 -0.0433
 6233TIP3    H140334   5.962   6.662   7.893  1.4761  0.5833  2.4244
 6233TIP3    H240335   5.995   6.791   7.822  0.6835 -0.6549 -0.3299
 6234TIP3   OH240336   1.267   0.191   1.572 -0.0282 -0.0917 -0.0287
 6234TIP3    H140337   1.185   0.144   1.585 -0.4102  0.9028  1.3013
 6234TIP3    H240338   1.290   0.224   1.658  1.9166 -0.5483 -0.3248
 6235TIP3   OH240339   5.719   0.844   1.665 -0.2596 -0.7521 -0.7267
 6235TIP3    H140340   5.639   0.801   1.695 -0.0251 -1.0590 -0.5391
 6235TIP3    H240341   5.723   0.925   1.715  0.2772 -1.3915  0.2941
 6236TIP3   OH240342   2.637   2.993   7.476  0.4749 -0.5658 -0.0800
 6236TIP3    H140343   2.647   2.925   7.542  1.5864  1.0639  1.5544
 6236TIP3    H240344   2.706   3.057   7.497  0.6249  0.2229 -2.6068
 6237TIP3   OH240345   6.768   4.928   0.623  0.5671  0.7085 -0.0927
 6237TIP3    H140346   6.780   4.865   0.694  1.3406  0.4753 -0.4241
 6237TIP3    H240347   6.803   5.010   0.657  0.6409  0.6757 -0.0894
 6238TIP3   OH240348   2.998   5.770   1.439 -0.0378 -0.1865 -0.0317
 6238TIP3    H140349   3.012   5.719   1.360 -0.4013  0.7511 -0.7118
 6238TIP3    H240350   3.086   5.794   1.469  0.1758 -1.6821  0.6371
 6239TIP3   OH240351   2.944   5.952   7.861 -0.3417  0.1346 -0.7873
 6239TIP3    H140352   2.969   6.034   7.819 -2.9676  0.0989 -2.6627
 6239TIP3    H240353   2.908   5.979   7.945 -1.3304  0.9567 -1.4516
 6240TIP3   OH240354   2.362   1.770   6.471 -0.6974  0.4753 -0.3045
 6240TIP3    H140355   2.345   1.755   6.378 -0.1889  1.3062 -0.5511
 6240TIP3    H240356   2.361   1.866   6.479  2.0077  0.5485 -0.0259
 6241TIP3   OH240357   4.054   0.715   7.079  0.0986 -0.0786 -0.4941
 6241TIP3    H140358   4.095   0.798   7.104  0.1305 -0.4295  0.6766
 6241TIP3    H240359   3.960   0.733   7.082  0.0977  0.6203 -2.8101
 6242TIP3   OH240360   2.351   0.480   7.223 -0.1221 -0.2264  0.2886
 6242TIP3    H140361   2.292   0.503   7.295 -2.4956 -1.8460 -0.9955
 6242TIP3    H240362   2.296   0.431   7.162  1.9172  0.5643 -2.3824
 6243TIP3   OH240363   1.029   1.864   0.261 -0.1753 -0.0409 -0.2918
 6243TIP3    H140364   1.024   1.956   0.287 -0.5059  0.1269 -0.9287
 6243TIP3    H240365   0.943   1.828   0.281 -0.1237 -0.1517 -0.2654
 6244TIP3   OH240366   4.310   2.674   7.366  0.2996 -0.2801  0.3416
 6244TIP3    H140367   4.287   2.767   7.369  0.4134 -0.2660  0.8701
 6244TIP3    H240368   4.384   2.669   7.306 -0.4409 -0.1920 -0.6089
 6245TIP3   OH240369   2.689   4.858   0.538 -0.9154 -0.3137  0.5210
 6245TIP3    H140370   2.621   4.811   0.585 -1.4235 -1.0054 -0.8445
 6245TIP3    H240371   2.770   4.813   0.562 -1.3412 -1.6641 -0.3992
 6246TIP3   OH240372   2.040   5.017   6.841  0.5439 -0.6979 -0.3425
 6246TIP3    H140373   2.049   4.962   6.918  0.3844 -0.4828 -0.1715
 6246TIP3    H240374   2.129   5.026   6.807  0.3693 -2.6375 -1.4657
 6247TIP3   OH240375   1.488   4.778   2.131 -0.1003  0.6442 -0.1112
 6247TIP3    H140376   1.552   4.808   2.067  1.2853  1.0382  1.4021
 6247TIP3    H240377   1.496   4.840   2.203 -1.0509 -0.2589  0.8009
 6248TIP3   OH240378   2.485   3.163   0.098 -0.4214  0.4246  0.7681
 6248TIP3    H140379   2.550   3.189   0.164  0.8534 -1.4383  0.3196
 6248TIP3    H240380   2.494   3.229   0.028 -0.1744  1.0995  1.4234
 6249TIP3   OH240381   1.998   5.877   0.486  0.6881  0.0712 -0.5809
 6249TIP3    H140382   1.932   5.826   0.534  1.4937 -0.1687  0.2939
 6249TIP3    H240383   2.082   5.842   0.514  1.2189  0.6397 -1.3847
 6250TIP3   OH240384   0.551   0.831   0.793  0.5441  0.5319 -0.1118
 6250TIP3    H140385   0.534   0.749   0.840 -3.3157 -0.6351 -2.9688
 6250TIP3    H240386   0.505   0.898   0.844  0.4742  0.1914  0.2709
 6251TIP3   OH240387   1.335   0.991   0.836  0.1099  0.5628  0.0914
 6251TIP3    H140388   1.302   1.073   0.872 -0.3279  0.6552 -0.5100
 6251TIP3    H240389   1.308   0.992   0.745  2.6169  1.0778 -0.7132
 6252TIP3   OH240390   3.031   1.074   0.470 -0.4555 -0.0612 -0.5265
 6252TIP3    H140391   3.043   1.116   0.386 -0.0232  1.5465  0.3022
 6252TIP3    H240392   3.069   0.987   0.459  2.2339  1.0975 -1.1774
 6253TIP3   OH240393   5.073   1.464   6.466  0.0641  0.0442  0.3447
 6253TIP3    H140394   5.161   1.453   6.501 -0.5243 -0.8584  1.5827
 6253TIP3    H240395   5.014   1.431   6.534 -1.2287  0.2895 -0.5970
 6254TIP3   OH240396   1.891   5.006   6.258  0.3733 -1.0223 -0.3276
 6254TIP3    H140397   1.894   4.979   6.166 -2.1828  0.1696 -0.8654
 6254TIP3    H240398   1.833   4.943   6.300 -0.2894 -0.2615 -0.0736
 6255TIP3   OH240399   1.339   2.448   0.118  0.1436  0.4753  0.1481
 6255TIP3    H140400   1.308   2.491   0.198  2.3178 -0.2174  1.4377
 6255TIP3    H240401   1.402   2.383   0.148 -2.8335 -3.7050 -1.6491
 6256TIP3   OH240402   1.865   2.642   1.608 -0.2504  0.3819  0.0854
 6256TIP3    H140403   1.813   2.699   1.552  1.6733  2.3236  0.1548
 6256TIP3    H240404   1.952   2.641   1.568 -0.2023 -2.6174  0.0669
 6257TIP3   OH240405   1.800   5.695   8.117 -0.1582  0.2685 -0.8895
 6257TIP3    H140406   1.869   5.666   8.177 -0.8604 -1.5981 -0.9063
 6257TIP3    H240407   1.754   5.763   8.166  1.2378  1.0385 -0.6043
 6258TIP3   OH240408   4.613   1.368   1.366  0.0971 -0.1885 -0.0470
 6258TIP3    H140409   4.620   1.460   1.341 -0.0742  0.4572  2.0498
 6258TIP3    H240410   4.702   1.342   1.392  0.3566 -0.9567 -1.6027
 6259TIP3   OH240411   4.805   0.103   7.924  0.2060  0.0427  0.1121
 6259TIP3    H140412   4.761   0.127   7.843  1.2848  0.0297 -0.5025
 6259TIP3    H240413   4.890   0.147   7.920  0.1356  0.3503  1.4158
 6260TIP3   OH240414   1.472   5.355   6.757  0.1203 -0.0420  0.0896
 6260TIP3    H140415   1.511   5.426   6.808 -0.6809  0.7069 -0.3181
 6260TIP3    H240416   1.523   5.352   6.676 -0.1390  0.3736 -0.0871
 6261TIP3   OH240417   5.810   3.221   7.278 -0.3553  0.2634  0.1115
 6261TIP3    H140418   5.829   3.307   7.242  0.7282  0.0158  0.0436
 6261TIP3    H240419   5.740   3.236   7.342 -0.3429  1.1439 -0.0717
 6262TIP3   OH240420   3.679   4.165   0.781 -0.0128 -0.2433 -0.5478
 6262TIP3    H140421   3.663   4.073   0.762 -1.6031  0.0546 -0.7708
 6262TIP3    H240422   3.682   4.207   0.695  0.0497  0.0138 -0.4200
 6263TIP3   OH240423   5.409   4.345   6.147 -0.3441 -0.0296 -0.0175
 6263TIP3    H140424   5.340   4.381   6.091 -0.0826  0.4234 -0.0610
 6263TIP3    H240425   5.489   4.356   6.096  0.0416  1.3075  0.8263
 6264TIP3   OH240426   5.566   2.275   6.471 -0.4885  0.2143 -0.0366
 6264TIP3    H140427   5.606   2.194   6.504 -1.4607  0.1822  1.1599
 6264TIP3    H240428   5.472   2.259   6.479 -0.6973  2.0285  1.7063
 6265TIP3   OH240429   1.144   5.936   0.592  0.3361 -0.2278 -0.2826
 6265TIP3    H140430   1.111   6.001   0.655 -1.3857 -0.6200 -0.7226
 6265TIP3    H240431   1.121   5.972   0.506 -0.5906 -1.3721 -0.5345
 6266TIP3   OH240432   5.659   1.153   6.880  0.2115  1.0593 -0.0966
 6266TIP3    H140433   5.737   1.114   6.919 -0.6175 -0.9076 -0.2719
 6266TIP3    H240434   5.620   1.205   6.950  0.0530 -0.4629  1.0018
 6267TIP3   OH240435   0.606   1.054   7.371  0.5617  0.6286 -0.0730
 6267TIP3    H140436   0.622   1.055   7.277 -0.5830 -0.6398 -0.3180
 6267TIP3    H240437   0.541   1.123   7.384  1.1978  1.2432 -0.0977
 6268TIP3   OH240438   0.245   3.111   1.694  0.2816  0.2659  0.5011
 6268TIP3    H140439   0.203   3.153   1.769  1.3944  0.7909  0.8596
 6268TIP3    H240440   0.312   3.055   1.733 -0.9686 -1.6410  0.0138
 6269TIP3   OH240441   3.030   6.530   6.481  0.2936 -0.0733  0.5386
 6269TIP3    H140442   3.096   6.461   6.470  0.2496 -0.2819  1.5128
 6269TIP3    H240443   2.947   6.487   6.462  0.1015 -0.7263  2.5960
 6270TIP3   OH240444   6.985   6.941   0.593 -0.7700  0.1496  0.4023
 6270TIP3    H140445   6.977   6.946   0.498 -0.3417  0.2037  0.3676
 6270TIP3    H240446   7.057   7.000   0.614 -0.9278  0.2144  0.7723
 6271TIP3   OH240447   4.063   5.664   7.627  0.2224 -0.2033 -0.3310
 6271TIP3    H140448   4.075   5.758   7.620 -1.0995  0.0740  0.7544
 6271TIP3    H240449   4.095   5.642   7.714  1.8949 -1.0367 -1.0986
 6272TIP3   OH240450   4.541   7.010   7.241 -0.3220 -0.3093  0.4691
 6272TIP3    H140451   4.570   7.043   7.156 -1.5199  2.0883  0.9034
 6272TIP3    H240452   4.451   6.981   7.226 -0.3290 -0.4506  0.7778
 6273TIP3   OH240453   4.812   2.436   6.113  0.2135  0.1744  0.1031
 6273TIP3    H140454   4.812   2.362   6.053  2.2399  0.1985 -0.0241
 6273TIP3    H240455   4.875   2.411   6.181  1.3471  1.9540 -0.2258
 6274TIP3   OH240456   4.240   5.367   1.509 -0.0095  0.1759  0.0998
 6274TIP3    H140457   4.212   5.281   1.479 -0.7404  0.6677 -0.7093
 6274TIP3    H240458   4.266   5.413   1.428  1.8604  0.2181  0.6668
 6275TIP3   OH240459   5.752   5.226   0.599 -0.6206  0.1748 -0.2461
 6275TIP3    H140460   5.659   5.230   0.579 -0.3800  0.6367 -1.3550
 6275TIP3    H240461   5.756   5.228   0.695 -1.7003  1.2931 -0.1939
 6276TIP3   OH240462   6.889   0.585   0.432  0.2311 -0.4886  0.4444
 6276TIP3    H140463   6.931   0.645   0.370  0.5585 -0.8319  0.3329
 6276TIP3    H240464   6.806   0.563   0.391  0.4065 -0.6436  0.1706
 6277TIP3   OH240465   2.476   1.131   7.631  0.0575 -0.4099  0.1930
 6277TIP3    H140466   2.521   1.047   7.643 -1.6501 -1.4386 -0.2481
 6277TIP3    H240467   2.442   1.151   7.718  0.0398 -0.4285  0.1904
 6278TIP3   OH240468   4.958   0.326   7.102  0.1739 -0.0202  0.2356
 6278TIP3    H140469   4.961   0.390   7.031 -0.3149 -0.9493 -0.6523
 6278TIP3    H240470   4.875   0.280   7.090  0.2378 -0.4219  1.2104
 6279TIP3   OH240471   0.147   5.156   1.072 -0.1944 -0.5237  0.2248
 6279TIP3    H140472   0.187   5.144   1.159  0.2340 -0.5582  0.0248
 6279TIP3    H240473   0.216   5.194   1.019 -0.5224 -0.3123 -0.0519
 6280TIP3   OH240474   0.916   6.537   5.550  0.3613  0.1852 -0.5380
 6280TIP3    H140475   0.879   6.545   5.638  0.9264  1.3887 -0.3869
 6280TIP3    H240476   0.992   6.480   5.561  0.2361  0.0614 -0.3136
 6281TIP3   OH240477   1.085   1.797   6.725 -0.0351 -0.1123 -0.0213
 6281TIP3    H140478   1.047   1.849   6.654 -0.4748 -1.7832 -1.0647
 6281TIP3    H240479   1.011   1.776   6.782 -0.2209 -1.1172 -0.6083
 6282TIP3   OH240480   4.865   3.348   6.034  0.3044  0.1589 -0.2573
 6282TIP3    H140481   4.894   3.285   5.968 -0.2882  0.2135 -0.5861
 6282TIP3    H240482   4.914   3.428   6.014  0.5961 -0.0150 -0.2339
 6283TIP3   OH240483   3.541   6.439   7.770  0.5730  0.3444 -0.8316
 6283TIP3    H140484   3.553   6.357   7.722  0.2464  1.2567 -2.5620
 6283TIP3    H240485   3.466   6.481   7.727  0.7264  1.5476  0.0240
 6284TIP3   OH240486   4.774   4.131   0.399  0.1261  0.5878 -0.7918
 6284TIP3    H140487   4.682   4.155   0.408  0.2361  0.9549 -0.6322
 6284TIP3    H240488   4.778   4.082   0.317 -0.3549 -0.1807 -0.3652
 6285TIP3   OH240489   1.589   4.727   1.415  0.3134  0.3045  0.0962
 6285TIP3    H140490   1.613   4.805   1.366 -0.3103 -0.2832 -1.1825
 6285TIP3    H240491   1.613   4.747   1.506  1.4679  1.4188 -0.4281
 6286TIP3   OH240492   4.038   3.297   1.011 -0.2758  0.4504 -0.6880
 6286TIP3    H140493   4.053   3.383   0.971 -0.4168  0.9057  0.1957
 6286TIP3    H240494   4.025   3.317   1.104  1.7316 -0.7395 -0.1156
 6287TIP3   OH240495   1.177   6.410   0.072 -0.2694  0.8084  0.1794
 6287TIP3    H140496   1.164   6.399   0.166 -0.5367 -0.6639 -0.0137
 6287TIP3    H240497   1.269   6.387   0.057  0.0139  1.8503  0.1676
 6288TIP3   OH240498   1.870   6.031   7.155 -0.2799 -0.0081 -0.1937
 6288TIP3    H140499   1.882   5.961   7.220 -0.6955 -0.5026 -0.6472
 6288TIP3    H240500   1.846   5.986   7.075 -0.5265  0.6582 -0.5023
 6289TIP3   OH240501   4.805   0.744   6.950 -0.2194  0.2856 -0.0548
 6289TIP3    H140502   4.710   0.758   6.956  0.0504  3.1431 -0.8216
 6289TIP3    H240503   4.829   0.782   6.865  1.7021  0.2178  0.4094
 6290TIP3   OH240504   1.177   1.288   1.766  0.3128 -0.3173  0.3500
 6290TIP3    H140505   1.165   1.193   1.767 -1.3023 -0.1511 -0.5242
 6290TIP3    H240506   1.153   1.316   1.854  0.4957 -0.6852  0.5182
 6291TIP3   OH240507   3.971   7.102   7.773  0.4983  0.5309  0.6305
 6291TIP3    H140508   3.998   7.194   7.776  2.4667  0.0659 -0.4682
 6291TIP3    H240509   3.992   7.068   7.860 -0.3372  1.1322  1.0758
 6292TIP3   OH240510   0.700   4.320   6.846 -0.7715  0.8136  0.0673
 6292TIP3    H140511   0.668   4.231   6.836 -0.2432  0.4887  1.1545
 6292TIP3    H240512   0.781   4.323   6.795 -0.5182  0.5184  0.4493
 6293TIP3   OH240513   1.298   6.708   2.232 -0.1644  0.0413 -0.2308
 6293TIP3    H140514   1.382   6.690   2.275 -1.5215 -0.1350  2.5225
 6293TIP3    H240515   1.270   6.792   2.269 -1.5726 -0.2767 -0.5317
 6294TIP3   OH240516   2.668   6.635   6.659  0.2387  0.2071  0.4510
 6294TIP3    H140517   2.641   6.552   6.698 -1.2636 -0.7717 -2.3859
 6294TIP3    H240518   2.586   6.676   6.632  1.1499  0.3454 -2.4100
 6295TIP3   OH240519   1.609   4.948   8.093  0.0482 -0.3422 -0.7136
 6295TIP3    H140520   1.662   4.868   8.088  0.4670 -0.0361 -1.2719
 6295TIP3    H240521   1.553   4.935   8.170  2.3932  0.2131  1.1968
 6296TIP3   OH240522   2.524   6.122   6.374  0.3181  0.2741 -0.6800
 6296TIP3    H140523   2.510   6.173   6.454 -1.7050 -1.3530  0.0973
 6296TIP3    H240524   2.479   6.171   6.305  0.4858  0.7535 -0.4510
 6297TIP3   OH240525   2.268   6.306   0.442 -0.0126  0.5135  0.0125
 6297TIP3    H140526   2.282   6.349   0.357  0.4879 -1.6798 -1.0900
 6297TIP3    H240527   2.311   6.363   0.505 -2.1097  3.2917 -0.8335
 6298TIP3   OH240528   6.535   0.800   7.310  0.3822 -0.5420  0.2594
 6298TIP3    H140529   6.578   0.871   7.262 -0.1392 -0.9526 -0.8423
 6298TIP3    H240530   6.565   0.720   7.267 -0.7131 -0.8825  0.0974
 6299TIP3   OH240531   1.896   1.713   7.263 -0.1875 -0.2383  0.1226
 6299TIP3    H140532   1.911   1.802   7.231 -2.3314 -0.1275 -0.7255
 6299TIP3    H240533   1.839   1.723   7.339  0.6778 -0.8358  0.8793
 6300TIP3   OH240534   1.547   1.028   1.088 -0.2480  0.6180 -0.5830
 6300TIP3    H140535   1.561   1.100   1.150 -0.0226 -1.1576  1.5820
 6300TIP3    H240536   1.472   0.980   1.123  0.3625 -0.8893 -1.2406
 6301TIP3   OH240537   1.934   0.199   7.957 -0.2560 -0.0218 -0.2438
 6301TIP3    H140538   1.860   0.176   8.014  1.5260 -1.8327  1.5153
 6301TIP3    H240539   1.941   0.294   7.965 -0.0051 -0.1921  2.7923
 6302TIP3   OH240540   6.493   6.972   1.718  0.4249 -0.7654  0.5531
 6302TIP3    H140541   6.472   6.913   1.791  2.7659 -0.2496  1.7410
 6302TIP3    H240542   6.479   7.060   1.754 -0.9850 -0.5258 -0.5203
 6303TIP3   OH240543   2.160   0.841   1.608 -0.0614  0.2278 -0.8074
 6303TIP3    H140544   2.080   0.895   1.605 -1.8349 -2.0026  1.5103
 6303TIP3    H240545   2.130   0.757   1.644  3.5458 -0.3361  1.2952
 6304TIP3   OH240546   1.823   2.437   6.190 -0.4464 -0.5482 -0.3397
 6304TIP3    H140547   1.810   2.426   6.096  0.8680  1.1945 -0.7806
 6304TIP3    H240548   1.900   2.494   6.197 -0.3915 -0.8009  1.8050
 6305TIP3   OH240549   3.717   0.331   1.005 -0.4711 -1.1926 -0.2201
 6305TIP3    H140550   3.794   0.389   1.004 -0.6235 -0.9764  0.1488
 6305TIP3    H240551   3.753   0.244   1.026 -0.4014 -0.9585  0.6746
 6306TIP3   OH240552   3.674   4.427   0.598  0.3447 -0.1601 -0.5840
 6306TIP3    H140553   3.694   4.401   0.508 -0.3072  0.3341 -0.8732
 6306TIP3    H240554   3.733   4.500   0.616  0.7288 -0.4896 -0.4769
 6307TIP3   OH240555   0.057   5.102   1.891  0.0573 -0.3763  0.3812
 6307TIP3    H140556   0.150   5.104   1.913  0.4271 -1.8557 -0.8376
 6307TIP3    H240557   0.053   5.127   1.798 -0.7348 -0.5420  0.3556
 6308TIP3   OH240558   3.407   1.003   7.399  0.0842 -0.3133 -0.5877
 6308TIP3    H140559   3.344   1.072   7.376  0.0849 -0.1194 -0.0121
 6308TIP3    H240560   3.357   0.943   7.454  0.1035 -0.7405 -1.0326
 6309TIP3   OH240561   3.421   0.588   5.724 -0.5955  0.3323 -0.0029
 6309TIP3    H140562   3.465   0.625   5.801  0.7410 -0.0147 -0.5775
 6309TIP3    H240563   3.333   0.627   5.726 -0.0982  1.4731  0.8790
 6310TIP3   OH240564   4.844   3.268   1.550  0.1839 -0.3322  0.0654
 6310TIP3    H140565   4.901   3.212   1.601  0.3709 -0.8462 -0.6962
 6310TIP3    H240566   4.796   3.320   1.615  1.4572  0.0643  0.7148
 6311TIP3   OH240567   6.114   1.072   0.514 -0.2007 -0.4549 -0.8810
 6311TIP3    H140568   6.071   1.144   0.469 -0.7808 -0.7717 -0.8434
 6311TIP3    H240569   6.073   1.069   0.600  1.6494  0.8430  0.1117
 6312TIP3   OH240570   1.179   1.779   0.570 -0.8539  0.1070 -0.4323
 6312TIP3    H140571   1.146   1.818   0.651 -0.2277  0.6816 -0.4449
 6312TIP3    H240572   1.209   1.692   0.596  0.4549  0.7225  0.2227
 6313TIP3   OH240573   3.474   0.097   5.990  0.3809  0.1018  0.0927
 6313TIP3    H140574   3.393   0.139   6.018  0.2582 -0.0450 -0.0420
 6313TIP3    H240575   3.451   0.051   5.909 -0.2006 -2.4787  1.5956
 6314TIP3   OH240576   0.520   0.942   0.255 -0.4183  0.0464  0.0075
 6314TIP3    H140577   0.603   0.894   0.250 -0.3080  0.3474 -2.6098
 6314TIP3    H240578   0.504   0.953   0.349  2.7755  0.4288  0.6418
 6315TIP3   OH240579   0.597   0.229   6.378 -0.3190  0.4492 -0.5171
 6315TIP3    H140580   0.687   0.252   6.399 -0.1235 -0.7238  0.0362
 6315TIP3    H240581   0.602   0.189   6.291 -0.1066 -0.6159 -0.0401
 6316TIP3   OH240582   1.705   2.203   7.119  0.2077 -0.5662  0.4281
 6316TIP3    H140583   1.779   2.221   7.177  0.3884  2.0781 -0.4653
 6316TIP3    H240584   1.745   2.194   7.032 -0.4121 -0.1265  0.0879
 6317TIP3   OH240585   4.166   4.995   0.517  0.0075  0.2521 -0.1863
 6317TIP3    H140586   4.173   5.013   0.423 -0.2112 -1.8886 -0.6578
 6317TIP3    H240587   4.242   4.940   0.537 -0.6888 -0.4661  0.5665
 6318TIP3   OH240588   6.678   2.347   0.745  0.7857 -0.4331 -0.3472
 6318TIP3    H140589   6.656   2.311   0.831 -0.3203 -1.3854 -1.0026
 6318TIP3    H240590   6.767   2.380   0.756  0.6512 -0.4721  1.1762
 6319TIP3   OH240591   0.155   0.004   7.544 -0.1064  0.9767 -0.2475
 6319TIP3    H140592   0.095   0.025   7.473  0.7050  1.9707 -0.6543
 6319TIP3    H240593   0.200  -0.075   7.514 -0.0764  1.1437 -0.6501
 6320TIP3   OH240594   1.903   1.146   1.262  0.8780  0.0750 -0.1822
 6320TIP3    H140595   1.954   1.226   1.271 -0.0792  0.9449 -1.9450
 6320TIP3    H240596   1.941   1.102   1.185  1.4565 -1.2513  0.8171
 6321TIP3   OH240597   2.645   6.888   7.093  0.0535  0.2910 -0.2493
 6321TIP3    H140598   2.729   6.843   7.102 -0.0886  0.1930  0.6855
 6321TIP3    H240599   2.635   6.902   6.998  1.0058  0.0950 -0.3890
 6322TIP3   OH240600   2.769   5.668   6.732 -0.3798 -0.6019 -0.0703
 6322TIP3    H140601   2.863   5.682   6.722 -0.2491 -0.4988  1.1762
 6322TIP3    H240602   2.733   5.754   6.755 -0.8055 -0.6081 -0.6817
 6323TIP3   OH240603   4.271   0.005   0.643 -0.3988 -0.3150  0.1437
 6323TIP3    H140604   4.230   0.028   0.560  0.8240  0.9674 -0.1424
 6323TIP3    H240605   4.365   0.003   0.624 -0.1077 -0.1300  1.4685
 6324TIP3   OH240606   2.923   4.045   0.828 -0.8666  0.7326  0.0743
 6324TIP3    H140607   3.007   4.036   0.874  0.3388  0.5363 -2.0414
 6324TIP3    H240608   2.924   3.975   0.763 -3.4225 -0.2774  1.0000
 6325TIP3   OH240609   5.760   5.777   6.732  0.2333  0.8607 -0.4948
 6325TIP3    H140610   5.781   5.702   6.787 -0.6255  0.4846 -0.6597
 6325TIP3    H240611   5.700   5.830   6.785  1.8005  2.1158  0.1246
 6326TIP3   OH240612   4.807   6.338   1.850 -0.0702  0.0018 -0.3206
 6326TIP3    H140613   4.854   6.272   1.901  0.0469 -0.2877 -0.7932
 6326TIP3    H240614   4.807   6.303   1.761  1.1321  1.2436 -0.8311
 6327TIP3   OH240615   0.400   3.796   6.182  0.4962  0.8346  0.2742
 6327TIP3    H140616   0.370   3.790   6.091  0.6870 -0.2470  0.2673
 6327TIP3    H240617   0.327   3.837   6.228  0.2732  1.1093 -0.3053
 6328TIP3   OH240618   4.947   5.744   0.718  0.1621  0.1391  0.6203
 6328TIP3    H140619   4.875   5.705   0.668 -0.2012 -1.5953  2.3359
 6328TIP3    H240620   5.021   5.745   0.658 -1.3337  2.4330 -1.3533
 6329TIP3   OH240621   4.430   0.525   0.341 -0.1602  0.5086  0.0083
 6329TIP3    H140622   4.425   0.619   0.356  1.6258  0.7816 -0.8040
 6329TIP3    H240623   4.420   0.486   0.428  1.3505  1.5862  0.7022
 6330TIP3   OH240624   0.280   4.936   0.678  0.0393  0.8639  0.0556
 6330TIP3    H140625   0.283   4.840   0.687  2.3086  0.9952  1.3133
 6330TIP3    H240626   0.221   4.964   0.748 -2.3980  0.3529 -1.6312
 6331TIP3   OH240627   4.605   5.464   0.139 -0.6415  0.5426 -0.0049
 6331TIP3    H140628   4.534   5.480   0.076 -1.4838  0.8630  0.9889
 6331TIP3    H240629   4.666   5.536   0.124  0.1646 -0.4393 -1.7590
 6332TIP3   OH240630   1.901   0.186   0.293  0.1381 -0.3253 -0.3363
 6332TIP3    H140631   1.951   0.140   0.226  0.6480  0.3172 -0.3992
 6332TIP3    H240632   1.824   0.131   0.307 -0.2184 -0.2341 -1.7863
 6333TIP3   OH240633   2.297   6.737   1.532  0.3161  0.7148 -0.0561
 6333TIP3    H140634   2.360   6.777   1.473 -0.1176 -1.5549 -2.2472
 6333TIP3    H240635   2.240   6.685   1.475 -2.4212  1.2053  2.0236
 6334TIP3   OH240636   5.369   0.980   6.210 -0.6063 -0.6078 -0.1552
 6334TIP3    H140637   5.367   0.889   6.240 -1.5955 -0.6138 -0.2295
 6334TIP3    H240638   5.320   1.028   6.277  0.5903  0.0121  0.3109
 6335TIP3   OH240639   0.529   1.073   1.017 -0.0846  0.9443 -0.0996
 6335TIP3    H140640   0.446   1.038   1.048 -0.0854  0.7053 -0.3690
 6335TIP3    H240641   0.594   1.038   1.078 -0.1816  1.1406  0.1182
 6336TIP3   OH240642   2.534   6.816   0.083 -0.1735  0.2288  0.1323
 6336TIP3    H140643   2.577   6.772   0.157  0.5084 -0.1147 -0.4530
 6336TIP3    H240644   2.561   6.907   0.090 -0.4096  0.2728  0.5122
 6337TIP3   OH240645   4.757   5.657   0.534  0.2231 -0.2972  0.2710
 6337TIP3    H140646   4.772   5.574   0.488 -0.3215 -0.6846  0.7769
 6337TIP3    H240647   4.793   5.723   0.476 -0.0010 -0.8256 -0.4851
 6338TIP3   OH240648   3.466   0.598   1.299 -0.5186  0.4121  0.4356
 6338TIP3    H140649   3.512   0.550   1.368 -1.1108  0.1494  0.6490
 6338TIP3    H240650   3.476   0.543   1.221  0.1557  0.7124  0.2948
 6339TIP3   OH240651   1.554   0.606   1.773  0.1521 -0.0795 -0.3522
 6339TIP3    H140652   1.628   0.609   1.833  0.2980  1.3248 -0.5702
 6339TIP3    H240653   1.482   0.648   1.821 -0.3434 -0.9088 -0.3567
 6340TIP3   OH240654   1.703   3.663   0.196  0.2756  0.7454 -0.2751
 6340TIP3    H140655   1.787   3.709   0.200  1.0643 -0.7310  1.0649
 6340TIP3    H240656   1.651   3.704   0.266  0.8565 -0.1103  0.6878
 6341TIP3   OH240657   5.734   2.399   0.696 -0.5341 -0.3390 -0.0351
 6341TIP3    H140658   5.775   2.366   0.776 -0.3638 -0.4371 -0.1604
 6341TIP3    H240659   5.808   2.419   0.639 -0.6398  0.1122 -0.0196
 6342TIP3   OH240660   1.025   2.435   7.786 -0.0185  0.1908 -0.0515
 6342TIP3    H140661   1.040   2.341   7.793 -0.7982 -0.1297 -2.0286
 6342TIP3    H240662   1.112   2.472   7.767  0.4917  0.0495  1.8531
 6343TIP3   OH240663   2.968   5.064   1.225 -0.1903 -0.0367 -0.8084
 6343TIP3    H140664   3.013   4.993   1.179  0.7241  0.2793 -0.4048
 6343TIP3    H240665   2.939   5.123   1.155 -0.1980 -0.3588 -1.0820
 6344TIP3   OH240666   1.298   2.043   0.202  0.4108  0.3870 -0.6308
 6344TIP3    H140667   1.263   2.125   0.238  0.1866 -0.8683  2.2775
 6344TIP3    H240668   1.290   1.980   0.274  0.4435 -2.2584 -2.7937
 6345TIP3   OH240669   3.294   0.218   1.070 -0.1233 -0.3767  0.5440
 6345TIP3    H140670   3.351   0.144   1.053  1.3218  0.9838 -0.8719
 6345TIP3    H240671   3.252   0.236   0.985  0.5178  1.1635  0.5164
 6346TIP3   OH240672   6.788   5.772   0.507  0.9199 -0.7144  0.3614
 6346TIP3    H140673   6.794   5.812   0.421 -0.8368 -1.8505 -0.3503
 6346TIP3    H240674   6.858   5.707   0.509  0.3857 -1.3302 -0.5878
 6347TIP3   OH240675   6.157   4.202   5.816  0.3498  0.3004  0.2638
 6347TIP3    H140676   6.207   4.216   5.735 -0.9472 -1.6210 -0.9450
 6347TIP3    H240677   6.214   4.147   5.869  0.5707  0.2719  0.0006
 6348TIP3   OH240678   1.931   5.155   1.560  0.6180  0.4970 -0.2206
 6348TIP3    H140679   1.877   5.102   1.618 -1.4223 -0.0355 -2.4241
 6348TIP3    H240680   2.009   5.102   1.543 -0.6052 -1.1371 -1.0446
 6349TIP3   OH240681   4.894   5.075   0.124  0.0819  0.1812 -0.0040
 6349TIP3    H140682   4.988   5.059   0.130  0.5442  1.1507 -2.7857
 6349TIP3    H240683   4.857   4.992   0.094 -0.1582 -0.4959  2.0331
 6350TIP3   OH240684   6.168   5.669   7.741  0.1483 -0.2491  0.0529
 6350TIP3    H140685   6.135   5.659   7.830  1.0119  4.5067  1.2113
 6350TIP3    H240686   6.090   5.692   7.690  0.2410  2.3774  0.9188
 6351TIP3   OH240687   1.304   3.807   1.523  0.4610  0.2980 -0.5741
 6351TIP3    H140688   1.277   3.715   1.514 -0.0709  0.1857  1.6344
 6351TIP3    H240689   1.393   3.802   1.559 -0.1917  0.5805  1.1857
 6352TIP3   OH240690   7.098   2.725   6.910  0.3072  0.0338 -0.0322
 6352TIP3    H140691   7.155   2.658   6.946  0.1542  1.0267  2.2102
 6352TIP3    H240692   7.010   2.701   6.941  0.3091  1.4362  1.1937
 6353TIP3   OH240693   3.266   4.974   7.536  0.8565 -0.2506 -0.6333
 6353TIP3    H140694   3.355   5.007   7.548  1.1598  0.0545 -3.1531
 6353TIP3    H240695   3.276   4.879   7.528  1.0184 -0.1935 -1.1757
 6354TIP3   OH240696   3.591   6.125   1.815  0.4627  0.1650 -0.4411
 6354TIP3    H140697   3.573   6.046   1.763  0.9974  0.0024 -0.3877
 6354TIP3    H240698   3.523   6.187   1.788 -0.3649 -0.5261 -0.0118
 6355TIP3   OH240699   2.559   3.996   0.098  0.2898  0.4558 -0.2485
 6355TIP3    H140700   2.584   3.968   0.186 -0.5558 -0.9937 -0.4490
 6355TIP3    H240701   2.626   4.060   0.074  0.2277  1.3244  1.6627
 6356TIP3   OH240702   1.044   2.755   1.430 -0.7220 -0.8843  0.0627
 6356TIP3    H140703   1.095   2.770   1.509  0.5664  0.6129 -0.9723
 6356TIP3    H240704   0.973   2.698   1.457 -0.2365 -0.5343  2.2481
 6357TIP3   OH240705   5.241   3.110   1.227 -0.0847 -0.2758 -0.1078
 6357TIP3    H140706   5.201   3.101   1.313  0.2001 -2.1726 -0.1272
 6357TIP3    H240707   5.309   3.177   1.238 -2.5834  2.3980  0.1217
 6358TIP3   OH240708   0.654   2.336   5.837 -0.0828 -0.5424  0.2619
 6358TIP3    H140709   0.704   2.408   5.875  0.3478 -0.4426 -0.4741
 6358TIP3    H240710   0.650   2.270   5.906 -1.1547  0.4890  1.2252
 6359TIP3   OH240711   4.121   6.885   0.632  0.2708  0.2574 -0.4594
 6359TIP3    H140712   4.101   6.901   0.540  1.3739 -0.0549 -0.7674
 6359TIP3    H240713   4.178   6.957   0.658 -1.0279  1.0375  0.3525
 6360TIP3   OH240714   6.118   4.512   1.028  0.2245 -0.1878  0.3929
 6360TIP3    H140715   6.083   4.599   1.006 -0.3640 -0.4054  0.4408
 6360TIP3    H240716   6.047   4.470   1.077  0.5476 -0.6558  0.4631
 6361TIP3   OH240717   3.303   6.547   7.031 -0.2468 -0.2778 -0.1228
 6361TIP3    H140718   3.333   6.633   7.001  0.9700 -1.4533 -2.6201
 6361TIP3    H240719   3.384   6.499   7.046 -0.8831 -1.5960 -0.7852
 6362TIP3   OH240720   2.388   5.401   0.444  0.9612 -0.3917 -0.6775
 6362TIP3    H140721   2.472   5.428   0.405  0.7674  0.4069 -0.5457
 6362TIP3    H240722   2.351   5.340   0.381  0.7014  0.8096 -1.7230
 6363TIP3   OH240723   1.000   1.390   0.803  0.3977  0.1544 -0.0741
 6363TIP3    H140724   0.939   1.382   0.877  1.1280  1.3685  0.6964
 6363TIP3    H240725   0.985   1.478   0.769  0.7104 -0.0683 -0.8036
 6364TIP3   OH240726   4.473   5.528   5.697 -0.1396 -0.3491 -0.2185
 6364TIP3    H140727   4.545   5.571   5.651  0.2752  0.8381  1.4407
 6364TIP3    H240728   4.400   5.589   5.688 -0.0174 -0.0387  0.7506
 6365TIP3   OH240729   0.103   1.169   1.901  0.3419 -0.6187 -0.1926
 6365TIP3    H140730   0.135   1.124   1.979  1.0604  1.3660  0.7414
 6365TIP3    H240731   0.173   1.159   1.836  0.2445 -1.3061 -0.1927
 6366TIP3   OH240732   0.497   5.312   2.257  0.1175 -0.1674  0.3991
 6366TIP3    H140733   0.438   5.289   2.329 -0.8624  0.0253 -0.3170
 6366TIP3    H240734   0.551   5.234   2.245 -0.3048 -0.5231  0.7738
 6367TIP3   OH240735   6.266   6.407   2.066 -0.2993  0.1580 -0.1815
 6367TIP3    H140736   6.171   6.403   2.075 -0.4341 -0.9730 -1.6810
 6367TIP3    H240737   6.290   6.495   2.096 -1.6649  0.0638  1.2910
 6368TIP3   OH240738   6.812   5.847   6.922  0.4175  1.1057  0.0615
 6368TIP3    H140739   6.888   5.799   6.952 -0.6973 -0.8774 -0.0874
 6368TIP3    H240740   6.818   5.845   6.826  0.5845  1.6606  0.0562
 6369TIP3   OH240741   6.907   3.128   0.757 -0.1084  0.3076 -0.0084
 6369TIP3    H140742   6.943   3.092   0.838 -0.1207 -2.2402 -1.0560
 6369TIP3    H240743   6.814   3.138   0.775 -0.1099 -0.2340  0.3004
 6370TIP3   OH240744   5.820   4.635   1.822 -0.2492  0.1654 -0.7123
 6370TIP3    H140745   5.817   4.577   1.747 -0.6230 -0.1390 -0.4660
 6370TIP3    H240746   5.771   4.589   1.890 -1.5730  1.2839 -0.8754
 6371TIP3   OH240747   6.793   1.444   6.439  0.3481 -0.0116  0.0973
 6371TIP3    H140748   6.796   1.355   6.405  1.3153  0.2408 -0.5350
 6371TIP3    H240749   6.812   1.499   6.363 -3.0038  0.9581 -0.2077
 6372TIP3   OH240750   4.922   2.241   1.522  0.3837 -0.7153 -0.1519
 6372TIP3    H140751   4.989   2.195   1.572 -0.0388 -1.2512 -0.0712
 6372TIP3    H240752   4.940   2.219   1.431  1.0105  0.0702 -0.2260
 6373TIP3   OH240753   6.106   0.068   7.482  0.0938  0.2264  0.4665
 6373TIP3    H140754   6.172   0.025   7.429  0.3060 -0.2793  1.1276
 6373TIP3    H240755   6.087   0.150   7.436 -1.7845 -1.4203 -1.9044
 6374TIP3   OH240756   5.808   4.591   0.926 -0.5267 -0.4354  0.0188
 6374TIP3    H140757   5.850   4.565   1.008  0.7187 -0.2655 -0.5365
 6374TIP3    H240758   5.823   4.685   0.920 -3.1833  0.1246  1.0021
 6375TIP3   OH240759   6.890   4.701   1.044  0.0114 -0.0810 -0.0544
 6375TIP3    H140760   6.944   4.780   1.042 -0.4546  0.2458 -1.7061
 6375TIP3    H240761   6.908   4.661   1.128  1.2638  1.0978  0.2666
 6376TIP3   OH240762   1.513   4.064   2.265  0.0403 -0.4603  0.3146
 6376TIP3    H140763   1.498   3.976   2.302 -0.2332 -0.0417  1.2316
 6376TIP3    H240764   1.605   4.065   2.241 -0.2015 -1.3718 -0.7394
 6377TIP3   OH240765   3.150   6.033   6.272 -0.6108 -0.4729  0.0012
 6377TIP3    H140766   3.180   5.942   6.276  0.0660 -0.2843 -0.7577
 6377TIP3    H240767   3.072   6.030   6.216 -1.9162 -0.9101  1.7274
 6378TIP3   OH240768   5.126   3.181   7.833 -0.1027 -0.2554  0.5527
 6378TIP3    H140769   5.154   3.115   7.769 -1.1787 -0.4585  0.2679
 6378TIP3    H240770   5.096   3.130   7.908 -0.0071 -0.0593  0.7235
 6379TIP3   OH240771   0.342   2.076   6.171  0.3732  0.5619 -0.0481
 6379TIP3    H140772   0.322   2.156   6.123  1.6095  0.6856 -0.3649
 6379TIP3    H240773   0.336   2.101   6.263  1.0318  1.0980 -0.1453
 6380TIP3   OH240774   0.053   7.008   7.300  0.8796  0.2775  0.2628
 6380TIP3    H140775   0.099   6.954   7.364  0.0490 -0.6438  0.1237
 6380TIP3    H240776  -0.017   6.950   7.267  1.2420  0.7385 -1.4048
 6381TIP3   OH240777   4.840   2.769   6.415 -0.1585  0.0779  0.2529
 6381TIP3    H140778   4.840   2.848   6.362 -1.0830  0.9487  1.4869
 6381TIP3    H240779   4.908   2.714   6.376  1.5779  2.0840  0.2346
 6382TIP3   OH240780   7.126   5.479   0.811  0.1294 -0.6717 -0.1478
 6382TIP3    H140781   7.040   5.502   0.847  1.1939  1.4942  1.1912
 6382TIP3    H240782   7.137   5.387   0.833 -1.2215 -0.5980  0.9794
 6383TIP3   OH240783   1.153   0.801   5.871 -0.2187  0.2203 -0.0526
 6383TIP3    H140784   1.244   0.774   5.872 -0.1754  0.2473  2.3748
 6383TIP3    H240785   1.153   0.888   5.910 -1.2079  0.5320 -0.7087
 6384TIP3   OH240786   3.860   3.787   0.942  0.3266  0.3531  0.3547
 6384TIP3    H140787   3.878   3.811   1.033 -1.0453 -1.4863  1.1700
 6384TIP3    H240788   3.812   3.705   0.948  4.2557 -2.4929 -2.1728
 6385TIP3   OH240789   4.554   6.469   7.422 -0.6445 -0.0447  0.1628
 6385TIP3    H140790   4.581   6.507   7.506 -2.3663  0.5045  0.5161
 6385TIP3    H240791   4.573   6.536   7.357 -1.5311  0.5135  0.4668
 6386TIP3   OH240792   6.004   4.529   7.156  0.4414 -0.4775 -0.2058
 6386TIP3    H140793   5.948   4.460   7.120 -0.2741 -0.4885  0.9102
 6386TIP3    H240794   5.992   4.603   7.096 -1.2737 -0.2646  0.3542
 6387TIP3   OH240795   1.657   2.201   0.019 -0.5496  0.0962 -0.3886
 6387TIP3    H140796   1.658   2.286   0.062  0.9786 -0.4693  0.8037
 6387TIP3    H240797   1.747   2.189  -0.012 -0.6246 -1.2735 -0.1267
 6388TIP3   OH240798   6.492   2.539   7.997 -0.1830  0.6298  0.5387
 6388TIP3    H140799   6.466   2.622   7.958  0.0395  0.3911 -0.1283
 6388TIP3    H240800   6.571   2.560   8.048 -0.8840  1.0791  1.4525
 6389TIP3   OH240801   2.133   2.203   1.807 -0.0469 -0.0533 -0.3812
 6389TIP3    H140802   2.084   2.277   1.842  0.7814  1.8161 -2.8632
 6389TIP3    H240803   2.082   2.174   1.731  1.1107  0.0016 -1.2226
 6390TIP3   OH240804   6.529   0.065   6.887  0.9924  0.1586 -0.0445
 6390TIP3    H140805   6.553   0.114   6.966  1.3295  2.6401 -1.5560
 6390TIP3    H240806   6.613   0.039   6.849  0.9756  1.1551 -0.8132
 6391TIP3   OH240807   0.860   6.052   6.005 -0.0329  0.2568  0.0346
 6391TIP3    H140808   0.777   6.009   5.985 -0.0001 -0.2364  0.8958
 6391TIP3    H240809   0.879   6.106   5.928 -0.2515 -0.9931 -0.9259
 6392TIP3   OH240810   6.029   1.562   7.046 -0.4442 -0.3044 -0.3671
 6392TIP3    H140811   5.981   1.481   7.063 -0.0047 -0.2777  1.1609
 6392TIP3    H240812   5.961   1.627   7.030 -0.9314 -0.4194  1.0543
 6393TIP3   OH240813   0.500   4.594   0.256 -0.0338 -0.2407 -0.0549
 6393TIP3    H140814   0.425   4.653   0.249 -0.6525 -1.2058 -2.1868
 6393TIP3    H240815   0.475   4.516   0.207  2.8730 -0.0041 -2.1694
 6394TIP3   OH240816   2.526   6.462   0.892  0.0349  0.2086  0.0934
 6394TIP3    H140817   2.522   6.500   0.980  1.7593 -1.3567  0.9141
 6394TIP3    H240818   2.605   6.499   0.854 -0.1138  0.0308 -0.3926
 6395TIP3   OH240819   5.538   5.326   1.548  0.4204 -0.4206 -0.5080
 6395TIP3    H140820   5.450   5.296   1.571  0.2542  0.4055 -0.0064
 6395TIP3    H240821   5.583   5.335   1.632 -0.2217  2.7217 -0.3914
 6396TIP3   OH240822   0.328   1.274   2.248 -0.4073  0.1650  0.1757
 6396TIP3    H140823   0.285   1.192   2.226 -1.5993  1.0176 -0.8128
 6396TIP3    H240824   0.260   1.326   2.290  0.4430  0.5068  1.1661
 6397TIP3   OH240825   2.511   3.358   8.007  0.1260 -0.0638  0.5570
 6397TIP3    H140826   2.416   3.357   8.016 -0.0064  1.5305 -0.2372
 6397TIP3    H240827   2.530   3.444   7.969  2.0392  0.3526  2.2868
 6398TIP3   OH240828   2.033   2.105   1.104  0.8349 -0.4883 -0.3828
 6398TIP3    H140829   1.958   2.124   1.048 -0.0592 -0.8966  0.6533
 6398TIP3    H240830   2.028   2.011   1.121  1.3574 -0.4507  0.0153
 6399TIP3   OH240831   4.526   1.058   6.958  0.4652  0.0959 -0.3578
 6399TIP3    H140832   4.499   0.986   6.901  2.0880  0.6530 -1.9263
 6399TIP3    H240833   4.503   1.137   6.910  0.8387  0.5944  0.2621
 6400TIP3   OH240834   0.700   6.042   7.397  0.0573 -0.0647 -0.0335
 6400TIP3    H140835   0.709   5.962   7.448  1.1661  1.2827  1.9971
 6400TIP3    H240836   0.670   6.108   7.459 -0.2901  1.2602 -1.5195
 6401TIP3   OH240837   0.623   5.930   5.920  0.4672  0.3505  0.5027
 6401TIP3    H140838   0.622   5.853   5.864  0.0155  0.9903 -0.3805
 6401TIP3    H240839   0.533   5.940   5.950  0.8688 -0.5418  2.1559
 6402TIP3   OH240840   1.445   6.328   0.080 -0.4525 -0.1578  0.8254
 6402TIP3    H140841   1.496   6.259   0.038 -0.3317 -0.1048  0.8843
 6402TIP3    H240842   1.491   6.409   0.057 -0.3155 -0.1383  1.1550
 6403TIP3   OH240843   6.551   2.787   6.884  0.0279 -0.3297 -0.0335
 6403TIP3    H140844   6.518   2.849   6.820  0.4342  0.2383  0.3021
 6403TIP3    H240845   6.538   2.830   6.969  1.5950 -0.0812  0.1205
 6404TIP3   OH240846   0.625   0.314   6.976 -0.1597 -0.1137  0.4596
 6404TIP3    H140847   0.608   0.401   6.938 -3.8368 -0.2457  1.4236
 6404TIP3    H240848   0.698   0.280   6.925 -0.0825  2.6256 -1.4987
 6405TIP3   OH240849   3.157   5.147   7.342  0.3540 -0.1850  0.7808
 6405TIP3    H140850   3.195   5.103   7.418  1.4646  0.3031  0.5370
 6405TIP3    H240851   3.212   5.224   7.330 -0.1266  0.0128 -0.2076
 6406TIP3   OH240852   5.372   2.112   7.454 -0.4064  0.5401 -0.0218
 6406TIP3    H140853   5.435   2.093   7.385 -0.0539  0.3886  0.3402
 6406TIP3    H240854   5.420   2.098   7.535 -0.8723  0.5370  0.2581
 6407TIP3   OH240855   6.983   0.964   0.854  0.9623  1.0283 -0.2709
 6407TIP3    H140856   6.937   0.881   0.862 -1.3463  2.1270 -1.0783
 6407TIP3    H240857   7.009   0.969   0.762  0.0821  1.6696 -0.4935
 6408TIP3   OH240858   6.274   5.079   6.691  0.3103  0.3736 -0.1696
 6408TIP3    H140859   6.302   5.015   6.626  1.1471  1.1492 -0.6052
 6408TIP3    H240860   6.270   5.030   6.773  0.0927 -0.4216 -0.6462
 6409TIP3   OH240861   1.375   1.379   0.442  0.7277 -0.0288  0.5624
 6409TIP3    H140862   1.446   1.399   0.502  0.4423 -0.3296  1.0092
 6409TIP3    H240863   1.415   1.381   0.356  1.4014 -0.7503  0.8498
 6410TIP3   OH240864   2.922   6.782   1.025 -0.5773 -0.3239 -0.2985
 6410TIP3    H140865   2.903   6.696   1.062 -0.3565 -0.0366  0.4945
 6410TIP3    H240866   3.014   6.777   0.997 -0.8046 -0.6095 -1.0299
 6411TIP3   OH240867   3.682   2.730   7.582  0.5275  0.5620 -0.3879
 6411TIP3    H140868   3.614   2.767   7.525 -0.0242  1.7240  0.9787
 6411TIP3    H240869   3.729   2.806   7.616  0.4180 -0.0578  1.2295
 6412TIP3   OH240870   5.965   2.936   0.591  0.4089  1.0841  0.1885
 6412TIP3    H140871   5.998   2.886   0.516  1.5084  1.5538  0.3502
 6412TIP3    H240872   5.965   2.873   0.663 -0.7677  0.5943 -0.2002
 6413TIP3   OH240873   1.370   2.347   0.749 -0.7328  0.0056  0.2990
 6413TIP3    H140874   1.339   2.339   0.658  0.1761 -1.0853  0.0524
 6413TIP3    H240875   1.297   2.316   0.802  0.1046 -3.5229 -0.3188
 6414TIP3   OH240876   5.584   4.286   7.773  0.3525  0.3840 -0.2793
 6414TIP3    H140877   5.532   4.236   7.836 -0.1856  0.3805 -0.7074
 6414TIP3    H240878   5.654   4.227   7.747 -0.4947 -0.3109 -1.0597
 6415TIP3   OH240879   5.952   3.327   6.743 -0.1367  0.4756 -0.1232
 6415TIP3    H140880   5.870   3.377   6.750 -1.2276 -1.3730  1.4245
 6415TIP3    H240881   6.009   3.366   6.809 -0.4757  0.5552  0.1293
 6416TIP3   OH240882   1.536   5.509   5.559  0.3391 -0.6255 -0.2315
 6416TIP3    H140883   1.461   5.569   5.556  0.3261 -0.6823 -1.4036
 6416TIP3    H240884   1.520   5.455   5.636  0.1833  0.6564  0.6674
 6417TIP3   OH240885   1.414   3.709   2.574 -0.3018  0.4822 -0.1746
 6417TIP3    H140886   1.344   3.682   2.516 -0.9274 -0.8782  1.1379
 6417TIP3    H240887   1.488   3.652   2.551 -0.7431 -0.4962  0.7128
 6418TIP3   OH240888   1.330   0.076   6.447  0.0735 -0.0699  0.2911
 6418TIP3    H140889   1.256   0.068   6.387 -1.2174  0.3172  1.7583
 6418TIP3    H240890   1.408   0.075   6.391 -1.0147 -0.9164 -1.2549
 6419TIP3   OH240891   1.926   2.805   0.504 -0.0713 -0.3225 -0.6007
 6419TIP3    H140892   1.897   2.840   0.420  0.8466 -0.1744 -0.8712
 6419TIP3    H240893   1.927   2.880   0.563  0.1745 -0.2468 -0.7025
 6420TIP3   OH240894   1.368   1.163   8.131  0.6002 -0.4196  0.0995
 6420TIP3    H140895   1.453   1.156   8.173  0.5913  0.9638  0.3843
 6420TIP3    H240896   1.367   1.251   8.093  0.3816 -1.4043 -2.3329
 6421TIP3   OH240897   3.515   0.427   7.956  0.6261  0.2710  0.5772
 6421TIP3    H140898   3.545   0.518   7.959  1.6402 -0.0217  0.0081
 6421TIP3    H240899   3.593   0.377   7.933 -0.4067 -0.4740 -1.6528
 6422TIP3   OH240900   5.611   7.002   6.074  0.4023 -0.3025 -0.0118
 6422TIP3    H140901   5.624   7.083   6.123 -1.2868  0.2507 -0.4070
 6422TIP3    H240902   5.520   6.976   6.094  0.9174 -2.1529  0.1737
 6423TIP3   OH240903   1.339   1.264   0.856 -0.1043  0.0196 -0.2222
 6423TIP3    H140904   1.271   1.277   0.922  1.0694 -0.7570  1.1989
 6423TIP3    H240905   1.396   1.341   0.864  1.2897 -1.0806  1.3129
 6424TIP3   OH240906   3.970   1.171   0.260  0.1082 -0.0476  0.2277
 6424TIP3    H140907   3.941   1.203   0.174 -0.3142 -0.8935  0.0447
 6424TIP3    H240908   3.914   1.095   0.276  1.3155 -0.8910  0.5021
 6425TIP3   OH240909   1.456   2.837   7.575 -0.1935  0.4134  0.5159
 6425TIP3    H140910   1.376   2.849   7.626 -0.5657 -2.3826  0.7669
 6425TIP3    H240911   1.437   2.761   7.519  0.9020  2.1453 -2.4161
 6426TIP3   OH240912   0.834   6.270   1.912  0.7233  0.1417  0.0229
 6426TIP3    H140913   0.807   6.315   1.991 -1.7950 -1.0753 -0.0424
 6426TIP3    H240914   0.876   6.337   1.859 -1.3293  2.0391  0.6426
 6427TIP3   OH240915   5.864   5.080   6.559 -0.0454  0.0651 -0.1065
 6427TIP3    H140916   5.865   5.028   6.479 -1.4065 -0.6397  0.3027
 6427TIP3    H240917   5.808   5.155   6.539  2.2613  1.7026 -0.8394
 6428TIP3   OH240918   1.683   1.745   7.471 -0.1919 -0.1109 -0.1155
 6428TIP3    H140919   1.678   1.808   7.399 -0.2913 -0.9107 -0.8331
 6428TIP3    H240920   1.722   1.793   7.543 -0.3174  0.7824 -0.6290
 6429TIP3   OH240921   6.240   0.537   0.547  0.0369 -0.0205 -0.2497
 6429TIP3    H140922   6.165   0.590   0.518 -1.2451 -1.7268 -0.2396
 6429TIP3    H240923   6.235   0.539   0.642  0.2727  0.2116 -0.2412
 6430TIP3   OH240924   2.153   1.856   0.625  0.3997 -0.1194  0.2684
 6430TIP3    H140925   2.088   1.870   0.557 -1.0221 -1.4999  1.2528
 6430TIP3    H240926   2.237   1.858   0.580 -0.5706 -3.6758 -2.1284
 6431TIP3   OH240927   2.078   6.647   1.124  0.2378 -0.3461 -0.1684
 6431TIP3    H140928   2.068   6.718   1.187  1.6327 -1.8266  1.8561
 6431TIP3    H240929   1.995   6.600   1.127  0.8620 -1.4323  2.0075
 6432TIP3   OH240930   6.696   1.928   2.164 -0.3754 -1.2923 -0.9447
 6432TIP3    H140931   6.774   1.889   2.203 -0.9833 -2.3122 -0.6880
 6432TIP3    H240932   6.640   1.853   2.143 -2.2783 -0.5605  1.0083
 6433TIP3   OH240933   1.753   1.856   0.967  0.0370 -0.9149  0.2655
 6433TIP3    H140934   1.805   1.798   0.912 -1.5623 -0.7691 -1.5327
 6433TIP3    H240935   1.719   1.799   1.036  2.9723 -0.8770  1.8857
 6434TIP3   OH240936   2.037   6.213   1.653 -0.4960  0.0791  0.2621
 6434TIP3    H140937   1.996   6.149   1.711  0.2113  0.3403  1.0705
 6434TIP3    H240938   2.131   6.204   1.669 -0.3242  0.5170 -0.4639
 6435TIP3   OH240939   5.779   5.713   0.907  0.0318  0.0899 -0.4950
 6435TIP3    H140940   5.858   5.762   0.929  0.2760 -0.6918  0.4692
 6435TIP3    H240941   5.751   5.747   0.822  0.0350  2.0699  0.2493
 6436TIP3   OH240942   2.694   1.558   0.183  0.3583 -0.1156  0.4376
 6436TIP3    H140943   2.700   1.569   0.278 -1.2811  0.9663  0.4485
 6436TIP3    H240944   2.605   1.583   0.161  1.0502  0.8513 -1.5533
 6437TIP3   OH240945   2.601   2.299   0.839  0.6012  0.3741  0.0885
 6437TIP3    H140946   2.575   2.267   0.925 -1.2707 -0.5082 -0.7566
 6437TIP3    H240947   2.523   2.342   0.804  1.1770  0.3415 -1.3319
 6438TIP3   OH240948   4.281   0.244   7.625  0.2728 -0.3588 -0.1620
 6438TIP3    H140949   4.241   0.207   7.546 -2.3305 -0.9874  1.3194
 6438TIP3    H240950   4.313   0.168   7.674 -1.2513 -0.3410  0.9290
 6439TIP3   OH240951   5.248   4.567   7.476 -0.0668 -0.5249  0.5062
 6439TIP3    H140952   5.256   4.568   7.381  1.4635  0.4557  0.6213
 6439TIP3    H240953   5.183   4.498   7.494 -1.4030  0.1970 -1.2911
 6440TIP3   OH240954   5.681   6.120   6.072 -0.4140 -0.0855 -0.0434
 6440TIP3    H140955   5.628   6.135   5.994 -2.1089 -0.1744  1.0376
 6440TIP3    H240956   5.686   6.206   6.114  0.9294  0.0735 -0.4786
 6441TIP3   OH240957   1.202   3.056   7.898  0.0884  0.5152  0.6000
 6441TIP3    H140958   1.209   3.038   7.991 -0.6075  2.6369  1.1188
 6441TIP3    H240959   1.158   3.140   7.893  0.4905  0.6599 -1.6401
 6442TIP3   OH240960   4.524   7.105   6.685 -0.2026 -0.3240 -0.3593
 6442TIP3    H140961   4.601   7.157   6.706 -0.1017 -0.6269  0.0449
 6442TIP3    H240962   4.510   7.119   6.592  0.4346 -0.3942 -0.4684
 6443TIP3   OH240963   6.990   3.871   7.960  0.0789  0.4974  0.1143
 6443TIP3    H140964   7.017   3.801   8.019  0.1593 -0.4865 -1.0434
 6443TIP3    H240965   6.897   3.882   7.977  0.3396  1.1001  1.2774
 6444TIP3   OH240966   0.351   4.149   6.704  0.5866  0.0209  0.0447
 6444TIP3    H140967   0.442   4.146   6.675  0.3324 -2.6341 -0.7776
 6444TIP3    H240968   0.352   4.110   6.791  0.2559  0.2187  0.1373
 6445TIP3   OH240969   4.772   4.585   0.201 -0.0639 -0.1833  0.1564
 6445TIP3    H140970   4.801   4.592   0.292 -0.7464 -0.8201  0.4303
 6445TIP3    H240971   4.679   4.562   0.207 -0.3002  0.4767 -0.7061
 6446TIP3   OH240972   3.345   2.959   7.381 -0.3716 -0.2801 -0.3727
 6446TIP3    H140973   3.364   2.962   7.474  2.4509  1.2433 -0.8721
 6446TIP3    H240974   3.291   3.035   7.364 -0.6468 -0.3988 -0.0325
 6447TIP3   OH240975   6.691   0.783   7.034 -0.5868 -0.6512  0.6264
 6447TIP3    H140976   6.733   0.718   6.977  0.1690  1.2740 -1.1448
 6447TIP3    H240977   6.607   0.800   6.992 -1.8569 -2.1477  2.4064
 6448TIP3   OH240978   6.720   7.038   0.541 -0.4536  0.3002  0.1809
 6448TIP3    H140979   6.745   7.060   0.630 -0.3289  1.6001 -0.1667
 6448TIP3    H240980   6.789   6.979   0.510  0.4302  1.2302  0.3538
 6449TIP3   OH240981   1.896   5.700   5.443  0.0410  0.1256 -0.0429
 6449TIP3    H140982   1.858   5.784   5.417  0.3615  0.5971  0.9240
 6449TIP3    H240983   1.991   5.717   5.444  0.0402  0.1752  1.4756
 6450TIP3   OH240984   6.432   1.614   0.984 -0.3417 -0.0610 -0.2988
 6450TIP3    H140985   6.512   1.666   0.977 -0.1883  0.1621  2.2151
 6450TIP3    H240986   6.460   1.525   0.962  0.8390 -0.1488  1.4003
 6451TIP3   OH240987   1.769   4.456   0.430 -0.9670 -0.0343  0.2569
 6451TIP3    H140988   1.790   4.417   0.346  0.6198  1.6642 -0.1942
 6451TIP3    H240989   1.792   4.549   0.420 -1.3279  0.3346  2.3575
 6452TIP3   OH240990   6.426   3.446   0.849  0.5016 -0.0503 -0.1907
 6452TIP3    H140991   6.424   3.401   0.764 -0.8716  1.2639 -0.9049
 6452TIP3    H240992   6.343   3.422   0.891  0.4473  0.5844  0.0783
 6453TIP3   OH240993   2.553   3.330   2.101 -0.5589  0.1554 -0.4238
 6453TIP3    H140994   2.602   3.392   2.047 -0.6622  0.2973 -0.3543
 6453TIP3    H240995   2.586   3.345   2.190  1.0612 -1.4446 -0.7034
 6454TIP3   OH240996   2.645   3.710   6.987  0.0754 -0.2564  0.1525
 6454TIP3    H140997   2.725   3.710   7.039  0.2760 -1.0262 -0.1485
 6454TIP3    H240998   2.676   3.709   6.896 -0.2549 -1.9690  0.0309
 6455TIP3   OH240999   1.530   2.756   1.054  0.2849  0.5548 -0.0910
 6455TIP3    H141000   1.545   2.713   0.970 -0.9943  1.3229 -0.7578
 6455TIP3    H241001   1.490   2.840   1.031 -1.4321  0.1944  1.2949
 6456TIP3   OH241002   4.973   4.454   1.783  0.6268 -0.1177  0.6002
 6456TIP3    H141003   4.949   4.490   1.698  1.2292 -1.9063 -0.3653
 6456TIP3    H241004   5.065   4.430   1.774  0.1897 -2.1338  1.0934
 6457TIP3   OH241005   2.842   4.526   7.784  0.3230  0.2977  0.2514
 6457TIP3    H141006   2.785   4.594   7.749 -0.0023 -0.2085 -0.2166
 6457TIP3    H241007   2.929   4.546   7.749  0.2510  0.5291  0.2079
 6458TIP3   OH241008   4.860   0.328   1.390  0.0374  0.0411  0.5209
 6458TIP3    H141009   4.835   0.263   1.455  0.3977  0.1019  0.7199
 6458TIP3    H241010   4.829   0.291   1.307 -4.2010  1.8170  1.0772
 6459TIP3   OH241011   5.445   1.094   1.375 -0.4245 -0.2832 -0.0055
 6459TIP3    H141012   5.367   1.069   1.424 -0.7173  1.5237  0.5371
 6459TIP3    H241013   5.415   1.097   1.284 -0.4184 -1.6212 -0.0719
 6460TIP3   OH241014   2.009   5.558   0.547  0.0038  0.1652 -0.3385
 6460TIP3    H141015   1.996   5.529   0.457 -1.3812  1.7596 -0.6862
 6460TIP3    H241016   2.091   5.607   0.545  0.8123 -1.1268 -0.3555
 6461TIP3   OH241017   5.058   3.294   7.596 -0.4832  0.1389  0.6966
 6461TIP3    H141018   5.054   3.236   7.672  1.9697 -0.5474  0.3973
 6461TIP3    H241019   5.140   3.343   7.608 -0.7676  1.0303 -0.7893
 6462TIP3   OH241020   4.177   1.975   0.406 -0.0239  0.3271 -0.6855
 6462TIP3    H141021   4.203   1.991   0.316 -0.3787  0.2332 -0.8084
 6462TIP3    H241022   4.184   2.061   0.449 -0.2167  0.4484 -0.8967
 6463TIP3   OH241023   5.831   5.046   0.921 -0.3758 -0.0591  0.4151
 6463TIP3    H141024   5.745   5.020   0.954 -0.4243 -0.5652 -0.1070
 6463TIP3    H241025   5.855   4.979   0.858 -0.1706  0.7762 -0.4178
 6464TIP3   OH241026   1.372   5.357   0.935  0.7365 -0.4033 -0.5279
 6464TIP3    H141027   1.388   5.435   0.988  0.6959 -0.2207 -0.7810
 6464TIP3    H241028   1.284   5.371   0.899  0.6937 -0.6068 -0.5028
 6465TIP3   OH241029   0.507   2.191   6.901 -0.9026 -0.5317 -0.2526
 6465TIP3    H141030   0.556   2.109   6.892  1.3667  0.6380  0.5208
 6465TIP3    H241031   0.518   2.235   6.817  0.8703  0.4297  0.4177
 6466TIP3   OH241032   3.637   4.434   2.116  0.1567  0.4392 -0.1809
 6466TIP3    H141033   3.616   4.353   2.069 -0.9223  0.7516 -0.2677
 6466TIP3    H241034   3.726   4.420   2.149 -0.6241 -1.5245  1.3154
 6467TIP3   OH241035   3.345   1.489   0.466  0.1130  0.3065 -1.0796
 6467TIP3    H141036   3.382   1.536   0.541 -1.4455 -2.1392  1.4393
 6467TIP3    H241037   3.291   1.554   0.421 -0.3420  1.4906  1.0120
 6468TIP3   OH241038   0.151   2.225   8.026 -0.2577 -0.3965 -0.8276
 6468TIP3    H141039   0.212   2.240   7.954 -1.1623  0.1554 -1.5160
 6468TIP3    H241040   0.185   2.149   8.072 -0.2183 -1.4271 -2.4777
 6469TIP3   OH241041   1.617   1.527   7.048  0.4581  0.3198 -0.2136
 6469TIP3    H141042   1.654   1.485   7.125  0.0390  0.9709  0.3578
 6469TIP3    H241043   1.522   1.527   7.063  0.4787  2.0885  0.1592
 6470TIP3   OH241044   6.683   6.158   1.401  0.2093 -0.0116  0.0201
 6470TIP3    H141045   6.614   6.215   1.433 -1.4876 -0.5079 -2.4722
 6470TIP3    H241046   6.643   6.071   1.397  1.5888 -0.7019  0.2523
 6471TIP3   OH241047   3.688   6.164   7.049  0.2995  0.2572 -0.6756
 6471TIP3    H141048   3.750   6.221   7.095  0.7385 -0.7980  0.0916
 6471TIP3    H241049   3.743   6.099   7.006 -0.2457 -1.4249  0.9898
 6472TIP3   OH241050   5.371   4.248   6.595  0.1979  0.5744 -0.3643
 6472TIP3    H141051   5.356   4.326   6.541 -0.1704  1.5714  1.1285
 6472TIP3    H241052   5.344   4.274   6.683 -0.2037 -1.3418  0.1249
 6473TIP3   OH241053   0.687   0.179   0.978  0.6418  0.0173 -0.1828
 6473TIP3    H141054   0.658   0.176   0.887 -0.4422  0.0965  0.1519
 6473TIP3    H241055   0.695   0.273   0.997  2.1052 -0.0046 -0.5622
 6474TIP3   OH241056   3.226   0.616   7.774  0.0656 -0.4766  0.0373
 6474TIP3    H141057   3.171   0.689   7.804  2.2394  0.5799  1.7231
 6474TIP3    H241058   3.267   0.583   7.854  3.1257 -0.1143 -1.2573
 6475TIP3   OH241059   2.422   7.071   1.618 -0.0065 -0.3137  0.4168
 6475TIP3    H141060   2.395   7.059   1.709  0.2486 -1.0424  0.4037
 6475TIP3    H241061   2.340   7.077   1.570 -0.1647  1.1245  0.8022
 6476TIP3   OH241062   5.790   4.327   1.766 -0.8148  0.6467  0.3735
 6476TIP3    H141063   5.793   4.311   1.861 -1.1468 -2.2716 -0.0113
 6476TIP3    H241064   5.697   4.328   1.746 -0.7378  0.9330  0.0398
 6477TIP3   OH241065   2.612   5.917   7.597 -0.2500  0.3561 -0.4546
 6477TIP3    H141066   2.606   5.835   7.547  1.5695 -2.3438  3.2690
 6477TIP3    H241067   2.522   5.934   7.625 -0.4761 -1.4199  0.0755
 6478TIP3   OH241068   1.717   5.308   0.279 -0.4003 -0.2412  0.3721
 6478TIP3    H141069   1.672   5.379   0.326  0.2321  0.1688  0.3662
 6478TIP3    H241070   1.677   5.308   0.192  0.1062  0.6139  0.1241
 6479TIP3   OH241071   1.786   4.250   6.827 -0.1891 -0.3734 -0.1886
 6479TIP3    H141072   1.763   4.217   6.740 -0.0235  0.6205 -0.6252
 6479TIP3    H241073   1.742   4.191   6.887  1.9245 -2.8211 -0.8509
 6480TIP3   OH241074   1.688   4.952   7.825  0.1646  0.1118 -0.6553
 6480TIP3    H141075   1.659   4.959   7.916  0.9512  2.4756 -0.5268
 6480TIP3    H241076   1.762   4.892   7.828  0.5551  0.6234  0.3790
 6481TIP3   OH241077   2.845   1.887   0.193  0.2322 -0.1851 -0.1284
 6481TIP3    H141078   2.861   1.838   0.112 -0.4661 -1.5083  0.5180
 6481TIP3    H241079   2.933   1.902   0.229  0.6401  1.3678 -1.6426
 6482TIP3   OH241080   4.594   6.066   0.455  0.3343  0.3048  0.1651
 6482TIP3    H141081   4.671   6.054   0.399 -0.5677 -1.8195 -0.7278
 6482TIP3    H241082   4.544   5.985   0.445 -1.9808  1.5674  0.7953
 6483TIP3   OH241083   7.036   2.814   1.139  0.6327 -0.2230 -0.7162
 6483TIP3    H141084   6.968   2.798   1.205  1.6959 -0.1083  0.4238
 6483TIP3    H241085   7.118   2.817   1.188  1.6193 -1.4302 -2.1855
 6484TIP3   OH241086   1.942   3.563   7.466  0.1140 -0.5374 -0.6177
 6484TIP3    H141087   1.858   3.572   7.421 -0.0880  1.5966  0.1136
 6484TIP3    H241088   1.919   3.540   7.556  0.1430  2.0922  0.1292
 6485TIP3   OH241089   2.695   0.791   0.438 -0.7488 -0.1299  0.1739
 6485TIP3    H141090   2.728   0.785   0.528 -0.0472  1.5176  0.0587
 6485TIP3    H241091   2.603   0.767   0.445 -0.9281  0.8142  1.5094
 6486TIP3   OH241092   5.276   3.494   0.014 -0.3242 -0.3136 -0.2070
 6486TIP3    H141093   5.306   3.532  -0.069 -0.8425 -1.0959 -0.7675
 6486TIP3    H241094   5.353   3.496   0.070  0.0691  0.1288 -0.7463
 6487TIP3   OH241095   0.690   3.373   6.553 -0.1057  0.1461 -0.1886
 6487TIP3    H141096   0.780   3.340   6.544  0.1301  0.9854 -1.0079
 6487TIP3    H241097   0.639   3.318   6.493 -0.5080 -1.5583  1.6042
 6488TIP3   OH241098   1.097   1.030   6.279  0.5927 -0.3517  0.6486
 6488TIP3    H141099   1.102   1.057   6.371  1.5325 -0.6412  0.6864
 6488TIP3    H241100   1.006   1.047   6.255  1.0470  2.8416  0.6689
 6489TIP3   OH241101   3.023   0.585   1.523  0.3864  0.0329  0.2157
 6489TIP3    H141102   3.106   0.624   1.497  0.5900 -0.2680  0.4113
 6489TIP3    H241103   3.021   0.595   1.618 -0.2846  0.9957  0.1156
 6490TIP3   OH241104   4.179   3.286   0.544  0.0523  0.5233  0.3776
 6490TIP3    H141105   4.168   3.212   0.604  0.4492  0.8334  0.8325
 6490TIP3    H241106   4.235   3.347   0.591  0.6392  0.6254 -0.4443
 6491TIP3   OH241107   3.055   7.047   0.297  0.3627  0.4634 -0.0997
 6491TIP3    H141108   3.065   7.078   0.207  0.5264  1.8028  0.3570
 6491TIP3    H241109   2.990   7.105   0.336 -1.9673 -1.9287 -0.1410
 6492TIP3   OH241110   0.313   4.671   7.963 -0.8816  1.0075  0.0498
 6492TIP3    H141111   0.272   4.585   7.972 -0.8302  0.9159 -0.5318
 6492TIP3    H241112   0.240   4.732   7.960 -0.9074  1.0274  0.8298
 6493TIP3   OH241113   6.811   7.081   0.043 -0.0639  0.5333 -0.0100
 6493TIP3    H141114   6.761   6.999   0.045 -0.4358  0.7609  0.8763
 6493TIP3    H241115   6.902   7.054   0.056 -0.4344  0.3789  3.1978
 6494TIP3   OH241116   3.175   5.834   8.104 -0.0934 -0.1831 -0.6184
 6494TIP3    H141117   3.171   5.767   8.173  0.0528  0.1159 -0.3148
 6494TIP3    H241118   3.091   5.827   8.060  0.1518 -0.9689 -0.9734
 6495TIP3   OH241119   3.151   0.396   7.957 -0.1875 -0.1143  0.3057
 6495TIP3    H141120   3.089   0.372   7.889 -0.6857  1.6876  0.0595
 6495TIP3    H241121   3.220   0.330   7.951 -2.1465 -2.3354  0.7670
 6496TIP3   OH241122   0.722   2.048   7.152 -0.2376 -0.0948  0.2000
 6496TIP3    H141123   0.688   2.021   7.067  1.0139  2.2566 -1.1615
 6496TIP3    H241124   0.646   2.081   7.199 -1.1725 -2.5949  0.5946
 6497TIP3   OH241125   6.799   1.520   0.643  0.1658  0.4947 -0.5434
 6497TIP3    H141126   6.763   1.520   0.731  0.8894 -0.3989 -0.2380
 6497TIP3    H241127   6.746   1.585   0.595 -0.7755  0.3709  0.3136
 6498TIP3   OH241128   0.262   0.253   6.231 -0.2753  0.1011 -0.0146
 6498TIP3    H141129   0.332   0.197   6.265 -0.8005  0.2530  1.3843
 6498TIP3    H241130   0.247   0.221   6.142 -0.5060 -1.9336  0.6950
 6499TIP3   OH241131   3.335   6.929   2.164  1.0537  0.2928 -0.0909
 6499TIP3    H141132   3.419   6.964   2.134  0.3891  0.8194 -1.4399
 6499TIP3    H241133   3.270   6.991   2.131  0.0691 -0.6054  0.1142
 6500TIP3   OH241134   5.224   2.042   6.796 -0.1831  0.0288 -0.0139
 6500TIP3    H141135   5.168   2.093   6.738 -1.4172  0.9309  1.8706
 6500TIP3    H241136   5.306   2.032   6.748 -1.5623 -0.3713 -2.3957
 6501TIP3   OH241137   1.832   4.963   0.224  0.0327 -0.2073  0.1446
 6501TIP3    H141138   1.737   4.975   0.228 -0.1930 -0.2768 -2.9260
 6501TIP3    H241139   1.868   5.052   0.232 -0.0941 -0.3133  2.9516
 6502TIP3   OH241140   3.558   5.355   0.739  0.1009 -0.0659  0.5784
 6502TIP3    H141141   3.613   5.292   0.785  0.9476 -0.5977 -1.0736
 6502TIP3    H241142   3.511   5.401   0.808  0.0332 -1.9688  1.8645
 6503TIP3   OH241143   7.008   1.089   1.777  0.3962  0.1143  0.1937
 6503TIP3    H141144   7.089   1.131   1.804  1.0375  0.4832 -2.0746
 6503TIP3    H241145   6.943   1.118   1.841  1.5631  1.6933  0.7257
 6504TIP3   OH241146   3.516   1.024   7.970 -0.4982 -0.5850 -0.3354
 6504TIP3    H141147   3.488   1.088   7.905  0.0249  0.7991  0.7548
 6504TIP3    H241148   3.447   0.957   7.970 -0.0426 -1.1383 -2.9592
 6505TIP3   OH241149   5.242   6.712   0.920 -0.6579 -0.0056  0.1999
 6505TIP3    H141150   5.156   6.753   0.935 -0.0829  1.5913 -0.6383
 6505TIP3    H241151   5.222   6.619   0.905 -2.4985  0.6787 -2.1687
 6506TIP3   OH241152   4.447   4.759   1.429  0.4690 -0.9231 -0.1950
 6506TIP3    H141153   4.355   4.762   1.457  0.2772 -2.8275 -0.4607
 6506TIP3    H241154   4.497   4.783   1.507 -0.2455 -0.1063  0.0234
 6507TIP3   OH241155   0.452   5.614   6.638  0.6069  0.2609  0.6083
 6507TIP3    H141156   0.399   5.549   6.684  3.6305 -2.4055  0.7028
 6507TIP3    H241157   0.488   5.670   6.708  0.1524  0.2907  0.8188
 6508TIP3   OH241158   1.442   2.277   1.070  0.0066  0.0627  0.4194
 6508TIP3    H141159   1.465   2.184   1.078 -0.4690  0.0438  1.9784
 6508TIP3    H241160   1.397   2.283   0.986  0.6233 -0.9912 -0.0127
 6509TIP3   OH241161   1.479   2.326   1.808  0.0461  0.4693 -0.0099
 6509TIP3    H141162   1.489   2.372   1.724  2.9767 -0.8104 -0.4974
 6509TIP3    H241163   1.475   2.233   1.783 -1.5487  0.1940  1.1727
 6510TIP3   OH241164   3.859   0.259   6.002 -0.0714 -0.1270 -0.5063
 6510TIP3    H141165   3.800   0.187   5.979 -0.5665  0.3949 -0.8834
 6510TIP3    H241166   3.923   0.219   6.061 -1.6541 -0.4073  1.1381
 6511TIP3   OH241167   0.176   7.115   8.066 -0.1473  0.4175  0.0160
 6511TIP3    H141168   0.188   7.193   8.012 -0.9601  0.4458 -0.1386
 6511TIP3    H241169   0.133   7.052   8.008  0.1233  0.0040  0.2610
 6512TIP3   OH241170   0.451   0.934   0.518  0.5935 -0.0895 -0.1287
 6512TIP3    H141171   0.390   0.988   0.567  2.4462  0.9241  1.1969
 6512TIP3    H241172   0.469   0.860   0.575  0.9760 -0.1339 -0.3021
 6513TIP3   OH241173   1.202   3.994   1.689 -0.0149  0.5941 -0.0745
 6513TIP3    H141174   1.221   3.926   1.623 -0.5669  1.0933 -0.7685
 6513TIP3    H241175   1.199   3.947   1.772  0.1301 -0.1518 -0.4812
 6514TIP3   OH241176   4.191   0.519   6.589 -0.0581  0.2640  0.2107
 6514TIP3    H141177   4.224   0.548   6.503 -1.6899  1.0158 -0.2087
 6514TIP3    H241178   4.155   0.432   6.573  1.7430 -0.6097  0.6956
 6515TIP3   OH241179   5.052   3.706   0.882 -1.1553 -0.5665  0.3773
 6515TIP3    H141180   5.008   3.719   0.799 -0.7083  0.9097  0.3349
 6515TIP3    H241181   4.987   3.663   0.938 -2.4649  1.0033  0.1321
 6516TIP3   OH241182   3.393   0.122   1.387 -0.0700  0.3912 -0.5918
 6516TIP3    H141183   3.385   0.029   1.366  0.7843  0.9177 -3.8109
 6516TIP3    H241184   3.309   0.160   1.361  0.2795  0.7839 -1.1796
 6517TIP3   OH241185   3.009   1.375   1.224 -0.0964 -0.1492  0.1679
 6517TIP3    H141186   2.977   1.332   1.304  3.0308 -1.2416  0.9864
 6517TIP3    H241187   3.019   1.467   1.249 -0.8039 -0.1380  0.4484
 6518TIP3   OH241188   4.557   1.071   0.968 -0.3874  0.1694  0.1368
 6518TIP3    H141189   4.508   1.069   0.886  0.8171  0.2825 -0.6108
 6518TIP3    H241190   4.504   1.126   1.026 -0.7812  0.9204 -0.8915
 6519TIP3   OH241191   6.328   2.034   6.970 -0.5914  0.3669  0.5926
 6519TIP3    H141192   6.288   2.101   6.914 -1.1568 -0.5509 -0.1375
 6519TIP3    H241193   6.365   1.970   6.908  0.2219  0.1637  1.2674
 6520TIP3   OH241194   6.181   7.069   2.291 -0.2466 -0.4088  0.2708
 6520TIP3    H141195   6.115   7.120   2.245 -0.1848  0.3310  0.9843
 6520TIP3    H241196   6.156   6.977   2.276 -0.7417 -0.1603 -0.4564
 6521TIP3   OH241197   2.054   4.678   6.805  0.3996  0.3590  0.5193
 6521TIP3    H141198   2.064   4.712   6.716 -0.9115 -0.2660  0.1089
 6521TIP3    H241199   2.021   4.589   6.793  0.5448  0.1434  1.6312
 6522TIP3   OH241200   3.743   0.965   1.613 -0.2495 -0.4805  0.0528
 6522TIP3    H141201   3.726   1.056   1.637  1.6597 -0.1385  0.2185
 6522TIP3    H241202   3.760   0.921   1.697  0.9963 -0.4958 -0.1963
 6523TIP3   OH241203   1.023   7.082   7.146 -0.4667 -0.1258  0.0278
 6523TIP3    H141204   0.976   7.076   7.229 -0.2264  0.1498  0.1846
 6523TIP3    H241205   0.988   7.160   7.104  0.4503  0.5738  0.5272
 6524TIP3   OH241206   5.038   3.116   1.682 -0.3520 -0.6446  0.5499
 6524TIP3    H141207   5.048   3.026   1.652 -1.2960 -0.6252  0.1393
 6524TIP3    H241208   5.085   3.119   1.766  3.1030 -0.4907 -1.1897
 6525TIP3   OH241209   4.379   0.454   0.078  0.1280 -0.5852 -0.4872
 6525TIP3    H141210   4.394   0.471   0.171 -1.1745  0.2847 -0.4127
 6525TIP3    H241211   4.367   0.360   0.073  0.8577 -0.7213  0.1245
 6526TIP3   OH241212   1.284   2.016   1.079  0.2237  0.4245  0.2599
 6526TIP3    H141213   1.346   2.017   1.152  0.8074 -1.2736 -0.1494
 6526TIP3    H241214   1.339   2.000   1.001 -0.4200  1.8857 -0.5230
 6527TIP3   OH241215   1.671   2.621   0.844 -0.0801  0.5163  0.5895
 6527TIP3    H141216   1.658   2.528   0.828 -3.1145  1.0014 -0.3675
 6527TIP3    H241217   1.691   2.658   0.759  2.6188  0.6180  1.1948
 6528TIP3   OH241218   6.505   5.241   6.540 -0.2530  0.1041 -0.5744
 6528TIP3    H141219   6.447   5.193   6.482  1.3891 -0.1590 -2.0958
 6528TIP3    H241220   6.480   5.213   6.628 -1.6115 -0.8765 -1.2407
 6529TIP3   OH241221   5.244   3.060   7.621 -0.0699 -0.3688  0.9459
 6529TIP3    H141222   5.224   2.980   7.572 -2.2042 -0.8941  2.5051
 6529TIP3    H241223   5.203   3.130   7.570 -0.8170 -0.6781  1.1163
 6530TIP3   OH241224   3.008   6.194   6.447 -0.2013  0.6481  0.3933
 6530TIP3    H141225   3.013   6.161   6.537 -2.4948  1.1466  0.7721
 6530TIP3    H241226   3.071   6.141   6.398  0.6342 -0.0675  2.1486
 6531TIP3   OH241227   3.318   6.735   0.643  0.4598  0.4979  0.0602
 6531TIP3    H141228   3.329   6.643   0.669  1.4802  0.4466 -0.4872
 6531TIP3    H241229   3.244   6.735   0.583  0.0087  0.1504  0.6023
 6532TIP3   OH241230   1.459   4.079   1.217  0.5114 -0.3232 -0.1327
 6532TIP3    H141231   1.507   4.030   1.284  0.8673  0.4278  0.1821
 6532TIP3    H241232   1.368   4.051   1.227 -0.3189  2.7500  3.6202
 6533TIP3   OH241233   6.674   6.969   6.634 -0.1878 -0.2849  0.5338
 6533TIP3    H141234   6.742   6.929   6.580  0.6975  1.9132 -0.1096
 6533TIP3    H241235   6.721   7.005   6.710 -1.0275 -0.9597  1.4011
 6534TIP3   OH241236   6.562   7.093   5.874 -0.3429 -0.2488  0.2671
 6534TIP3    H141237   6.471   7.067   5.857  0.0005 -0.7856 -0.8300
 6534TIP3    H241238   6.614   7.020   5.840  0.4707 -0.5264  2.0168
 6535TIP3   OH241239   6.633   0.515   7.216 -0.1325 -0.3798 -0.1506
 6535TIP3    H141240   6.560   0.551   7.165  0.1169  1.4364  0.7067
 6535TIP3    H241241   6.695   0.485   7.150 -0.7670 -0.0604 -0.9099
 6536TIP3   OH241242   6.356   6.129   7.468 -0.2399  0.4551  0.0979
 6536TIP3    H141243   6.261   6.142   7.471 -0.4871 -0.9614 -0.6602
 6536TIP3    H241244   6.374   6.068   7.540 -0.2734 -1.1309 -1.1820
 6537TIP3   OH241245   6.512   3.708   0.005  0.1206  0.0739 -0.3156
 6537TIP3    H141246   6.572   3.738  -0.063 -0.0028  1.3093  0.0900
 6537TIP3    H241247   6.560   3.719   0.087  0.0061 -0.7028 -0.1395
 6538TIP3   OH241248   7.073   1.140   5.864 -0.3466 -0.3284  0.1861
 6538TIP3    H141249   7.131   1.128   5.939  0.5676  0.7321 -0.3092
 6538TIP3    H241250   6.987   1.112   5.895  0.7421 -4.1301  0.2713
 6539TIP3   OH241251   1.551   3.772   0.423 -0.3379 -0.2393 -0.5806
 6539TIP3    H141252   1.574   3.849   0.476 -0.8252 -1.6953  1.8693
 6539TIP3    H241253   1.455   3.768   0.427 -0.4762  0.1531 -2.4545
 6540TIP3   OH241254   1.148   1.394   2.072 -0.4194  0.1934 -0.3004
 6540TIP3    H141255   1.229   1.353   2.041 -0.7368  0.2468 -1.2283
 6540TIP3    H241256   1.171   1.486   2.084  0.0637 -0.0704  0.9556
 6541TIP3   OH241257   3.561   6.953   1.229 -0.2593 -0.3546  0.3122
 6541TIP3    H141258   3.616   6.884   1.191  0.2212 -0.4133  1.0750
 6541TIP3    H241259   3.600   6.969   1.315 -0.3215  0.9211  0.1244
 6542TIP3   OH241260   1.247   3.887   2.142 -0.6673  0.3553 -0.1812
 6542TIP3    H141261   1.321   3.841   2.180 -0.1805 -0.7686 -2.3068
 6542TIP3    H241262   1.269   3.980   2.149 -0.0752  0.1301  1.1120
 6543TIP3   OH241263   0.956   5.531   1.484 -0.0859  0.3865 -0.0705
 6543TIP3    H141264   0.916   5.580   1.556 -1.5405 -0.8909  0.0411
 6543TIP3    H241265   1.039   5.576   1.468  1.1840 -0.3308  3.5860
 6544TIP3   OH241266   4.306   6.750   7.346 -0.9539  0.7282  0.4614
 6544TIP3    H141267   4.292   6.658   7.324 -1.9233  0.7428  0.9914
 6544TIP3    H241268   4.314   6.794   7.261  1.3338 -0.0797  0.1916
 6545TIP3   OH241269   2.513   0.854   5.974  0.0639 -0.5810  0.0965
 6545TIP3    H141270   2.549   0.940   5.998  0.1403 -0.6263  0.1431
 6545TIP3    H241271   2.584   0.793   5.990 -0.8439 -1.0624  2.8834
 6546TIP3   OH241272   6.015   1.794   0.554  0.0595 -0.3995 -0.3661
 6546TIP3    H141273   6.038   1.870   0.501 -0.8949  0.2246  0.0831
 6546TIP3    H241274   6.029   1.719   0.496  0.2763  0.1724 -1.0647
 6547TIP3   OH241275   3.104   4.911   0.631  0.2751  0.2617 -0.2549
 6547TIP3    H141276   3.071   4.921   0.720  0.9964 -1.0123  0.1921
 6547TIP3    H241277   3.056   4.976   0.580 -0.4654  0.7229  0.9778
 6548TIP3   OH241278   4.882   0.551   0.318 -0.7919 -0.0625  0.7326
 6548TIP3    H141279   4.854   0.552   0.226 -1.7191  1.2674  1.0058
 6548TIP3    H241280   4.941   0.476   0.323  0.0904  0.4293 -1.1770
 6549TIP3   OH241281   2.842   1.003   7.907  0.5934 -0.5519 -0.7722
 6549TIP3    H141282   2.817   0.915   7.877 -0.8216 -0.3056 -0.3775
 6549TIP3    H241283   2.841   1.057   7.828 -1.7821 -0.2029 -0.5688
 6550TIP3   OH241284   5.959   4.199   6.408 -0.7020 -0.1328  0.0262
 6550TIP3    H141285   5.964   4.108   6.437 -1.6003  0.0231  0.7174
 6550TIP3    H241286   5.988   4.250   6.484 -1.0558  0.1990 -0.0612
 6551TIP3   OH241287   4.805   3.370   0.054 -0.0849 -0.3332  0.6136
 6551TIP3    H141288   4.777   3.279   0.058 -0.1521 -0.3860 -0.8180
 6551TIP3    H241289   4.869   3.373  -0.017  0.0221  0.7140  0.7360
 6552TIP3   OH241290   5.560   1.233   6.631  0.4430 -0.1634  0.7290
 6552TIP3    H141291   5.576   1.224   6.725  1.3791 -0.0697  0.5861
 6552TIP3    H241292   5.563   1.143   6.598  2.4917 -0.0458  0.4419
 6553TIP3   OH241293   5.272   6.175   1.040  0.3904  0.2653 -0.2476
 6553TIP3    H141294   5.286   6.178   1.135  0.2273 -0.4879 -0.1881
 6553TIP3    H241295   5.318   6.095   1.012 -0.3869 -0.0480 -0.6507
 6554TIP3   OH241296   0.937   2.848   6.670  0.0189  0.1361  0.1700
 6554TIP3    H141297   0.958   2.768   6.718 -0.9141 -0.0927  0.2088
 6554TIP3    H241298   0.868   2.890   6.722  0.2121  0.7600 -0.0664
 6555TIP3   OH241299   1.752   4.020   0.616 -0.4241  0.5464  0.1099
 6555TIP3    H141300   1.775   3.929   0.633 -0.6323  0.2542 -1.0874
 6555TIP3    H241301   1.829   4.058   0.574 -0.8955  0.4611 -0.8771
 6556TIP3   OH241302   3.878   4.478   2.242 -0.3905 -0.1135  0.3292
 6556TIP3    H141303   3.830   4.478   2.325  0.8206 -2.5740  1.1250
 6556TIP3    H241304   3.947   4.543   2.254 -0.5193 -0.1068  1.0939
 6557TIP3   OH241305   2.977   3.194   6.430 -0.5358 -0.1698 -0.0783
 6557TIP3    H141306   2.967   3.103   6.459  1.3866 -0.7810 -1.1316
 6557TIP3    H241307   3.018   3.187   6.344  0.9886  1.7156  0.4278
 6558TIP3   OH241308   6.147   2.523   1.844 -0.1858  0.3927  0.1766
 6558TIP3    H141309   6.208   2.597   1.846 -0.4961  0.6792 -0.6502
 6558TIP3    H241310   6.084   2.545   1.776 -0.1182 -0.7705 -0.2917
 6559TIP3   OH241311   2.842   0.413   7.485 -0.1053  0.2654 -0.2900
 6559TIP3    H141312   2.804   0.472   7.419 -0.2778 -0.3845 -0.7821
 6559TIP3    H241313   2.933   0.403   7.458 -0.8041 -2.2425 -2.1545
 6560TIP3   OH241314   6.685   3.822   1.385  0.0458 -0.1657  0.1883
 6560TIP3    H141315   6.636   3.746   1.415 -0.2656 -0.2323 -0.4600
 6560TIP3    H241316   6.691   3.880   1.461 -1.2274 -0.0541  0.2176
 6561TIP3   OH241317   0.059   6.209   0.385 -0.1748  0.2367 -0.4946
 6561TIP3    H141318   0.005   6.189   0.462  0.5073 -0.4965 -0.1920
 6561TIP3    H241319   0.149   6.196   0.415  0.0832 -0.5232 -1.5397
 6562TIP3   OH241320   2.682   2.479   7.218  0.1317 -0.6594 -0.2186
 6562TIP3    H141321   2.594   2.489   7.253 -0.7567 -1.9649 -1.9089
 6562TIP3    H241322   2.728   2.558   7.246 -1.3374 -0.2806  1.3065
 6563TIP3   OH241323   4.565   3.001   6.404 -0.1269 -0.4992 -0.1677
 6563TIP3    H141324   4.506   3.062   6.359  0.3611 -1.0310 -1.6055
 6563TIP3    H241325   4.515   2.919   6.410  0.1037 -0.6684 -0.5118
 6564TIP3   OH241326   3.910   2.723   1.536 -0.0491 -0.6409  0.2530
 6564TIP3    H141327   3.903   2.804   1.486  0.6363  0.0125  1.1852
 6564TIP3    H241328   3.909   2.751   1.628 -2.2483 -1.8754  0.6689
 6565TIP3   OH241329   1.913   2.010   6.887  0.0849 -0.1010 -0.4961
 6565TIP3    H141330   1.886   1.922   6.860  0.3258 -0.7504  1.2295
 6565TIP3    H241331   1.917   2.060   6.806 -1.4396 -1.2941 -1.3660
 6566TIP3   OH241332   6.140   5.147   1.684  0.0959  0.2922  0.0074
 6566TIP3    H141333   6.135   5.067   1.735 -0.6213  0.4860  0.2499
 6566TIP3    H241334   6.113   5.121   1.596  0.6508  0.1045 -0.1102
 6567TIP3   OH241335   0.073   0.244   7.266 -0.6129  0.1220 -0.2261
 6567TIP3    H141336   0.103   0.335   7.267  0.8637 -0.3129  1.7819
 6567TIP3    H241337   0.145   0.195   7.225 -0.5116 -0.3812  0.5297
 6568TIP3   OH241338   6.244   0.309   7.635  0.2387  0.0250  0.0456
 6568TIP3    H141339   6.308   0.300   7.565 -0.1450  1.8174 -0.6038
 6568TIP3    H241340   6.204   0.395   7.619 -0.5407  0.0456  1.9022
 6569TIP3   OH241341   2.157   3.869   7.989  0.0065 -0.2065 -0.3717
 6569TIP3    H141342   2.191   3.944   7.941  1.5117 -0.9785 -0.5701
 6569TIP3    H241343   2.062   3.879   7.985  0.1640  1.7856 -0.2077
 6570TIP3   OH241344   1.856   1.540   1.858  0.1506 -0.3714 -0.0761
 6570TIP3    H141345   1.807   1.478   1.912  0.7046 -1.1466 -0.4466
 6570TIP3    H241346   1.948   1.527   1.882  0.2039  1.0512  0.5938
 6571TIP3   OH241347   4.289   0.923   1.731 -0.7300  0.6204 -0.3635
 6571TIP3    H141348   4.363   0.863   1.745 -1.4743 -0.2974 -0.2211
 6571TIP3    H241349   4.216   0.880   1.774 -1.4671  1.2574 -0.9555
 6572TIP3   OH241350   1.151   2.250   6.580 -0.0440  0.0880  0.4888
 6572TIP3    H141351   1.093   2.325   6.566 -1.3692 -1.1973 -1.3980
 6572TIP3    H241352   1.143   2.198   6.500  2.0820 -1.2711  1.0646
 6573TIP3   OH241353   4.758   1.423   0.378 -0.4209  0.3666  0.0270
 6573TIP3    H141354   4.726   1.336   0.352 -1.8087  0.7822  0.2311
 6573TIP3    H241355   4.800   1.457   0.299  0.2283 -0.5159 -0.0246
 6574TIP3   OH241356   2.175   5.032   1.549 -0.0391 -0.5026  0.2812
 6574TIP3    H141357   2.141   4.943   1.560  1.7666 -1.2624  0.1441
 6574TIP3    H241358   2.227   5.048   1.628 -0.6591  0.5916  0.4795
 6575TIP3   OH241359   3.469   4.706   8.067  0.8230  0.5685 -0.7811
 6575TIP3    H141360   3.381   4.703   8.032  1.4383  0.3035 -2.3985
 6575TIP3    H241361   3.504   4.618   8.051  2.0274  1.2353 -2.0015
 6576TIP3   OH241362   2.881   5.543   0.573  0.5402  0.1331  0.1391
 6576TIP3    H141363   2.855   5.567   0.662  0.9002 -2.2540  0.9590
 6576TIP3    H241364   2.815   5.480   0.545  0.7348  0.4506 -1.0993
 6577TIP3   OH241365   2.453   2.935   6.410  0.2533  0.6964  0.4970
 6577TIP3    H141366   2.438   2.915   6.318 -0.9266 -0.9540  0.9994
 6577TIP3    H241367   2.430   3.027   6.419  1.0824  1.0649 -0.9897
 6578TIP3   OH241368   4.201   6.581   6.747 -0.0715 -0.7670  0.6479
 6578TIP3    H141369   4.237   6.571   6.835 -0.2356 -1.6111  0.6311
 6578TIP3    H241370   4.264   6.634   6.700 -0.5896  0.7681  1.6345
 6579TIP3   OH241371   5.699   2.016   6.529 -0.0049 -0.4892  0.2280
 6579TIP3    H141372   5.746   1.934   6.513  1.2064 -0.1043  1.5536
 6579TIP3    H241373   5.757   2.065   6.587  0.0933  2.0291 -1.8137
 6580TIP3   OH241374   6.361   7.119   7.330  0.1163 -0.6474  0.0928
 6580TIP3    H141375   6.434   7.173   7.300  0.2077 -1.0993 -0.5165
 6580TIP3    H241376   6.396   7.030   7.330 -0.6698 -0.9758 -1.0055
 6581TIP3   OH241377   4.221   0.920   7.975  0.0865 -0.0419  0.2347
 6581TIP3    H141378   4.163   0.847   7.998 -0.5951  0.7890  1.1991
 6581TIP3    H241379   4.274   0.934   8.053  1.7760 -0.9160 -0.6974
 6582TIP3   OH241380   2.027   3.649   1.564 -0.0753  0.5325  0.1971
 6582TIP3    H141381   2.032   3.557   1.537  0.0146  0.6037 -0.0318
 6582TIP3    H241382   2.116   3.669   1.594 -0.1774  0.4497  0.5669
 6583TIP3   OH241383   2.895   6.773   7.080 -0.1197 -0.4358 -0.1102
 6583TIP3    H141384   2.965   6.779   7.145  0.5879 -0.8374 -0.8288
 6583TIP3    H241385   2.867   6.682   7.083  0.1267 -0.5309 -0.5803
 6584TIP3   OH241386   1.997   2.420   6.950  0.2855  0.3391  0.0293
 6584TIP3    H141387   1.905   2.406   6.930  0.1165  0.2979  0.8063
 6584TIP3    H241388   1.998   2.499   7.005  0.6346 -0.0743  0.6289
 6585TIP3   OH241389   0.634   4.206   0.731 -0.2795 -0.3868  0.1412
 6585TIP3    H141390   0.593   4.126   0.762 -0.6415  0.0175  0.7152
 6585TIP3    H241391   0.710   4.176   0.681 -0.8588 -1.1124 -0.3206
 6586TIP3   OH241392   0.342   1.757   1.587 -0.6891 -0.3198  0.5046
 6586TIP3    H141393   0.378   1.779   1.673 -0.5584  0.3417  0.2850
 6586TIP3    H241394   0.250   1.781   1.592 -0.9447 -1.3157  0.8186
 6587TIP3   OH241395   5.318   4.318   0.095  0.4500  0.9050 -0.8501
 6587TIP3    H141396   5.235   4.352   0.129 -0.6882 -0.6598 -1.9348
 6587TIP3    H241397   5.332   4.235   0.142  0.2065  0.0355 -2.2287
 6588TIP3   OH241398   0.081   1.446   1.953  0.5486 -0.3160 -0.1581
 6588TIP3    H141399   0.083   1.354   1.928  0.7388 -0.1684 -0.6820
 6588TIP3    H241400   0.170   1.477   1.940  0.2162  0.2549 -1.1632
 6589TIP3   OH241401   4.372   2.334   6.871  0.1037 -0.4447  0.2633
 6589TIP3    H141402   4.414   2.420   6.876 -1.4616  0.4717 -1.0389
 6589TIP3    H241403   4.376   2.300   6.960  1.2356  0.7362  0.6976
 6590TIP3   OH241404   4.569   6.370   6.352  0.2984 -0.3185  0.0351
 6590TIP3    H141405   4.574   6.459   6.318  1.8593 -0.7419 -0.9653
 6590TIP3    H241406   4.656   6.334   6.337  0.4983 -1.1936  2.7957
 6591TIP3   OH241407   3.022   1.101   6.856  0.6559 -0.8085  0.1190
 6591TIP3    H141408   2.998   1.189   6.885 -0.8027 -1.5688  1.3793
 6591TIP3    H241409   2.942   1.066   6.817  0.5574 -2.2937  1.5478
 6592TIP3   OH241410   4.207   3.089   1.606  0.5420  0.5850 -0.0377
 6592TIP3    H141411   4.214   2.999   1.636 -2.4477  0.5546  0.9352
 6592TIP3    H241412   4.178   3.082   1.515 -1.1340  0.4518  0.4603
 6593TIP3   OH241413   6.317   1.268   1.539  0.3547  0.0419  0.7768
 6593TIP3    H141414   6.249   1.297   1.599  0.7792  1.1475  0.7526
 6593TIP3    H241415   6.272   1.210   1.477 -1.3279  3.0856 -1.1197
 6594TIP3   OH241416   6.069   5.170   7.690  0.0614 -0.2222  0.6045
 6594TIP3    H141417   6.030   5.165   7.603 -1.5007  1.1834  1.1675
 6594TIP3    H241418   6.036   5.092   7.735 -1.1096  0.3027  0.6785
 6595TIP3   OH241419   0.969   2.447   6.558  0.4528  0.2887  0.2608
 6595TIP3    H141420   0.983   2.490   6.474  0.8526 -2.3050 -1.0870
 6595TIP3    H241421   0.900   2.499   6.600 -2.1175 -0.0931 -3.0523
 6596TIP3   OH241422   2.574   5.133   0.560 -0.2611  0.2092  0.6267
 6596TIP3    H141423   2.584   5.038   0.563  0.6564  0.1581 -1.5886
 6596TIP3    H241424   2.491   5.147   0.514 -0.3460  0.4795  0.8592
 6597TIP3   OH241425   0.477   4.802   1.339  0.3562 -0.0522 -0.1533
 6597TIP3    H141426   0.484   4.826   1.432  2.2377  1.4828 -0.6174
 6597TIP3    H241427   0.546   4.737   1.326  0.4704  0.1460 -0.5652
 6598TIP3   OH241428   1.666   0.914   6.724 -1.1328 -0.0307 -0.1705
 6598TIP3    H141429   1.578   0.878   6.719 -1.8551  1.5576  0.5010
 6598TIP3    H241430   1.671   0.954   6.811  0.3280 -0.2421 -0.1248
 6599TIP3   OH241431   3.337   0.829   8.019  0.0500  0.6401 -0.1382
 6599TIP3    H141432   3.259   0.865   7.978  0.8697  1.5155 -0.9655
 6599TIP3    H241433   3.304   0.778   8.093 -1.2574  1.5234 -0.0896
 6600TIP3   OH241434   3.085   5.061   7.733 -0.5673 -0.2668  0.2082
 6600TIP3    H141435   3.072   5.142   7.683 -1.5103 -1.6035 -1.8319
 6600TIP3    H241436   3.144   5.009   7.680  0.1092 -0.9154  1.5574
 6601TIP3   OH241437   5.709   6.167   6.993 -0.4049 -0.2397 -0.4281
 6601TIP3    H141438   5.780   6.231   7.000 -0.6255 -0.0942  0.7260
 6601TIP3    H241439   5.629   6.219   6.999 -0.5871 -0.5820  0.3139
 6602TIP3   OH241440   1.273   1.137   0.569  0.4538 -0.0081  0.1180
 6602TIP3    H141441   1.188   1.147   0.526  1.4202  0.1680 -1.8669
 6602TIP3    H241442   1.326   1.210   0.537  1.3012  0.0304  1.5050
 6603TIP3   OH241443   3.223   4.177   6.889 -0.3483  0.2606 -0.2029
 6603TIP3    H141444   3.288   4.133   6.944 -0.1232  1.1448  0.2564
 6603TIP3    H241445   3.275   4.228   6.827 -0.6065 -0.3056 -0.8966
 6604TIP3   OH241446   1.389   1.734   5.934  0.4567 -0.2709  0.5944
 6604TIP3    H141447   1.447   1.661   5.955 -0.9549 -1.0340  2.0530
 6604TIP3    H241448   1.327   1.698   5.870  0.1586 -0.1544  0.8152
 6605TIP3   OH241449   1.461   4.200   2.009  0.3051 -0.0521  0.6032
 6605TIP3    H141450   1.457   4.123   1.953 -0.9516  1.3801 -1.4313
 6605TIP3    H241451   1.441   4.167   2.097  0.8582 -2.1660 -0.0188
 6606TIP3   OH241452   7.008   3.953   6.470  0.0281 -0.2969  0.0113
 6606TIP3    H141453   7.027   3.884   6.534 -0.9643 -0.8298 -0.2539
 6606TIP3    H241454   6.979   4.028   6.523 -0.9777 -0.7989  0.1780
 6607TIP3   OH241455   3.246   4.104   1.178  0.5034 -0.4060  0.6753
 6607TIP3    H141456   3.270   4.183   1.129  1.4532  0.3729  2.2855
 6607TIP3    H241457   3.324   4.085   1.230 -0.1146 -1.7736  1.1248
 6608TIP3   OH241458   4.833   4.805   0.053  0.4086 -0.4269  0.3356
 6608TIP3    H141459   4.814   4.719   0.090  1.6859 -0.6414  0.5110
 6608TIP3    H241460   4.824   4.793  -0.042  1.0740 -0.8781  0.3275
 6609TIP3   OH241461   5.604   2.858   7.455  0.2266 -0.0009  0.0994
 6609TIP3    H141462   5.695   2.858   7.424  0.2874  2.4326  0.0698
 6609TIP3    H241463   5.555   2.901   7.385 -1.1354 -2.0268 -0.2491
 6610TIP3   OH241464   2.987   0.738   1.225 -0.5175 -0.9195  0.4028
 6610TIP3    H141465   3.037   0.692   1.292 -0.0488  0.9374  1.4139
 6610TIP3    H241466   2.904   0.760   1.266 -0.6518 -0.7029  0.0259
 6611TIP3   OH241467   0.718   6.535   6.904  0.0273 -0.7182  0.5999
 6611TIP3    H141468   0.725   6.609   6.964 -1.0999 -1.2132  1.3799
 6611TIP3    H241469   0.796   6.541   6.849 -0.0526  1.0652  0.6155
 6612TIP3   OH241470   4.008   0.312   0.075  0.2141  0.1790 -0.1726
 6612TIP3    H141471   4.042   0.237   0.124 -1.3379 -0.7204 -0.4154
 6612TIP3    H241472   4.024   0.290  -0.017  1.3048  0.9575 -0.1947
 6613TIP3   OH241473   5.918   2.810   1.520  0.4623 -0.3697 -0.2838
 6613TIP3    H141474   6.010   2.811   1.495  0.1739  0.8497 -1.3518
 6613TIP3    H241475   5.919   2.824   1.615  1.2981  2.1405 -0.5991
 6614TIP3   OH241476   5.764   1.233   7.918 -0.0593 -0.2006  0.4539
 6614TIP3    H141477   5.766   1.139   7.901 -1.6105 -0.3853  1.0725
 6614TIP3    H241478   5.748   1.240   8.013 -1.1505  0.6538  0.2334
 6615TIP3   OH241479   0.002   0.775   1.755 -0.0629 -0.4803  0.4286
 6615TIP3    H141480   0.073   0.716   1.779  0.2505 -0.7440 -1.0531
 6615TIP3    H241481   0.044   0.841   1.700 -0.8488 -0.2713  0.0713
 6616TIP3   OH241482   5.505   4.088   0.364  0.2759 -0.5623 -0.0870
 6616TIP3    H141483   5.572   4.134   0.413 -0.7544  0.0590  0.7906
 6616TIP3    H241484   5.430   4.084   0.423 -0.4613 -1.2449 -1.0269
 6617TIP3   OH241485   6.956   1.933   6.864  0.6853  0.4939  0.7632
 6617TIP3    H141486   6.898   2.008   6.880 -0.3563 -0.2379  0.5220
 6617TIP3    H241487   7.019   1.937   6.936 -0.1591  0.8557  1.5175
 6618TIP3   OH241488   4.742   5.668   7.476 -0.3446 -0.3378  0.2444
 6618TIP3    H141489   4.665   5.650   7.422  0.7075 -4.2734 -0.2772
 6618TIP3    H241490   4.708   5.674   7.565 -1.5446  1.2992 -0.2808
 6619TIP3   OH241491   0.404   4.550   1.671  0.1184 -0.3715 -0.0549
 6619TIP3    H141492   0.417   4.486   1.741 -2.9514  1.7221  2.7401
 6619TIP3    H241493   0.481   4.607   1.676 -0.4613  0.3143  2.4252
 6620TIP3   OH241494   1.621   1.080   0.835  0.3888  0.2392  0.0745
 6620TIP3    H141495   1.638   1.062   0.927 -0.5554  0.9330  0.4054
 6620TIP3    H241496   1.531   1.051   0.821  0.9392 -1.0853 -0.9894
 6621TIP3   OH241497   3.599   3.400   0.223 -0.4061 -0.5652 -0.0049
 6621TIP3    H141498   3.642   3.318   0.249  0.2626 -0.3770 -0.4798
 6621TIP3    H241499   3.608   3.402   0.127 -0.6794 -0.0791 -0.0241
 6622TIP3   OH241500   3.610   3.018   7.853  0.2048  0.3589  0.0863
 6622TIP3    H141501   3.657   2.934   7.853 -1.7050 -0.7864  1.7136
 6622TIP3    H241502   3.663   3.075   7.909 -0.2036 -0.8647  1.7825
 6623TIP3   OH241503   4.396   6.769   6.532  0.6491 -0.1533 -0.6239
 6623TIP3    H141504   4.484   6.804   6.551  0.7685  0.1667 -1.7111
 6623TIP3    H241505   4.337   6.842   6.551  0.7583  0.1321 -1.3678
 6624TIP3   OH241506   0.605   5.639   7.682 -0.0081  0.1758  0.1744
 6624TIP3    H141507   0.551   5.588   7.622  1.7985 -1.3052 -0.2943
 6624TIP3    H241508   0.637   5.574   7.745  1.8129  0.8336 -0.0249
 6625TIP3   OH241509   6.683   1.935   7.268  0.4177  0.2839  0.0998
 6625TIP3    H141510   6.618   1.987   7.220 -0.2654 -0.5385  0.1120
 6625TIP3    H241511   6.755   1.995   7.283  0.2259  0.8471 -1.0995
 6626TIP3   OH241512   1.686   0.056   0.361 -0.4886 -0.0486  0.0606
 6626TIP3    H141513   1.703   0.098   0.445  1.0112  1.4584 -0.9381
 6626TIP3    H241514   1.600   0.089   0.334  0.4336  2.0957 -0.4602
 6627TIP3   OH241515   5.517   6.989   7.175  0.0186 -0.1102 -0.0101
 6627TIP3    H141516   5.460   6.957   7.105 -0.2919 -0.4611  0.3919
 6627TIP3    H241517   5.482   7.075   7.198 -0.0137 -0.0902 -0.1349
 6628TIP3   OH241518   6.333   3.201   6.773  0.2482 -0.1578 -0.3238
 6628TIP3    H141519   6.281   3.136   6.725  1.6294 -2.4651  1.1366
 6628TIP3    H241520   6.316   3.283   6.727 -1.2734 -1.5882 -2.5249
 6629TIP3   OH241521   4.164   6.605   0.611  0.2595 -0.8919 -0.4358
 6629TIP3    H141522   4.152   6.699   0.622 -1.5441 -1.0358 -0.9032
 6629TIP3    H241523   4.249   6.587   0.651  0.4633  0.8645  0.0020
 6630TIP3   OH241524   5.631   0.429   7.645 -1.1743  0.1299 -0.1546
 6630TIP3    H141525   5.607   0.338   7.667 -1.3596 -0.0865 -1.2120
 6630TIP3    H241526   5.562   0.482   7.686 -0.0097 -0.0350  2.1651
 6631TIP3   OH241527   4.715   3.105   1.287  0.0232 -0.2443 -0.2469
 6631TIP3    H141528   4.783   3.170   1.268 -1.1155  1.2957  0.7502
 6631TIP3    H241529   4.758   3.021   1.271  3.0696  0.4898  2.8706
 6632TIP3   OH241530   3.557   6.407   1.305  0.0734 -0.1128 -0.0082
 6632TIP3    H141531   3.607   6.362   1.373 -1.4919 -0.8632  0.7007
 6632TIP3    H241532   3.539   6.339   1.240  0.5137  0.3124 -0.5874
 6633TIP3   OH241533   5.514   2.233   8.127 -0.2744  0.0718  0.2052
 6633TIP3    H141534   5.448   2.298   8.153  0.4488  0.8842  0.0788
 6633TIP3    H241535   5.591   2.255   8.180  0.3258 -0.0084 -0.6109
 6634TIP3   OH241536   1.033   5.781   5.652  0.6052  0.7767  0.1987
 6634TIP3    H141537   1.107   5.835   5.679  1.7608 -0.2503 -0.7858
 6634TIP3    H241538   1.066   5.728   5.580 -1.3402  0.8826 -0.8501
 6635TIP3   OH241539   4.860   4.898   7.566 -0.5620 -0.2488 -0.0786
 6635TIP3    H141540   4.882   4.964   7.632 -0.2554 -0.8255  0.4080
 6635TIP3    H241541   4.863   4.815   7.614 -0.5691 -0.6504 -0.7672
 6636TIP3   OH241542   0.474   0.626   7.800  0.1105 -0.4487 -0.2789
 6636TIP3    H141543   0.423   0.584   7.731 -0.5705 -0.1473  0.0257
 6636TIP3    H241544   0.428   0.603   7.881 -0.2742  0.8523 -0.0999
 6637TIP3   OH241545   1.797   0.822   7.861 -0.1572  0.5548  0.0442
 6637TIP3    H141546   1.752   0.773   7.792  0.3560 -0.1661  0.2177
 6637TIP3    H241547   1.816   0.757   7.929 -1.3607  1.3938  1.2396
 6638TIP3   OH241548   5.456   3.632   1.220  0.2657 -0.5459  0.0084
 6638TIP3    H141549   5.382   3.688   1.197 -1.2284 -2.2905  0.3356
 6638TIP3    H241550   5.466   3.641   1.314 -0.1420 -1.0182  0.0980
 6639TIP3   OH241551   5.431   1.875   7.106  0.9804  0.1748 -0.7220
 6639TIP3    H141552   5.482   1.929   7.167 -0.2177 -0.5145  0.9499
 6639TIP3    H241553   5.411   1.796   7.154 -0.6598 -0.0823 -1.7499
 6640TIP3   OH241554   6.240   4.207   7.326 -0.8428 -0.5284  0.3002
 6640TIP3    H141555   6.318   4.250   7.362 -0.1605 -0.9784 -0.6080
 6640TIP3    H241556   6.215   4.260   7.251 -0.0953 -1.5589 -0.7255
 6641TIP3   OH241557   1.712   0.858   0.665  0.0459  0.0409 -0.1023
 6641TIP3    H141558   1.685   0.936   0.713  0.3112 -1.4008  2.5664
 6641TIP3    H241559   1.784   0.887   0.609 -0.4864  1.8682  0.1220
 6642TIP3   OH241560   4.087   2.635   7.642  0.4607 -0.3060 -0.1586
 6642TIP3    H141561   4.099   2.625   7.736 -1.8134 -2.0079  0.0468
 6642TIP3    H241562   4.173   2.615   7.604  0.8502 -1.9933  1.4655
 6643TIP3   OH241563   0.118   5.714   0.674  0.0856 -0.0245 -0.2196
 6643TIP3    H141564   0.213   5.708   0.661  0.2168 -1.7071  1.2574
 6643TIP3    H241565   0.098   5.646   0.737 -1.8713  1.4801  0.8877
 6644TIP3   OH241566   1.491   1.952   0.632  0.2427  0.3154 -0.2651
 6644TIP3    H141567   1.408   1.992   0.606 -0.7450 -0.3874  1.6141
 6644TIP3    H241568   1.502   1.878   0.573 -0.9976 -0.1798  0.0929
 6645TIP3   OH241569   4.699   6.265   6.727  0.0906 -0.5468 -0.7936
 6645TIP3    H141570   4.686   6.357   6.749  0.5747 -0.2779 -1.5884
 6645TIP3    H241571   4.682   6.259   6.633  0.6543 -1.1435 -0.8730
 6646TIP3   OH241572   1.079   3.032   6.494 -0.1620 -0.1361  0.8642
 6646TIP3    H141573   1.037   2.979   6.427 -0.8342 -0.2414  1.3652
 6646TIP3    H241574   1.059   2.988   6.577 -2.0146  1.6697  1.4456
 6647TIP3   OH241575   2.333   4.509   6.294  0.0003  0.5376 -0.1734
 6647TIP3    H141576   2.319   4.461   6.213 -1.8624  0.3504  0.1935
 6647TIP3    H241577   2.355   4.598   6.267  1.5665 -0.0357 -0.8561
 6648TIP3   OH241578   2.615   6.133   5.894 -0.1279 -0.5190 -0.1767
 6648TIP3    H141579   2.533   6.182   5.892  0.7013  1.2886  3.3294
 6648TIP3    H241580   2.616   6.090   5.979  2.3360 -0.9358 -0.3299
 6649TIP3   OH241581   0.434   5.576   6.377  0.1485  0.4440  0.3043
 6649TIP3    H141582   0.375   5.646   6.351 -0.0749  0.2816  0.3783
 6649TIP3    H241583   0.427   5.573   6.472  0.2926  0.4379  0.3154
 6650TIP3   OH241584   3.023   4.116   2.397  0.9892  0.1477  0.3099
 6650TIP3    H141585   3.043   4.022   2.391 -3.1211 -0.8606 -0.7587
 6650TIP3    H241586   2.969   4.124   2.476  0.6712  1.4550 -0.0184
 6651TIP3   OH241587   0.870   0.241   6.151  0.0346 -0.1259 -0.1466
 6651TIP3    H141588   0.812   0.165   6.159 -1.8560  1.2384 -0.2900
 6651TIP3    H241589   0.855   0.273   6.062  1.0826  0.2205 -0.2110
 6652TIP3   OH241590   1.017   4.891   0.257 -0.2007  0.3363 -0.0489
 6652TIP3    H141591   1.081   4.955   0.227  2.6009 -0.9946  2.5193
 6652TIP3    H241592   0.977   4.931   0.334  0.5372 -0.3711  0.7265
 6653TIP3   OH241593   6.635   2.262   0.398 -0.5736 -0.0078 -0.7680
 6653TIP3    H141594   6.632   2.339   0.341 -1.8373  0.7819  0.2908
 6653TIP3    H241595   6.728   2.246   0.412 -0.2237 -0.0564 -2.7721
 6654TIP3   OH241596   2.360   5.300   7.842  0.1058 -0.1289  0.4301
 6654TIP3    H141597   2.338   5.208   7.833  1.1775 -0.3329 -0.3691
 6654TIP3    H241598   2.277   5.343   7.862 -0.0920 -1.4933  2.8851
 6655TIP3   OH241599   6.390   2.703   0.228 -0.4107  0.5625  0.2293
 6655TIP3    H141600   6.365   2.722   0.137 -0.9583 -0.4193  0.1520
 6655TIP3    H241601   6.432   2.617   0.223  0.2611  0.8551  0.8011
 6656TIP3   OH241602   4.975   2.474   6.717 -0.5471  0.1481  0.7021
 6656TIP3    H141603   5.047   2.534   6.697 -0.4877 -0.6798 -2.0211
 6656TIP3    H241604   4.899   2.512   6.673 -0.6001 -1.4699 -0.7336
 6657TIP3   OH241605   6.667   3.278   6.740  0.1913  0.4408 -0.0224
 6657TIP3    H141606   6.602   3.253   6.673 -0.6773 -0.6296  1.1708
 6657TIP3    H241607   6.750   3.246   6.705 -0.4478 -1.3746 -0.0107
 6658TIP3   OH241608   2.480   1.557   7.348  0.3140 -0.1011  0.2466
 6658TIP3    H141609   2.469   1.525   7.438 -2.0917  1.7968  0.7161
 6658TIP3    H241610   2.403   1.525   7.302  0.8587  0.0849 -0.8302
 6659TIP3   OH241611   3.310   6.068   0.722  0.5429 -0.6732 -0.2471
 6659TIP3    H141612   3.289   6.028   0.638  0.4485  1.3079 -1.2344
 6659TIP3    H241613   3.383   6.015   0.756 -0.0157 -2.0603 -1.1235
 6660TIP3   OH241614   6.316   0.544   6.746 -0.1202  0.3668  0.1002
 6660TIP3    H141615   6.265   0.601   6.688  1.2073  0.1995 -1.3109
 6660TIP3    H241616   6.385   0.602   6.781 -0.1533  0.1673  0.4954
 6661TIP3   OH241617   7.114   2.274   7.252 -0.3749 -0.2249  0.5334
 6661TIP3    H141618   7.174   2.332   7.298  0.5636  0.7945 -1.8143
 6661TIP3    H241619   7.086   2.324   7.175 -2.2117 -1.6568  0.1999
 6662TIP3   OH241620   2.311   1.501   2.338  0.0683 -0.7665  0.0023
 6662TIP3    H141621   2.382   1.561   2.315 -0.7809  0.4095  0.3736
 6662TIP3    H241622   2.291   1.455   2.256 -0.3326  0.6150 -0.6949
 6663TIP3   OH241623   1.847   1.193   0.673 -0.0301 -0.6218 -0.3753
 6663TIP3    H141624   1.811   1.118   0.719  1.1273 -1.3782 -0.6546
 6663TIP3    H241625   1.826   1.268   0.729  1.9021 -1.5797  1.7714
 6664TIP3   OH241626   4.707   6.997   0.326  0.2188  0.1059  0.6159
 6664TIP3    H141627   4.684   6.965   0.239 -1.5707  1.1389  0.6385
 6664TIP3    H241628   4.689   6.924   0.385  2.6212 -1.0248  0.0665
 6665TIP3   OH241629   3.382   6.999   7.213 -0.5993  0.7929  0.0191
 6665TIP3    H141630   3.444   7.027   7.146 -0.3799 -1.7678 -0.9619
 6665TIP3    H241631   3.298   6.990   7.167 -0.8007  0.4847  0.4339
 6666TIP3   OH241632   0.802   1.407   1.026  0.1207  0.7953 -0.6348
 6666TIP3    H141633   0.835   1.382   1.112  0.2093  0.8686 -0.6477
 6666TIP3    H241634   0.761   1.493   1.040 -1.7556 -0.1248 -0.2074
 6667TIP3   OH241635   0.692   4.863   6.924 -0.3005 -0.1777  0.2064
 6667TIP3    H141636   0.601   4.846   6.901 -0.1060  0.2221 -0.8961
 6667TIP3    H241637   0.743   4.802   6.871  0.0944 -0.1533  0.5516
 6668TIP3   OH241638   1.407   5.294   7.955  0.6524 -0.4231  0.1065
 6668TIP3    H141639   1.347   5.329   8.021  0.2580 -1.0329  0.0821
 6668TIP3    H241640   1.419   5.364   7.892 -0.1590 -0.3494  0.0315
 6669TIP3   OH241641   2.713   2.399   0.524  0.1347 -0.1869 -0.3167
 6669TIP3    H141642   2.772   2.364   0.458  0.7433  0.7415 -0.2863
 6669TIP3    H241643   2.735   2.351   0.604  1.1260  0.4210 -0.2147
 6670TIP3   OH241644   5.922   0.165   7.280  0.1167 -0.9328 -0.4698
 6670TIP3    H141645   5.993   0.221   7.248  0.1136  0.2237  1.3756
 6670TIP3    H241646   5.844   0.196   7.235  0.3430 -0.3452 -0.4667
 6671TIP3   OH241647   3.504   4.036   6.803 -0.1926  0.5933 -0.0026
 6671TIP3    H141648   3.459   3.961   6.764 -1.3897  1.5813 -0.6092
 6671TIP3    H241649   3.471   4.040   6.893  2.0802 -1.2988  1.0068
 6672TIP3   OH241650   3.048   1.774   7.453 -0.5728  0.0699 -0.0174
 6672TIP3    H141651   3.035   1.743   7.542  0.3216  1.2448  0.5647
 6672TIP3    H241652   2.960   1.784   7.418 -0.9135 -2.0695  0.0910
 6673TIP3   OH241653   4.590   0.302   7.850 -0.4057  0.0551  0.5109
 6673TIP3    H141654   4.570   0.210   7.870 -2.0611  0.2248 -0.2380
 6673TIP3    H241655   4.617   0.300   7.758 -0.4658  0.3245  0.4891
 6674TIP3   OH241656   2.800   3.156   2.184 -0.4507 -0.3578 -0.5252
 6674TIP3    H141657   2.709   3.161   2.211 -0.9366  1.4755 -2.2695
 6674TIP3    H241658   2.849   3.139   2.265 -1.9977  2.4181  1.1239
 6675TIP3   OH241659   4.861   1.304   1.437 -0.1933 -0.2679  0.2636
 6675TIP3    H141660   4.936   1.245   1.432 -0.0976 -0.0911 -0.6190
 6675TIP3    H241661   4.893   1.380   1.485  1.1571  1.1264 -2.5806
 6676TIP3   OH241662   3.021   4.700   7.615 -0.0391 -0.3872  0.7376
 6676TIP3    H141663   3.069   4.746   7.684  0.5445  0.3943 -0.1635
 6676TIP3    H241664   2.981   4.770   7.564  0.4650 -0.8851 -0.3747
 6677TIP3   OH241665   1.770   6.694   0.146  0.0000 -0.2769  0.3685
 6677TIP3    H141666   1.703   6.746   0.191 -0.4878  1.0922 -1.7557
 6677TIP3    H241667   1.841   6.756   0.130  0.3042 -0.8118 -0.3998
 6678TIP3   OH241668   1.864   2.923   0.287 -0.5538  0.3307  0.7120
 6678TIP3    H141669   1.851   3.014   0.259  0.7042  0.8026  1.6018
 6678TIP3    H241670   1.892   2.878   0.207  0.0521  1.0127  0.5253
 6679TIP3   OH241671   5.421   3.680   6.861 -0.0522  0.0930  0.6179
 6679TIP3    H141672   5.352   3.697   6.798  0.7009 -1.1247 -0.6084
 6679TIP3    H241673   5.477   3.758   6.857 -1.1380  0.9326  1.3706
 6680TIP3   OH241674   0.695   4.389   6.511  0.5697 -0.3415 -0.4170
 6680TIP3    H141675   0.755   4.402   6.437 -0.0169  4.0267 -0.4019
 6680TIP3    H241676   0.608   4.395   6.472  0.1139 -2.5934  0.1165
 6681TIP3   OH241677   0.010   1.460   0.127 -0.0172 -0.1243  0.4239
 6681TIP3    H141678  -0.036   1.522   0.070  1.5135 -0.1688 -0.9407
 6681TIP3    H241679   0.092   1.442   0.081  0.7756 -1.0660  2.1215
 6682TIP3   OH241680   5.520   5.822   6.477 -0.2453  0.3401 -0.8767
 6682TIP3    H141681   5.565   5.852   6.398  0.3305  0.7583 -0.3967
 6682TIP3    H241682   5.561   5.871   6.548  1.0340 -1.8921  0.0150
 6683TIP3   OH241683   1.171   4.390   7.969 -0.4122  0.2229  0.2401
 6683TIP3    H141684   1.203   4.456   8.031 -1.4520  2.0498 -1.1037
 6683TIP3    H241685   1.086   4.363   8.004  0.1336 -0.6911  0.9393
 6684TIP3   OH241686   2.814   5.469   7.677 -0.7612  0.2244 -0.1217
 6684TIP3    H141687   2.755   5.394   7.672 -3.5953  2.1769  1.1911
 6684TIP3    H241688   2.778   5.531   7.614  2.1555  0.2145 -1.9659
 6685TIP3   OH241689   6.715   1.284   0.065  0.1804  0.2725 -0.1352
 6685TIP3    H141690   6.788   1.297   0.125  0.9309  0.5145 -1.0865
 6685TIP3    H241691   6.749   1.309  -0.021 -0.4406 -1.4185 -0.9189
 6686TIP3   OH241692   5.613   4.149   1.959  0.6082 -1.0231 -0.1611
 6686TIP3    H141693   5.560   4.229   1.953  2.3361  0.3128  1.3419
 6686TIP3    H241694   5.563   4.091   2.016 -0.6039 -1.0126 -1.1619
 6687TIP3   OH241695   2.879   0.424   2.000 -0.0977 -0.6051 -0.1849
 6687TIP3    H141696   2.827   0.434   1.920 -1.2432 -0.8973  0.4890
 6687TIP3    H241697   2.842   0.347   2.043  0.7322 -0.6567  0.4609
 6688TIP3   OH241698   7.007   1.633   7.281 -0.0207 -0.3725 -0.3829
 6688TIP3    H141699   6.918   1.602   7.265  0.9577 -3.1805 -0.9572
 6688TIP3    H241700   7.007   1.657   7.374 -1.4322  0.0088 -0.4526
 6689TIP3   OH241701   5.522   3.384   1.045  0.8733 -0.6441  0.2275
 6689TIP3    H141702   5.465   3.460   1.031  1.1374 -0.2657  1.1051
 6689TIP3    H241703   5.567   3.372   0.961  1.8114  1.0186  0.4330
 6690TIP3   OH241704   5.138   4.534   1.042 -0.3932 -0.1339  0.1730
 6690TIP3    H141705   5.184   4.596   1.099 -0.6121 -0.0975  0.3109
 6690TIP3    H241706   5.206   4.500   0.983 -0.3855  0.6645 -0.2838
 6691TIP3   OH241707   5.368   1.804   0.465  0.1899 -0.2001  0.4850
 6691TIP3    H141708   5.362   1.881   0.407 -0.2272  0.3397  1.2290
 6691TIP3    H241709   5.283   1.761   0.457  0.1578 -0.1650  0.6352
 6692TIP3   OH241710   0.985   3.395   7.426  0.0117  0.2995 -0.2975
 6692TIP3    H141711   1.015   3.341   7.352 -2.3169 -0.4499 -0.7730
 6692TIP3    H241712   0.987   3.485   7.393  0.3866  0.1246 -0.7597
 6693TIP3   OH241713   0.398   4.613   7.462  0.0901  0.2175  0.2223
 6693TIP3    H141714   0.323   4.653   7.507  0.6300  1.3975  0.1154
 6693TIP3    H241715   0.414   4.671   7.388 -0.8335 -1.7287 -1.5844
 6694TIP3   OH241716   5.702   2.025   0.842  0.1222 -0.2424 -0.2189
 6694TIP3    H141717   5.747   1.976   0.911 -1.2049  0.6301  1.3476
 6694TIP3    H241718   5.704   1.968   0.766 -0.1781 -2.1736  1.1527
 6695TIP3   OH241719   0.889   0.875   0.890 -0.3629  0.3358  0.0657
 6695TIP3    H141720   0.919   0.927   0.816 -0.2106 -0.8874 -0.7740
 6695TIP3    H241721   0.969   0.838   0.927 -0.5084  0.2635  0.3072
 6696TIP3   OH241722   3.803   4.943   2.138  0.4103  0.0254  0.4767
 6696TIP3    H141723   3.727   4.887   2.123  1.0549 -0.7414 -0.0031
 6696TIP3    H241724   3.862   4.891   2.192  0.1649  1.0097  1.7325
 6697TIP3   OH241725   2.507   3.502   0.604  0.1749  0.1245  0.0335
 6697TIP3    H141726   2.579   3.541   0.655  0.5027  0.0670 -0.3715
 6697TIP3    H241727   2.478   3.428   0.656 -0.0056  0.5107  0.4974
 6698TIP3   OH241728   0.052   0.961   1.178  0.9322  0.7778  0.0631
 6698TIP3    H141729   0.055   1.027   1.109  0.2417  1.0408  0.2692
 6698TIP3    H241730  -0.027   0.983   1.228 -0.5137 -1.4543 -1.0861
 6699TIP3   OH241731   2.263   3.915   1.491 -0.3221  0.2357 -0.2819
 6699TIP3    H141732   2.275   3.928   1.585  0.2279  0.7216 -0.4110
 6699TIP3    H241733   2.267   3.820   1.479  0.4882  0.2161  0.0766
 6700TIP3   OH241734   2.902   4.170   7.718  0.6284  0.0164 -0.5031
 6700TIP3    H141735   2.852   4.089   7.704  0.9218 -0.5022  1.1841
 6700TIP3    H241736   2.841   4.229   7.761  0.5965  0.4722 -1.1738
 6701TIP3   OH241737   4.127   0.997   2.071 -0.3936 -0.0687 -0.2846
 6701TIP3    H141738   4.121   0.943   1.993 -1.0161  1.0212 -1.0188
 6701TIP3    H241739   4.037   1.009   2.100 -0.2077 -0.0392  0.3006
 6702TIP3   OH241740   3.886   6.309   7.184  0.5344 -0.2810 -0.2498
 6702TIP3    H141741   3.870   6.297   7.278 -0.1018 -0.0695 -0.3293
 6702TIP3    H241742   3.871   6.402   7.169  1.8039 -0.0722 -0.3420
 6703TIP3   OH241743   6.039   1.899   1.333  0.0408  0.0498  0.0136
 6703TIP3    H141744   6.024   1.907   1.428  1.6171 -1.1859  0.4102
 6703TIP3    H241745   5.994   1.818   1.309 -0.4705  0.4302 -0.3516
 6704TIP3   OH241746   3.772   6.895   6.852 -0.4081  0.0686 -0.1272
 6704TIP3    H141747   3.720   6.974   6.868 -0.9393  0.0727 -1.7018
 6704TIP3    H241748   3.849   6.906   6.908  0.0981  2.2844 -1.1474
 6705TIP3   OH241749   4.461   4.455   1.422 -0.0014 -0.2021  0.2009
 6705TIP3    H141750   4.438   4.509   1.497 -3.2809 -0.4947 -0.4531
 6705TIP3    H241751   4.437   4.507   1.346  1.5033 -0.6505 -0.6164
 6706TIP3   OH241752   0.265   5.382   7.330  0.2087  0.6325  0.1472
 6706TIP3    H141753   0.207   5.326   7.382 -0.7877  0.4299 -1.1284
 6706TIP3    H241754   0.303   5.323   7.264  0.7070  1.0677  0.0327
 6707TIP3   OH241755   5.181   2.092   0.633 -0.1939  0.3010  0.4302
 6707TIP3    H141756   5.091   2.083   0.663  0.1908 -0.9013  1.3048
 6707TIP3    H241757   5.185   2.046   0.550 -0.1942 -0.4151  0.8201
 6708TIP3   OH241758   0.841   0.754   6.484 -0.1545 -0.2489  0.1091
 6708TIP3    H141759   0.930   0.774   6.512 -0.0708  1.2745 -1.1452
 6708TIP3    H241760   0.788   0.763   6.564  0.5380  0.7326  0.4765
 6709TIP3   OH241761   2.990   6.443   7.777  0.0260 -0.0024  0.1134
 6709TIP3    H141762   2.949   6.443   7.690 -0.1373  1.4588  0.1578
 6709TIP3    H241763   2.916   6.456   7.837  0.4009  1.9703  0.2400
 6710TIP3   OH241764   4.831   1.350   7.381 -0.9196  0.2103  0.2725
 6710TIP3    H141765   4.744   1.352   7.421 -0.1588 -0.4731  2.0845
 6710TIP3    H241766   4.863   1.261   7.396  0.9894  1.0672  1.7965
 6711TIP3   OH241767   4.176   3.538   0.898  0.2056 -0.3858 -0.1276
 6711TIP3    H141768   4.148   3.581   0.817  1.0410 -0.0007 -0.2265
 6711TIP3    H241769   4.208   3.610   0.952 -1.5573 -0.4579  1.0959
 6712TIP3   OH241770   1.465   2.016   1.264 -0.0870  1.0184 -1.0356
 6712TIP3    H141771   1.417   1.948   1.312  1.8634 -0.0876 -0.5649
 6712TIP3    H241772   1.523   2.055   1.328  0.0441  1.9633 -1.7090
 6713TIP3   OH241773   5.974   0.504   5.667  0.0728 -0.0673 -0.1466
 6713TIP3    H141774   5.943   0.591   5.641  1.2778  0.4044 -0.0663
 6713TIP3    H241775   5.961   0.451   5.589 -0.7262  0.1596 -0.1815
 6714TIP3   OH241776   2.660   5.737   5.989 -0.0400  0.4956  0.5153
 6714TIP3    H141777   2.640   5.672   6.056 -1.3591 -0.3062 -0.6036
 6714TIP3    H241778   2.750   5.715   5.961 -0.6430 -1.2477 -0.2188
 6715TIP3   OH241779   4.514   1.901   5.724  0.2284  0.1364 -0.3630
 6715TIP3    H141780   4.435   1.848   5.717  0.4624 -0.3120  0.3075
 6715TIP3    H241781   4.573   1.849   5.779  0.0312  1.5730  1.2927
 6716TIP3   OH241782   7.097   6.482   0.324 -0.2586 -0.3221 -0.4094
 6716TIP3    H141783   7.084   6.389   0.343 -2.4556  0.0910  0.4541
 6716TIP3    H241784   7.131   6.519   0.405 -1.5586 -0.0226  0.0299
 6717TIP3   OH241785   5.942   4.778   0.470  0.3806 -0.2672 -0.7641
 6717TIP3    H141786   5.925   4.685   0.455 -0.7875 -0.4424  1.2625
 6717TIP3    H241787   6.037   4.785   0.472  0.4906 -1.6299  0.0659
 6718TIP3   OH241788   2.911   5.940   6.126 -0.4239 -0.1985 -0.1624
 6718TIP3    H141789   2.821   5.969   6.111 -0.2976  0.1296 -0.3101
 6718TIP3    H241790   2.913   5.911   6.217 -1.0202 -1.5015 -0.5359
 6719TIP3   OH241791   2.341   4.362   0.861 -0.0321 -0.1372 -0.4618
 6719TIP3    H141792   2.351   4.452   0.832  0.2066 -0.1821 -0.5218
 6719TIP3    H241793   2.282   4.367   0.936 -1.1266 -0.0753 -1.2893
 6720TIP3   OH241794   5.902   1.626   1.674  0.0449  0.2475 -0.1712
 6720TIP3    H141795   5.835   1.558   1.668  0.2491  0.0847 -0.6961
 6720TIP3    H241796   5.960   1.597   1.745 -1.2370  1.1202  1.2910
 6721TIP3   OH241797   1.176   2.592   1.174 -0.1123  0.1645 -0.5562
 6721TIP3    H141798   1.124   2.619   1.249 -2.3967 -4.3351 -0.1748
 6721TIP3    H241799   1.260   2.563   1.211  0.2025  1.3532 -0.3031
 6722TIP3   OH241800   0.899   1.546   7.777 -0.4488 -0.1937 -0.4761
 6722TIP3    H141801   0.861   1.634   7.789 -0.2914 -0.3251  1.1442
 6722TIP3    H241802   0.864   1.495   7.850 -1.8619 -1.9807 -2.2912
 6723TIP3   OH241803   5.690   2.714   8.022  0.1069 -0.5484  0.7490
 6723TIP3    H141804   5.672   2.684   8.111  1.0092 -0.8684  0.8351
 6723TIP3    H241805   5.776   2.676   8.001  0.5159  0.6072  0.2399
 6724TIP3   OH241806   3.191   2.293   1.570 -0.5119  0.5438  0.3738
 6724TIP3    H141807   3.171   2.381   1.538 -1.0565  0.1825 -0.3283
 6724TIP3    H241808   3.115   2.240   1.543  0.3348 -0.3892 -0.2687
 6725TIP3   OH241809   2.268   0.833   0.207 -0.1815 -0.4965 -0.4508
 6725TIP3    H141810   2.330   0.906   0.208 -1.2813  0.4863  0.6386
 6725TIP3    H241811   2.301   0.774   0.141  0.2146  1.4799 -2.1243
 6726TIP3   OH241812   4.012   3.527   0.049  0.4522 -0.1342  0.1785
 6726TIP3    H141813   3.977   3.551  -0.037  0.6346 -1.4662 -0.2772
 6726TIP3    H241814   3.994   3.604   0.104  0.2639  0.7050 -1.0167
 6727TIP3   OH241815   4.131   1.071   7.441 -0.2004  0.1287 -0.8012
 6727TIP3    H141816   4.176   1.090   7.523 -0.2316 -1.2170 -0.4469
 6727TIP3    H241817   4.042   1.103   7.454 -0.2779 -0.3183 -0.2080
 6728TIP3   OH241818   3.478   1.249   0.548 -0.2571 -0.6325 -0.2894
 6728TIP3    H141819   3.418   1.179   0.572 -1.0259  0.3172  0.6515
 6728TIP3    H241820   3.421   1.322   0.525  0.5154 -0.5334 -2.0622
 6729TIP3   OH241821   1.840   1.734   6.809  0.2036  0.0629 -0.4215
 6729TIP3    H141822   1.921   1.720   6.760 -0.6468 -0.8191 -1.6676
 6729TIP3    H241823   1.814   1.646   6.838  1.0352  0.6190  2.3186
 6730TIP3   OH241824   4.826   3.870   1.822 -0.2407 -0.1959 -0.8253
 6730TIP3    H141825   4.766   3.796   1.816 -1.1381  0.4946 -0.6160
 6730TIP3    H241826   4.898   3.838   1.877 -0.2117 -1.1569 -1.4001
 6731TIP3   OH241827   5.021   1.282   0.497  0.1825  0.1138  0.1916
 6731TIP3    H141828   5.033   1.289   0.402  0.7134  0.8289  0.2995
 6731TIP3    H241829   4.942   1.333   0.515  2.0866  3.2733  0.5346
 6732TIP3   OH241830   1.158   4.897   5.443 -0.1398  0.0220  0.4084
 6732TIP3    H141831   1.209   4.874   5.365 -0.7002 -1.0885  0.3572
 6732TIP3    H241832   1.194   4.843   5.513 -0.5427  0.0109  0.6118
 6733TIP3   OH241833   5.581   4.990   1.033  0.4837 -0.3063  0.2294
 6733TIP3    H141834   5.586   4.906   1.080  3.0666 -0.5368 -0.3110
 6733TIP3    H241835   5.609   5.055   1.097 -1.8158  0.2674  0.7416
 6734TIP3   OH241836   3.290   1.287   7.300  0.1829  0.3237 -0.2727
 6734TIP3    H141837   3.365   1.306   7.357  0.3323 -0.4149 -0.2082
 6734TIP3    H241838   3.295   1.353   7.231 -0.3327  1.5949  0.8676
 6735TIP3   OH241839   4.263   4.269   8.031  0.0063 -0.0626 -0.2304
 6735TIP3    H141840   4.272   4.181   8.068  0.8452  0.7247  1.5280
 6735TIP3    H241841   4.293   4.259   7.940 -0.5968 -1.7299 -0.2813
 6736TIP3   OH241842   2.679   4.047   1.615  0.0815 -0.4694 -0.3157
 6736TIP3    H141843   2.625   4.003   1.680  0.2479  0.9939  0.8914
 6736TIP3    H241844   2.619   4.069   1.544 -0.3192 -1.2353 -0.2187
 6737TIP3   OH241845   0.801   4.507   0.855  0.1672  0.0346  1.2225
 6737TIP3    H141846   0.752   4.483   0.776 -0.9534  0.4343  1.7873
 6737TIP3    H241847   0.838   4.425   0.886 -0.6883 -0.3902  1.1468
 6738TIP3   OH241848   6.408   1.003   2.137 -1.1223 -0.1440  0.1568
 6738TIP3    H141849   6.424   1.016   2.230  1.1257 -1.3133 -0.0227
 6738TIP3    H241850   6.470   1.062   2.093 -0.5009 -1.3137 -0.5830
 6739TIP3   OH241851   6.191   5.414   1.682  0.5601  0.0955  0.2808
 6739TIP3    H141852   6.201   5.435   1.589  0.9217  0.9840  0.5096
 6739TIP3    H241853   6.175   5.320   1.683 -0.5125  0.2355 -0.7558
 6740TIP3   OH241854   4.202   0.728   1.472 -0.0377 -0.0114 -0.1731
 6740TIP3    H141855   4.250   0.734   1.555 -1.6383 -0.6317  0.8434
 6740TIP3    H241856   4.250   0.663   1.421  1.4305  0.9507 -0.1076
 6741TIP3   OH241857   5.957   3.846   6.278 -0.0117 -0.0455 -0.0483
 6741TIP3    H141858   5.906   3.789   6.221 -1.8500  2.3461 -0.9719
 6741TIP3    H241859   6.036   3.866   6.229  0.5330 -1.5215  0.1817
 6742TIP3   OH241860   4.079   5.833   1.767  0.4751 -0.0895  0.3840
 6742TIP3    H141861   4.108   5.830   1.858 -0.6491 -0.9874  0.7352
 6742TIP3    H241862   4.013   5.903   1.765  1.6390  1.0352 -0.1184
 6743TIP3   OH241863   3.381   3.204   6.450 -0.4590 -1.0294  0.8296
 6743TIP3    H141864   3.323   3.140   6.409 -1.7754  0.4296  0.3060
 6743TIP3    H241865   3.328   3.283   6.457  0.8328 -0.2364  2.2653
 6744TIP3   OH241866   6.523   5.218   0.937 -0.1330 -0.1015  0.5486
 6744TIP3    H141867   6.512   5.195   0.845  1.9731  2.0153 -0.3445
 6744TIP3    H241868   6.444   5.266   0.960  0.4880  1.8865 -1.1196
 6745TIP3   OH241869   3.970   6.879   6.397  0.3718 -0.5070 -0.0631
 6745TIP3    H141870   3.954   6.822   6.472  0.7492 -0.6637 -0.0994
 6745TIP3    H241871   3.925   6.837   6.324 -1.2670  0.4143  0.3717
 6746TIP3   OH241872   2.638   5.264   1.951 -0.0461 -0.2859 -0.0653
 6746TIP3    H141873   2.546   5.282   1.933  0.1923 -0.8697 -2.1197
 6746TIP3    H241874   2.649   5.285   2.044 -1.9037  1.1451 -0.1069
 6747TIP3   OH241875   2.617   0.153   0.919 -0.3944 -0.0808  0.1631
 6747TIP3    H141876   2.709   0.180   0.920 -0.3015 -0.1076  3.3154
 6747TIP3    H241877   2.576   0.208   0.853  1.7561  0.3084 -0.9438
 6748TIP3   OH241878   5.324   0.866   7.551  0.2280 -0.2085 -0.2693
 6748TIP3    H141879   5.328   0.957   7.582 -1.4732  0.0837 -0.8193
 6748TIP3    H241880   5.376   0.817   7.615  0.0873  0.9520  0.7781
 6749TIP3   OH241881   0.780   2.194   6.338 -0.3452 -1.3414 -0.2153
 6749TIP3    H141882   0.837   2.227   6.268 -2.0811  2.5759 -0.0134
 6749TIP3    H241883   0.724   2.130   6.295  1.2704 -2.0332 -1.4075
 6750TIP3   OH241884   3.698   2.254   0.330  0.3109 -0.3255  0.5162
 6750TIP3    H141885   3.781   2.290   0.361  1.3751 -2.8460  0.7969
 6750TIP3    H241886   3.689   2.170   0.376 -1.5174 -0.9467 -0.8368
 6751TIP3   OH241887   3.303   4.661   6.688  0.2254  0.6513 -0.2367
 6751TIP3    H141888   3.278   4.721   6.759 -1.3176  1.4976 -1.4459
 6751TIP3    H241889   3.345   4.588   6.733 -0.8869  1.0641  1.5837
 6752TIP3   OH241890   1.935   3.576   0.424 -0.0994 -0.1040 -0.1396
 6752TIP3    H141891   2.009   3.517   0.415  0.0337  0.2414 -1.5224
 6752TIP3    H241892   1.863   3.531   0.379 -0.0673  0.6360 -0.9656
 6753TIP3   OH241893   3.539   2.184   7.369  0.8111  0.0943 -0.6533
 6753TIP3    H141894   3.566   2.271   7.340  1.9474 -0.0477 -0.0871
 6753TIP3    H241895   3.601   2.125   7.326  1.4341 -0.2487  0.6473
 6754TIP3   OH241896   3.585   2.845   0.706  0.0427  0.2219  0.3367
 6754TIP3    H141897   3.574   2.757   0.744  1.7849 -0.2669 -0.1759
 6754TIP3    H241898   3.678   2.865   0.720 -0.0425  1.4398 -0.6899
 6755TIP3   OH241899   2.738   2.966   0.815 -0.1125  0.6803 -0.2231
 6755TIP3    H141900   2.694   2.969   0.730  0.9550  0.8298 -0.7874
 6755TIP3    H241901   2.762   2.874   0.827  0.4337  0.7871 -0.4607
 6756TIP3   OH241902   1.656   3.670   8.063  0.3690  0.4350  0.1160
 6756TIP3    H141903   1.687   3.597   8.010  1.3046  1.0290 -0.1936
 6756TIP3    H241904   1.669   3.641   8.153 -2.9632 -1.3291  0.1740
 6757TIP3   OH241905   0.231   3.578   0.448  0.3583  0.4525 -0.2888
 6757TIP3    H141906   0.225   3.641   0.376  0.4448  0.0016 -0.6898
 6757TIP3    H241907   0.186   3.500   0.416  0.1914  0.3293  0.2354
 6758TIP3   OH241908   3.732   5.473   6.679 -0.2656 -0.3091  0.9940
 6758TIP3    H141909   3.817   5.502   6.645 -1.1466  1.2529  0.0491
 6758TIP3    H241910   3.753   5.394   6.729  1.9840  0.8922  2.1050
 6759TIP3   OH241911   1.204   3.196   1.004  0.1842 -0.1493  0.1399
 6759TIP3    H141912   1.217   3.220   0.912 -1.1253  1.8505  0.4037
 6759TIP3    H241913   1.111   3.175   1.011  0.3368 -0.6098  0.9580
 6760TIP3   OH241914   1.997   4.796   5.720 -0.2436  0.0039 -0.3865
 6760TIP3    H141915   2.067   4.733   5.738  0.3442  0.4693 -0.9529
 6760TIP3    H241916   2.043   4.871   5.682 -1.2113 -0.2671 -2.2014
 6761TIP3   OH241917   2.555   4.535   0.212 -0.6208 -0.4013  0.0065
 6761TIP3    H141918   2.531   4.567   0.125  2.1866  0.6553 -0.5096
 6761TIP3    H241919   2.556   4.614   0.266 -0.4076 -0.7355  0.4875
 6762TIP3   OH241920   3.234   0.388   7.603 -0.2630 -0.4935  0.2408
 6762TIP3    H141921   3.324   0.365   7.581  0.1212  0.6194  0.5810
 6762TIP3    H241922   3.242   0.459   7.666 -1.3696 -1.2148  1.2545
 6763TIP3   OH241923   6.781   6.203   1.107 -0.1876  0.3281 -0.1441
 6763TIP3    H141924   6.704   6.254   1.132 -0.0523 -0.6813  2.7305
 6763TIP3    H241925   6.761   6.113   1.133  2.1748  0.1584  1.4916
 6764TIP3   OH241926   4.296   5.101   0.310  0.1987  0.1947  0.4119
 6764TIP3    H141927   4.371   5.161   0.321  0.1738  0.3761 -0.3401
 6764TIP3    H241928   4.251   5.134   0.232 -0.1694 -0.4377  0.3536
 6765TIP3   OH241929   4.139   6.796   1.268 -0.1777  0.4214  0.7504
 6765TIP3    H141930   4.181   6.877   1.239  1.8812 -0.7790  0.1613
 6765TIP3    H241931   4.058   6.791   1.217  0.9890  0.7883 -1.2222
 6766TIP3   OH241932   6.673   6.942   7.696 -0.7197 -0.2216  0.0704
 6766TIP3    H141933   6.704   7.015   7.750 -0.1497 -0.3697 -0.0445
 6766TIP3    H241934   6.639   6.879   7.759  0.8113 -0.8089  0.3577
 6767TIP3   OH241935   6.625   4.226   7.158  0.0118 -0.1786  0.0086
 6767TIP3    H141936   6.541   4.211   7.115 -0.3320  0.6075  0.3874
 6767TIP3    H241937   6.691   4.195   7.095 -0.5976 -2.3707  0.3608
 6768TIP3   OH241938   5.957   3.623   1.242  0.5239 -0.1136  0.4269
 6768TIP3    H141939   5.928   3.704   1.200  2.0881  0.8990  1.2100
 6768TIP3    H241940   5.880   3.593   1.291 -1.2935 -1.1786 -2.7283
 6769TIP3   OH241941   0.283   1.058   0.200 -0.2821 -0.8773  0.6815
 6769TIP3    H141942   0.359   1.006   0.225  0.2378  0.0243  1.0266
 6769TIP3    H241943   0.320   1.131   0.150 -1.1308 -1.6113 -1.0762
 6770TIP3   OH241944   6.697   5.062   1.494 -0.1133  0.0684  0.2463
 6770TIP3    H141945   6.688   5.008   1.573  1.5344  1.2487  1.3189
 6770TIP3    H241946   6.648   5.141   1.513 -2.3134 -0.8571 -1.2260
 6771TIP3   OH241947   1.048   4.302   0.384  0.3967  0.3353 -0.3679
 6771TIP3    H141948   1.008   4.261   0.307  1.8452 -2.1225  0.0823
 6771TIP3    H241949   1.134   4.332   0.354 -0.4129  2.7278 -0.5381
 6772TIP3   OH241950   6.404   6.959   0.662 -0.3665  0.2111 -0.0019
 6772TIP3    H141951   6.477   6.913   0.621 -0.0267  0.0661  0.7532
 6772TIP3    H241952   6.400   6.924   0.751 -1.9793 -0.5024 -0.3159
 6773TIP3   OH241953   3.633   6.089   7.960 -0.0985  0.0065 -0.1286
 6773TIP3    H141954   3.564   6.027   7.981  1.2701 -1.2570  0.8987
 6773TIP3    H241955   3.714   6.041   7.979  1.1745  0.6670 -3.2090
 6774TIP3   OH241956   2.613   5.119   8.068 -0.3309 -0.0444  0.4481
 6774TIP3    H141957   2.614   5.152   7.978  0.8489 -0.2078  0.3827
 6774TIP3    H241958   2.688   5.162   8.109 -0.8708  0.0418  1.3619
 6775TIP3   OH241959   0.750   0.823   0.619  0.2632 -0.1479  0.4762
 6775TIP3    H141960   0.674   0.828   0.677  0.6202 -0.7947  1.0223
 6775TIP3    H241961   0.786   0.911   0.618  0.0396 -0.0488  0.9549
 6776TIP3   OH241962   1.609   0.659   8.005 -0.4853  0.4961 -0.1223
 6776TIP3    H141963   1.571   0.681   7.920 -1.1996 -0.5167 -0.0745
 6776TIP3    H241964   1.620   0.564   8.003  0.8882  0.6201  0.3490
 6777TIP3   OH241965   0.294   5.634   7.936 -0.5578  0.1722 -0.3830
 6777TIP3    H141966   0.378   5.679   7.946 -0.5410 -0.0057  0.3512
 6777TIP3    H241967   0.301   5.557   7.993  0.0511 -1.7090 -2.8271
 6778TIP3   OH241968   6.557   3.599   1.429 -0.5318  0.0582 -0.4940
 6778TIP3    H141969   6.466   3.592   1.402 -0.2581 -0.1465 -1.4009
 6778TIP3    H241970   6.559   3.564   1.518 -1.4627  0.7609 -0.1921
 6779TIP3   OH241971   2.066   1.335   1.365 -0.1198  0.0128 -0.0671
 6779TIP3    H141972   2.154   1.303   1.344 -0.6816 -1.2564 -0.5458
 6779TIP3    H241973   2.079   1.389   1.444  1.1770  0.3794 -0.4974
 6780TIP3   OH241974   3.980   3.981   7.201  0.1805  0.2465 -0.9275
 6780TIP3    H141975   4.033   4.039   7.145  0.2255 -0.9916 -2.2251
 6780TIP3    H241976   3.890   4.000   7.176  0.2311 -0.9383 -2.1321
 6781TIP3   OH241977   1.500   4.921   6.226  0.2607  0.2758 -0.0325
 6781TIP3    H141978   1.575   4.886   6.178 -0.6898 -1.4794 -0.3294
 6781TIP3    H241979   1.434   4.852   6.222 -1.0218  1.3579  1.0869
 6782TIP3   OH241980   1.953   5.299   1.844  0.2723 -0.3133  0.5506
 6782TIP3    H141981   1.934   5.260   1.759 -2.8635  1.0023  0.5208
 6782TIP3    H241982   2.040   5.339   1.833 -0.2441  0.2235 -2.2076
 6783TIP3   OH241983   4.413   3.432   7.359  0.0714 -0.4550 -0.1472
 6783TIP3    H141984   4.469   3.375   7.410  0.8386  0.2848 -0.1491
 6783TIP3    H241985   4.334   3.443   7.412  0.4544 -0.4731  0.4236
 6784TIP3   OH241986   4.089   6.278   6.903 -0.3578 -0.4225  0.1297
 6784TIP3    H141987   4.105   6.265   6.997  0.0626  0.2005  0.1513
 6784TIP3    H241988   4.165   6.239   6.860 -0.3387 -0.3137  0.0660
 6785TIP3   OH241989   3.528   1.358   0.819 -0.0906  0.4098  0.3738
 6785TIP3    H141990   3.522   1.319   0.732  1.7398  0.3528  0.2366
 6785TIP3    H241991   3.489   1.445   0.809 -2.2659 -0.5327  0.1670
 6786TIP3   OH241992   1.410   1.834   1.724 -0.3782 -0.4592 -0.1451
 6786TIP3    H141993   1.370   1.833   1.811 -0.4565 -2.6314 -0.1510
 6786TIP3    H241994   1.364   1.765   1.676  0.9327 -0.5693 -1.3039
 6787TIP3   OH241995   2.243   4.041   5.937  0.0965 -0.2428 -0.3629
 6787TIP3    H141996   2.339   4.047   5.940  0.2534 -2.2466 -0.1663
 6787TIP3    H241997   2.226   3.959   5.891 -1.5465  0.1873 -0.5702
 6788TIP3   OH241998   0.079   7.078   0.610  0.1910 -0.1120  0.3830
 6788TIP3    H141999   0.129   7.096   0.689 -1.0320  0.1823  1.1166
 6788TIP3    H242000   0.101   7.149   0.550 -0.6874  1.0274  1.3621
 6789TIP3   OH242001   5.757   1.447   7.123  0.5253 -0.3104  0.0296
 6789TIP3    H142002   5.721   1.479   7.040 -1.6032  0.9085  1.3162
 6789TIP3    H242003   5.699   1.375   7.149  2.0902 -1.7125 -0.2437
 6790TIP3   OH242004   0.936   2.368   8.059  0.0398  0.7394 -0.0278
 6790TIP3    H142005   1.001   2.375   7.988  0.1443 -1.0108 -0.1430
 6790TIP3    H242006   0.984   2.329   8.132 -0.2275  1.9498  0.8273
 6791TIP3   OH242007   1.339   0.842   7.061  0.5807  0.2848 -0.4851
 6791TIP3    H142008   1.426   0.867   7.093  0.5670  0.0554 -0.2639
 6791TIP3    H242009   1.301   0.790   7.132 -0.4253  1.8310  0.1767
 6792TIP3   OH242010   0.635   3.660   6.543  0.2873  0.3304  0.1285
 6792TIP3    H142011   0.650   3.710   6.463 -0.4411  0.6212  0.1676
 6792TIP3    H242012   0.672   3.574   6.525  0.6540  0.5724 -0.3034
 6793TIP3   OH242013   6.248   0.899   7.933  0.2133  0.3605 -0.4221
 6793TIP3    H142014   6.182   0.964   7.957  1.2998  1.7268 -0.9691
 6793TIP3    H242015   6.258   0.844   8.010  0.2169  1.6773  0.5397
 6794TIP3   OH242016   2.509   2.943   0.984 -0.0067  0.2987 -0.7187
 6794TIP3    H142017   2.578   2.987   0.935 -0.2025 -0.2210 -1.4706
 6794TIP3    H242018   2.484   2.869   0.930 -1.0967  0.4267 -0.4202
 6795TIP3   OH242019   6.257   6.623   6.746  0.4985  0.2474  0.4260
 6795TIP3    H142020   6.210   6.671   6.813  0.0342 -1.6968  1.5665
 6795TIP3    H242021   6.337   6.592   6.789 -0.0721 -1.5022  0.3069
 6796TIP3   OH242022   2.188   6.167   1.083 -0.6375  0.9421  0.1038
 6796TIP3    H142023   2.252   6.187   1.015  1.2873  0.3820  1.6520
 6796TIP3    H242024   2.157   6.252   1.114 -0.1846  1.2284 -0.2312
 6797TIP3   OH242025   0.101   3.743   7.005 -0.2366 -0.2093  0.0998
 6797TIP3    H142026   0.018   3.780   6.976  0.5488 -1.0199 -3.6152
 6797TIP3    H242027   0.166   3.809   6.980  0.3917 -0.0139  2.0775
 6798TIP3   OH242028   0.915   3.711   6.618  0.6618 -0.7222  0.0980
 6798TIP3    H142029   0.994   3.662   6.642  0.1048 -1.7487 -0.1240
 6798TIP3    H242030   0.915   3.712   6.522  0.2526 -0.9720  0.0944
 6799TIP3   OH242031   4.119   3.064   0.694 -0.2001 -0.1000 -0.2535
 6799TIP3    H142032   4.070   3.133   0.739  1.3909  0.6349  0.4415
 6799TIP3    H242033   4.104   2.986   0.746 -1.0496 -0.0129 -0.3575
 6800TIP3   OH242034   2.736   4.230   6.845  1.1055  0.0966  0.5142
 6800TIP3    H142035   2.830   4.216   6.830  1.0090  0.3887 -0.4458
 6800TIP3    H242036   2.722   4.322   6.825  0.6109  0.0547  0.6553
 6801TIP3   OH242037   3.052   2.363   7.397  0.7609  0.6708  0.4557
 6801TIP3    H142038   3.095   2.423   7.458  2.7780  0.8170 -1.0241
 6801TIP3    H242039   3.033   2.417   7.321  0.8347 -0.1264 -0.1372
 6802TIP3   OH242040   3.057   6.389   5.685 -0.0202 -0.0469 -0.5987
 6802TIP3    H142041   3.105   6.395   5.602  1.2334 -1.4931 -0.0147
 6802TIP3    H242042   3.123   6.361   5.749 -0.5070  2.7991  1.3323
 6803TIP3   OH242043   6.746   0.299   1.992  0.1649  0.1410  0.0457
 6803TIP3    H142044   6.822   0.246   1.970  0.9228  1.1255  0.2094
 6803TIP3    H242045   6.671   0.244   1.971  0.9089 -1.5641  1.5909
 6804TIP3   OH242046   3.580   6.145   7.693  0.8514 -0.0445  0.4571
 6804TIP3    H142047   3.604   6.126   7.602  1.7971  1.0440  0.4544
 6804TIP3    H242048   3.616   6.072   7.743 -0.6540 -1.2479 -0.1304
 6805TIP3   OH242049   3.217   1.912   0.563  0.2147 -0.1681  0.0902
 6805TIP3    H142050   3.255   1.905   0.650 -2.2354  0.5115  1.2789
 6805TIP3    H242051   3.292   1.931   0.506  1.7782  0.0312  2.1046
 6806TIP3   OH242052   6.775   2.327   7.415 -0.3746  0.1655  0.3369
 6806TIP3    H142053   6.694   2.371   7.389 -1.3575 -0.9841  1.3506
 6806TIP3    H242054   6.799   2.274   7.338 -1.0783 -0.1707  0.3430
 6807TIP3   OH242055   3.603   5.386   6.448 -0.0759  0.3023  0.2001
 6807TIP3    H142056   3.529   5.441   6.423 -0.0767  0.5787  0.7994
 6807TIP3    H242057   3.627   5.416   6.536 -0.1084 -0.6815  0.5598
 6808TIP3   OH242058   4.636   4.421   8.018  0.1545 -0.0136  0.0786
 6808TIP3    H142059   4.573   4.493   8.015  2.1078  1.7587 -0.5330
 6808TIP3    H242060   4.599   4.359   8.081 -1.8714  1.2265  0.1776
 6809TIP3   OH242061   1.547   5.084   1.608 -0.3095  0.2286 -0.3645
 6809TIP3    H142062   1.623   5.028   1.623 -0.8355 -0.6058 -0.7090
 6809TIP3    H242063   1.577   5.172   1.630  0.3540 -0.2669  0.8420
 6810TIP3   OH242064   4.895   7.070   1.448 -0.0043 -0.1213 -0.1218
 6810TIP3    H142065   4.836   7.144   1.463 -1.2375 -0.8840 -1.0143
 6810TIP3    H242066   4.884   7.015   1.526  0.6759  0.4662  0.3984
 6811TIP3   OH242067   0.554   3.923   7.278  0.0669 -0.0146  0.4613
 6811TIP3    H142068   0.499   3.995   7.311  0.0544  0.2264 -0.0731
 6811TIP3    H242069   0.518   3.844   7.318 -0.1000  0.2441  0.8257
 6812TIP3   OH242070   5.253   6.597   6.290 -0.0097  0.3070  0.0392
 6812TIP3    H142071   5.223   6.659   6.223 -0.0599 -0.6913 -0.8793
 6812TIP3    H242072   5.339   6.629   6.315  0.1022  0.5719 -0.6656
 6813TIP3   OH242073   6.992   1.170   1.050  0.1704 -0.3929  0.3607
 6813TIP3    H142074   7.081   1.189   1.022 -0.8380  2.4385 -1.3994
 6813TIP3    H242075   6.962   1.101   0.991  0.3652  0.5615 -0.8888
 6814TIP3   OH242076   1.402   5.413   6.141  0.5760  0.3459  0.6515
 6814TIP3    H142077   1.385   5.332   6.190  1.4452 -0.1880  0.1036
 6814TIP3    H242078   1.497   5.422   6.142  0.5224  1.0204  0.1513
 6815TIP3   OH242079   0.376   6.770   5.815 -0.2732 -0.0837  0.7130
 6815TIP3    H142080   0.339   6.789   5.901 -0.8131 -0.0877  0.4852
 6815TIP3    H242081   0.342   6.683   5.793 -0.3728  0.0446  0.3638
 6816TIP3   OH242082   5.189   3.167   2.088 -0.4165  0.0594 -0.8287
 6816TIP3    H142083   5.121   3.234   2.078 -0.0357  0.6613  0.4556
 6816TIP3    H242084   5.167   3.124   2.171  0.3307 -0.2566 -0.7931
 6817TIP3   OH242085   2.697   1.580   1.445 -0.1685 -0.1563  0.7650
 6817TIP3    H142086   2.682   1.643   1.374  1.8663 -0.1515  0.2678
 6817TIP3    H242087   2.651   1.501   1.416  2.6813 -1.0313 -1.9780
 6818TIP3   OH242088   1.561   1.105   0.563 -0.2723  0.7662 -0.0297
 6818TIP3    H142089   1.466   1.111   0.569 -0.3008  1.0267 -0.6898
 6818TIP3    H242090   1.592   1.127   0.651 -0.9103 -1.7985  0.9101
 6819TIP3   OH242091   0.458   1.415   0.571 -0.4914  0.1560 -0.0062
 6819TIP3    H142092   0.450   1.414   0.476 -2.3669 -0.1159  0.1056
 6819TIP3    H242093   0.552   1.413   0.588 -0.1240  0.2650 -1.8432
 6820TIP3   OH242094   6.687   1.195   1.267  0.2268 -0.4017  0.0759
 6820TIP3    H142095   6.661   1.277   1.225  1.2958  1.0214  2.0168
 6820TIP3    H242096   6.710   1.137   1.195 -0.2888  1.0863 -1.3520
 6821TIP3   OH242097   0.995   6.962   7.423 -0.4346  0.0047  0.4394
 6821TIP3    H142098   0.974   6.919   7.506 -1.6473  0.8900  0.6145
 6821TIP3    H242099   0.911   6.997   7.392  0.4169  1.9097  0.1309
 6822TIP3   OH242100   6.613   4.357   6.241  0.4520 -1.0095 -0.6310
 6822TIP3    H142101   6.526   4.338   6.206  1.2430 -1.0170 -2.7372
 6822TIP3    H242102   6.639   4.438   6.197  0.8098 -0.0060  1.3429
 6823TIP3   OH242103   4.659   0.177   1.230  0.4326  0.1849  0.7227
 6823TIP3    H142104   4.566   0.196   1.243  0.1348 -1.1407  0.7088
 6823TIP3    H242105   4.666   0.082   1.242  1.4297 -0.0473 -1.2315
 6824TIP3   OH242106   5.957   1.640   1.004 -0.5127 -0.2821 -0.1978
 6824TIP3    H142107   5.932   1.732   1.000 -0.3502 -0.2285  0.0500
 6824TIP3    H242108   5.901   1.602   1.071  0.2917 -0.0892  0.5971
 6825TIP3   OH242109   0.190   1.069   5.730  0.3004 -0.1484 -0.3379
 6825TIP3    H142110   0.154   1.015   5.660 -1.1817 -1.3323  1.2464
 6825TIP3    H242111   0.115   1.120   5.761  0.9545  0.4454  0.2853
 6826TIP3   OH242112   0.703   5.979   6.729 -0.0698  0.0084  0.0815
 6826TIP3    H142113   0.743   5.987   6.642  0.7909  1.5164  0.5677
 6826TIP3    H242114   0.646   6.056   6.737 -1.6031 -1.0961  0.1630
 6827TIP3   OH242115   5.369   3.817   0.040 -0.7022  0.1635 -0.1197
 6827TIP3    H142116   5.315   3.818  -0.040 -0.0339  0.0417 -0.5798
 6827TIP3    H242117   5.452   3.778   0.012 -0.5074  0.0049  0.6686
 6828TIP3   OH242118   4.871   5.355   0.172  0.6336  0.8908  0.4177
 6828TIP3    H142119   4.780   5.383   0.163  0.3727  1.4382  3.6380
 6828TIP3    H242120   4.867   5.260   0.163 -0.1019  0.9652 -0.2201
 6829TIP3   OH242121   0.972   0.060   0.168 -0.3253  0.3748  0.0758
 6829TIP3    H142122   1.047  -0.000   0.166 -0.8023 -0.2411  0.5601
 6829TIP3    H242123   0.952   0.075   0.075  1.2227  1.6137 -0.1059
 6830TIP3   OH242124   6.077   4.358   6.203  0.3273 -0.1660 -0.5952
 6830TIP3    H142125   6.026   4.290   6.246 -1.2384  0.9167 -0.6384
 6830TIP3    H242126   6.042   4.363   6.114  0.5745  0.5395 -0.6621
 6831TIP3   OH242127   6.650   4.646   6.374  0.3759 -0.3834 -0.1425
 6831TIP3    H142128   6.639   4.625   6.281 -0.7340  0.6945 -0.2887
 6831TIP3    H242129   6.561   4.647   6.408  0.6086  1.1426  0.4856
 6832TIP3   OH242130   0.717   1.440   0.678 -0.0136 -0.0852  0.0646
 6832TIP3    H142131   0.705   1.375   0.747  0.1366 -0.0822  0.0926
 6832TIP3    H242132   0.802   1.480   0.696 -0.9531  1.5193  1.2229
 6833TIP3   OH242133   5.024   4.216   0.483 -0.2899  0.0336  0.0600
 6833TIP3    H142134   4.945   4.171   0.454  0.2837 -1.8465  1.2861
 6833TIP3    H242135   4.993   4.279   0.548 -0.8339 -0.4496  0.2772
 6834TIP3   OH242136   0.798   4.008   7.969  0.0576  0.2203 -0.0563
 6834TIP3    H142137   0.724   3.975   8.019 -1.6696  1.1175 -1.8642
 6834TIP3    H242138   0.787   3.969   7.882  2.4263 -0.5780 -0.0683
 6835TIP3   OH242139   2.877   4.278   0.694 -0.9492 -0.1579  0.1467
 6835TIP3    H142140   2.920   4.227   0.763 -1.9774 -1.7851 -0.3532
 6835TIP3    H242141   2.786   4.286   0.723 -1.4629 -1.1089 -1.0996
 6836TIP3   OH242142   2.956   2.098   1.531 -0.2036  0.4153  0.0866
 6836TIP3    H142143   3.017   2.035   1.568 -1.3674 -0.1222  1.1558
 6836TIP3    H242144   2.896   2.045   1.478  0.1745  0.9217 -0.8771
 6837TIP3   OH242145   7.061   1.451   1.095  0.0321 -0.1057 -0.5021
 6837TIP3    H142146   7.030   1.361   1.086 -1.3723  0.4562 -1.5567
 6837TIP3    H242147   7.154   1.442   1.115 -0.3112 -1.8033  0.5074
 6838TIP3   OH242148   2.393   6.041   7.939  0.0160 -0.3725 -0.0878
 6838TIP3    H142149   2.316   6.090   7.969  0.0877 -1.7315  2.5754
 6838TIP3    H242150   2.358   5.957   7.910  0.0270  0.6619 -3.6129
 6839TIP3   OH242151   0.781   0.994   2.140 -0.6987 -0.4134  0.9344
 6839TIP3    H142152   0.851   1.032   2.087 -1.2534 -0.6610  0.0030
 6839TIP3    H242153   0.816   0.994   2.229  0.1185  0.3320  0.6305
 6840TIP3   OH242154   5.870   1.249   7.590 -0.9378 -0.3969  0.2040
 6840TIP3    H142155   5.881   1.199   7.509 -1.4265 -0.0503 -0.0817
 6840TIP3    H242156   5.796   1.208   7.634 -1.4172  0.1308 -0.0875
 6841TIP3   OH242157   1.201   5.674   8.056 -0.7444  0.5519 -0.0996
 6841TIP3    H142158   1.178   5.585   8.030  3.1034 -0.9948  1.1325
 6841TIP3    H242159   1.232   5.715   7.975  2.1445 -1.0346  0.0536
 6842TIP3   OH242160   5.699   2.019   0.253 -0.3878 -0.0998  0.0424
 6842TIP3    H142161   5.685   2.101   0.300  0.1508  0.8040 -1.3137
 6842TIP3    H242162   5.775   2.035   0.198 -0.4510 -1.4154 -0.4719
 6843TIP3   OH242163   3.590   3.464   6.525  0.5183 -0.5313  0.1388
 6843TIP3    H142164   3.586   3.371   6.504 -1.0454 -0.3381 -0.4766
 6843TIP3    H242165   3.519   3.504   6.475  1.1181  0.9909  0.4494
 6844TIP3   OH242166   0.458   0.408   6.543 -0.2734 -0.2365  0.4043
 6844TIP3    H142167   0.451   0.459   6.463  0.2522 -1.5061 -0.4924
 6844TIP3    H242168   0.499   0.326   6.515  1.1572 -0.1948  2.2022
 6845TIP3   OH242169   4.188   6.419   1.427 -0.3836  0.3191  0.0109
 6845TIP3    H142170   4.115   6.362   1.449  0.4000 -0.9441 -0.5298
 6845TIP3    H242171   4.215   6.457   1.510 -0.6250 -0.4937  0.4716
 6846TIP3   OH242172   5.460   3.449   7.124  0.5121 -0.0319 -0.0216
 6846TIP3    H142173   5.528   3.451   7.057  1.8403  0.4954  1.2702
 6846TIP3    H242174   5.414   3.366   7.110 -0.2602  0.7229 -2.4782
 6847TIP3   OH242175   3.325   4.172   0.478  0.0250  0.0894 -0.6374
 6847TIP3    H142176   3.352   4.221   0.400 -0.7153  1.4916 -0.0522
 6847TIP3    H242177   3.387   4.198   0.546  0.9852 -1.5256 -0.8528
 6848TIP3   OH242178   6.703   1.806   7.736 -0.3339 -0.2122  0.0231
 6848TIP3    H142179   6.641   1.879   7.740 -0.1495 -0.0934  1.1481
 6848TIP3    H242180   6.745   1.806   7.822  0.2953 -1.1055 -0.2696
 6849TIP3   OH242181   2.015   4.418   6.944 -0.9598 -0.0099  0.1179
 6849TIP3    H142182   1.964   4.342   6.920 -0.7023 -0.0077 -0.4454
 6849TIP3    H242183   1.999   4.429   7.038  0.1758 -1.6524  0.5458
 6850TIP3   OH242184   3.448   3.614   6.128 -0.4646  0.1828 -0.2783
 6850TIP3    H142185   3.425   3.552   6.059  1.2304  0.2486 -0.9533
 6850TIP3    H242186   3.525   3.660   6.094  1.4646 -0.9226  2.3225
 6851TIP3   OH242187   3.911   5.233   2.476 -0.5364  0.4279 -0.4289
 6851TIP3    H142188   3.867   5.317   2.463 -0.7299  0.1147 -1.9295
 6851TIP3    H242189   3.993   5.256   2.521 -1.2569  1.2349  0.5200
 6852TIP3   OH242190   6.923   1.662   6.642  0.4504 -0.8297  0.5011
 6852TIP3    H142191   6.885   1.705   6.565  1.4897  0.4592  0.6770
 6852TIP3    H242192   6.962   1.582   6.607 -0.7022 -1.2119  0.0164
 6853TIP3   OH242193   3.218   0.866   1.173 -0.0600  0.1488 -0.0334
 6853TIP3    H142194   3.226   0.784   1.124 -0.3907  0.0346  0.1012
 6853TIP3    H242195   3.129   0.864   1.208  0.2634  0.0845  0.8185
 6854TIP3   OH242196   3.622   3.279   0.738  0.3458  0.1001 -0.4424
 6854TIP3    H142197   3.588   3.362   0.770  2.6769  0.7102  0.6352
 6854TIP3    H242198   3.588   3.214   0.799 -1.3030  0.2247 -1.1591
 6855TIP3   OH242199   5.903   3.367   0.812  0.4254 -0.3652 -0.3725
 6855TIP3    H142200   5.810   3.390   0.805  0.2834 -0.4167  1.1432
 6855TIP3    H242201   5.920   3.315   0.733 -0.5347  0.5885 -1.2364
 6856TIP3   OH242202   0.868   2.541   1.516  0.8102 -0.0714 -1.3350
 6856TIP3    H142203   0.928   2.467   1.522 -2.0673 -2.6537 -2.1861
 6856TIP3    H242204   0.796   2.518   1.574 -0.4959  1.7666 -2.1471
 6857TIP3   OH242205   0.172   5.350   1.726 -0.2028 -0.1242 -0.5018
 6857TIP3    H142206   0.180   5.423   1.788 -0.0671 -0.7359  0.2153
 6857TIP3    H242207   0.078   5.340   1.712 -0.2121  0.3437 -0.7977
 6858TIP3   OH242208   1.539   1.393   7.583  0.0601 -0.0152  0.0532
 6858TIP3    H142209   1.628   1.367   7.559 -0.0355  1.1320 -1.7870
 6858TIP3    H242210   1.549   1.481   7.619 -0.3238  0.1825 -0.3082
 6859TIP3   OH242211   2.445   1.003   6.840  0.0792  0.1502  0.0307
 6859TIP3    H142212   2.476   0.991   6.750  0.7782 -0.9129  0.3870
 6859TIP3    H242213   2.416   0.916   6.866 -1.0773  0.6644  0.4968
 6860TIP3   OH242214   0.989   6.832   1.677 -0.4069  0.4290 -0.1526
 6860TIP3    H142215   0.929   6.904   1.659 -0.0577  0.4313 -1.4327
 6860TIP3    H242216   0.961   6.763   1.617 -1.1489 -0.7722  1.5070
 6861TIP3   OH242217   5.565   1.908   1.971  0.0090  0.2519  0.3712
 6861TIP3    H142218   5.479   1.891   2.012 -0.1162  0.1508  0.0685
 6861TIP3    H242219   5.575   2.003   1.976  0.3227  0.1876  1.2885
 6862TIP3   OH242220   4.356   1.411   5.885  0.2000  0.4322  0.2853
 6862TIP3    H142221   4.262   1.427   5.888  0.0670 -0.3780  2.7785
 6862TIP3    H242222   4.368   1.352   5.810 -0.9658  1.9985 -1.1992
 6863TIP3   OH242223   4.697   2.963   6.647 -0.3012 -0.5727 -0.0947
 6863TIP3    H142224   4.677   3.052   6.674 -1.0792 -0.9904  0.7590
 6863TIP3    H242225   4.697   2.966   6.551 -1.8035  0.0449 -0.0979
 6864TIP3   OH242226   6.067   3.595   8.087 -0.1170 -0.2155 -0.0945
 6864TIP3    H142227   6.107   3.580   8.173  0.3180  0.9524 -0.0697
 6864TIP3    H242228   5.982   3.633   8.106 -0.9463 -1.9591 -0.1638
 6865TIP3   OH242229   3.886   1.163   7.429  0.0128  0.8806  0.0904
 6865TIP3    H142230   3.827   1.210   7.370  1.5243  2.3452 -0.3191
 6865TIP3    H242231   3.856   1.187   7.517 -1.4430 -0.2910 -0.0431
 6866TIP3   OH242232   2.084   6.184   6.319  0.1522  0.2527 -0.0586
 6866TIP3    H142233   2.059   6.092   6.317 -0.2036  0.3448 -0.0672
 6866TIP3    H242234   2.140   6.195   6.242  0.6432 -0.0760  0.2518
 6867TIP3   OH242235   1.588   1.213   6.428 -0.1526  0.2439  0.2529
 6867TIP3    H142236   1.542   1.135   6.397  0.8682 -0.0246 -0.6319
 6867TIP3    H242237   1.539   1.286   6.390  0.7901 -0.0682 -1.6684
 6868TIP3   OH242238   4.992   0.634   1.656  0.5030 -0.1918 -0.0672
 6868TIP3    H142239   5.049   0.703   1.623  0.1943 -0.2140 -0.6631
 6868TIP3    H242240   4.929   0.619   1.585  1.8197 -2.5270 -0.8587
 6869TIP3   OH242241   1.912   6.889   0.037 -0.4211 -0.0371 -0.8658
 6869TIP3    H142242   1.846   6.951   0.067 -1.2550 -0.9543 -0.7659
 6869TIP3    H242243   1.966   6.939  -0.025  0.6180  1.5681  1.2244
 6870TIP3   OH242244   7.100   3.225   1.897 -0.2987 -0.4932  0.2794
 6870TIP3    H142245   7.021   3.228   1.951 -0.0475  0.3898  0.6092
 6870TIP3    H242246   7.137   3.313   1.903 -0.4435 -0.2562 -1.6269
 6871TIP3   OH242247   6.285   2.961   6.654  0.4448  0.2344 -0.2843
 6871TIP3    H142248   6.342   2.946   6.579  0.8840  0.8466 -0.0712
 6871TIP3    H242249   6.282   2.876   6.699 -0.9013 -0.5361 -1.7141
 6872TIP3   OH242250   6.935   6.318   2.224 -0.0188 -0.1452 -0.5914
 6872TIP3    H142251   7.015   6.286   2.267  0.5525 -1.1459 -2.3012
 6872TIP3    H242252   6.966   6.355   2.142 -1.3376 -0.8760 -1.4421
 6873TIP3   OH242253   5.727   6.717   1.488 -0.5589  0.4156  0.0898
 6873TIP3    H142254   5.675   6.796   1.475 -1.8817 -0.4819 -0.2731
 6873TIP3    H242255   5.784   6.713   1.411  0.4304  1.6665  0.7253
 6874TIP3   OH242256   6.634   3.555   7.439 -0.5555  0.2296 -0.0644
 6874TIP3    H142257   6.577   3.547   7.515 -1.6372 -2.5332 -1.0463
 6874TIP3    H242258   6.580   3.598   7.373 -0.9383 -0.7805 -0.4279
 6875TIP3   OH242259   6.661   1.416   1.056 -0.6484 -0.6334 -0.5320
 6875TIP3    H142260   6.741   1.468   1.041  1.0977 -2.5032  1.6193
 6875TIP3    H242261   6.662   1.350   0.986  0.3443 -1.3258  0.1068
 6876TIP3   OH242262   0.227   1.352   1.050  0.1073  0.0735 -0.0409
 6876TIP3    H142263   0.271   1.401   0.981 -0.8235  0.7147 -0.2007
 6876TIP3    H242264   0.196   1.272   1.007 -1.6424  1.0726 -0.7439
 6877TIP3   OH242265   5.864   6.799   7.379 -0.3570  0.1226 -0.3199
 6877TIP3    H142266   5.771   6.790   7.360 -0.9776  3.3369  0.5046
 6877TIP3    H242267   5.899   6.849   7.304  0.8069 -1.2918 -0.7639
 6878TIP3   OH242268   5.773   2.008   7.488  0.0883  0.1368  0.5500
 6878TIP3    H142269   5.863   1.981   7.504  0.5648  1.5023  0.3011
 6878TIP3    H242270   5.762   2.088   7.539 -0.9689  0.0129  0.5387
 6879TIP3   OH242271   2.922   4.529   7.134 -0.9614 -0.5005 -0.5619
 6879TIP3    H142272   2.963   4.479   7.063  1.6527  0.6619 -0.0159
 6879TIP3    H242273   2.877   4.601   7.089 -1.3519 -1.0910 -1.1370
 6880TIP3   OH242274   4.785   4.545   0.499 -0.0118  0.1682 -0.6227
 6880TIP3    H142275   4.709   4.517   0.550 -0.4781  0.1001 -1.3460
 6880TIP3    H242276   4.846   4.472   0.505 -0.0693  0.1524 -0.1828
 6881TIP3   OH242277   2.440   6.245   1.436 -0.6538  0.5282 -0.6517
 6881TIP3    H142278   2.444   6.276   1.345 -0.1309  1.0793 -0.4445
 6881TIP3    H242279   2.477   6.316   1.488  3.7644 -1.5284 -0.4503
 6882TIP3   OH242280   6.454   5.677   1.223  0.2773 -0.1805 -0.1028
 6882TIP3    H142281   6.488   5.662   1.135 -1.5211 -2.7706 -0.4645
 6882TIP3    H242282   6.361   5.696   1.209  0.4721  2.1252  1.1389
 6883TIP3   OH242283   4.246   2.720   0.264  0.5683 -0.1913 -0.0998
 6883TIP3    H142284   4.323   2.669   0.237  0.8000 -1.2246  2.2509
 6883TIP3    H242285   4.279   2.809   0.275  1.4198 -0.5842  0.7101
 6884TIP3   OH242286   6.737   0.568   1.825 -0.1619 -0.2880  0.2250
 6884TIP3    H142287   6.747   0.509   1.900  1.8909  0.6647  0.7701
 6884TIP3    H242288   6.652   0.609   1.838 -0.9010 -1.8823  0.7206
 6885TIP3   OH242289   6.704   1.027   1.057 -0.7489 -0.3230  0.4712
 6885TIP3    H142290   6.736   0.965   1.122 -1.3185 -0.2131  0.8590
 6885TIP3    H242291   6.610   1.011   1.051 -0.7246 -0.2625 -0.2499
 6886TIP3   OH242292   3.712   6.989   7.658  0.2813  0.5571 -0.5508
 6886TIP3    H142293   3.661   7.015   7.735 -1.5764 -1.0223 -1.1632
 6886TIP3    H242294   3.803   6.989   7.689 -0.4980 -1.6043  2.1899
 6887TIP3   OH242295   1.222   1.022   6.010 -0.5356  0.5698 -0.2338
 6887TIP3    H142296   1.219   1.107   5.965  0.0474  1.0480  0.6023
 6887TIP3    H242297   1.198   1.043   6.101  1.9523  0.2663  0.5722
 6888TIP3   OH242298   1.216   4.945   1.325  0.4326 -0.3520 -0.4087
 6888TIP3    H142299   1.193   4.919   1.235 -1.9458  0.1712 -0.0342
 6888TIP3    H242300   1.216   4.863   1.373  1.5420 -0.6164 -0.8434
 6889TIP3   OH242301   4.606   5.087   6.258  0.3379 -0.4943 -0.3829
 6889TIP3    H142302   4.642   5.055   6.341  0.0487  0.6022  0.1833
 6889TIP3    H242303   4.599   5.008   6.204 -0.2518 -1.3732  0.9093
 6890TIP3   OH242304   3.964   6.780   7.946  0.2940  0.1481 -0.3445
 6890TIP3    H142305   4.027   6.719   7.986 -2.3473 -1.3394  1.8519
 6890TIP3    H242306   3.956   6.750   7.856  1.8584 -0.3286 -0.3577
 6891TIP3   OH242307   6.242   1.725   7.562  0.3077 -0.6993 -0.4488
 6891TIP3    H142308   6.197   1.656   7.512 -0.4225 -0.2854 -0.3867
 6891TIP3    H242309   6.326   1.736   7.518  0.9338 -2.4084  0.2105
 6892TIP3   OH242310   6.106   6.847   0.502 -0.0991  0.1444  0.3278
 6892TIP3    H142311   6.099   6.779   0.435 -0.0746  0.0598  0.4110
 6892TIP3    H242312   6.191   6.832   0.543 -1.1885 -1.4927  2.1906
 6893TIP3   OH242313   7.090   6.169   0.128 -0.5035 -0.0322  0.2164
 6893TIP3    H142314   7.127   6.204   0.209  1.1866  0.8555 -0.8635
 6893TIP3    H242315   7.139   6.213   0.059 -2.5504 -0.0382 -1.3338
 6894TIP3   OH242316   6.453   0.698   2.136 -0.3900  0.0603 -0.8728
 6894TIP3    H142317   6.365   0.735   2.127 -0.6214 -0.8242 -2.5547
 6894TIP3    H242318   6.490   0.701   2.048  1.5346  0.9946 -0.0983
 6895TIP3   OH242319   4.424   2.686   1.734  0.0864  0.2982 -0.0056
 6895TIP3    H142320   4.503   2.677   1.680  0.5835 -1.8162  0.9505
 6895TIP3    H242321   4.455   2.672   1.824 -1.3859 -0.6465  0.3810
 6896TIP3   OH242322   6.715   3.314   7.178  0.6374  0.0714 -0.2222
 6896TIP3    H142323   6.754   3.232   7.150  1.6039  0.1970  0.6852
 6896TIP3    H242324   6.736   3.321   7.271 -0.4319  0.7927 -0.0076
 6897TIP3   OH242325   0.637   1.986   6.227 -0.5776 -0.1887  0.3224
 6897TIP3    H142326   0.641   1.930   6.150  1.2305 -1.1960  1.0656
 6897TIP3    H242327   0.629   1.925   6.301 -1.5451  0.7135  0.9862
 6898TIP3   OH242328   0.995   3.969   0.715 -0.1191  0.4537 -0.1118
 6898TIP3    H142329   1.058   3.934   0.778 -0.7978 -0.3973  0.1203
 6898TIP3    H242330   0.914   3.980   0.765 -0.5515  0.1654 -0.7252
 6899TIP3   OH242331   6.413   0.765   6.499 -1.2120  0.0998  0.0159
 6899TIP3    H142332   6.474   0.809   6.439 -0.8325  1.4569  1.3216
 6899TIP3    H242333   6.451   0.678   6.512 -0.6149  0.2403 -0.7126
 6900TIP3   OH242334   0.984   7.006   1.011 -0.3862 -0.3419 -0.1541
 6900TIP3    H142335   0.968   6.932   0.952  0.4061  0.3473 -1.2829
 6900TIP3    H242336   0.898   7.047   1.020 -0.8607 -1.4619  0.5952
 6901TIP3   OH242337   2.191   3.646   7.820  0.2549 -0.3446 -0.2302
 6901TIP3    H142338   2.217   3.703   7.891 -2.1087 -0.6852  1.0260
 6901TIP3    H242339   2.224   3.688   7.741  0.8022  1.3699  0.8722
 6902TIP3   OH242340   0.548   1.294   6.066  0.2380  0.1435  0.5347
 6902TIP3    H142341   0.471   1.239   6.081  1.5606 -2.2039 -0.7247
 6902TIP3    H242342   0.623   1.235   6.076  1.9515  2.3635  1.9063
 6903TIP3   OH242343   2.500   0.431   7.489  0.8251  0.6583  0.5410
 6903TIP3    H142344   2.457   0.472   7.415 -1.3192  0.7421  1.7563
 6903TIP3    H242345   2.592   0.423   7.462 -0.1154 -0.7970 -2.7564
 6904TIP3   OH242346   1.801   2.050   1.797 -0.5469 -0.0190  0.1991
 6904TIP3    H142347   1.778   2.109   1.725  1.1262 -0.7507 -0.9979
 6904TIP3    H242348   1.853   1.981   1.756  0.1480 -0.6628  2.0576
 6905TIP3   OH242349   1.944   3.937   6.867 -0.0239  0.4033  0.2268
 6905TIP3    H142350   1.977   3.977   6.948 -0.3484 -0.5114  0.8360
 6905TIP3    H242351   1.944   4.007   6.803 -0.9838  1.4887  1.3651
 6906TIP3   OH242352   5.343   7.011   8.096  0.3481  0.3614  0.1824
 6906TIP3    H142353   5.266   7.038   8.146 -0.5770 -0.1842 -0.8861
 6906TIP3    H242354   5.341   6.916   8.098  1.0201  0.3399  0.1680
 6907TIP3   OH242355   0.401   0.580   6.189  0.6476 -0.2556  0.0663
 6907TIP3    H142356   0.407   0.496   6.144 -1.1069  0.5172 -1.7462
 6907TIP3    H242357   0.434   0.643   6.125  4.0393  0.3606  2.1422
 6908TIP3   OH242358   2.275   6.240   1.781 -0.2316 -0.6270 -0.4454
 6908TIP3    H142359   2.359   6.277   1.807  1.0527 -3.1641 -0.6973
 6908TIP3    H242360   2.262   6.165   1.840 -2.6644  0.0624  0.0135
 6909TIP3   OH242361   4.584   4.153   6.774  0.2693 -0.0644 -0.0985
 6909TIP3    H142362   4.579   4.234   6.722 -1.1576 -0.8326 -1.2182
 6909TIP3    H242363   4.586   4.083   6.709  0.8821 -0.9795  0.8674
 6910TIP3   OH242364   6.968   3.697   1.570 -0.3837  0.2564  0.3057
 6910TIP3    H142365   6.915   3.687   1.491 -0.1670  1.5061 -0.0257
 6910TIP3    H242366   7.038   3.756   1.543 -0.9040  1.5610  1.7179
 6911TIP3   OH242367   1.011   1.586   1.241 -0.3198  0.1417  0.1437
 6911TIP3    H142368   0.976   1.648   1.177  0.9690 -0.5397 -1.2764
 6911TIP3    H242369   1.065   1.641   1.299  0.0676  0.5023 -0.5418
 6912TIP3   OH242370   1.355   3.983   6.826 -0.2057 -0.5114 -0.1692
 6912TIP3    H142371   1.385   3.988   6.917  0.1289  0.4979 -0.3187
 6912TIP3    H242372   1.436   3.972   6.775 -0.4498 -1.8014 -0.3058
 6913TIP3   OH242373   1.347   1.769   6.810  0.4489 -0.2390 -0.7201
 6913TIP3    H142374   1.371   1.705   6.742 -0.4579  0.5115 -1.7785
 6913TIP3    H242375   1.261   1.801   6.783  0.8993  1.4556 -0.2110
 6914TIP3   OH242376   1.193   4.316   6.539 -0.5867  0.0484 -0.2800
 6914TIP3    H142377   1.277   4.361   6.536 -1.3661  1.7715  1.1678
 6914TIP3    H242378   1.128   4.387   6.534 -1.9874 -1.2757 -2.0887
 6915TIP3   OH242379   3.619   5.300   1.592 -0.2629 -0.0500  0.0091
 6915TIP3    H142380   3.528   5.325   1.582 -0.0994 -0.1602 -2.2653
 6915TIP3    H242381   3.641   5.322   1.682 -2.3810  0.4360  0.4391
 6916TIP3   OH242382   1.939   5.941   7.918 -0.1829 -0.1419  0.5229
 6916TIP3    H142383   1.865   5.968   7.972 -0.2447  0.2859  0.2340
 6916TIP3    H242384   1.921   5.980   7.832 -0.4606 -1.4189 -0.0146
 6917TIP3   OH242385   1.157   5.673   1.335 -0.1877 -0.1661 -0.2897
 6917TIP3    H142386   1.200   5.739   1.390  2.8211 -1.3541 -1.0380
 6917TIP3    H242387   1.140   5.718   1.252  0.9485 -0.0631 -0.4719
 6918TIP3   OH242388   6.137   0.266   1.089 -0.0321 -0.1522 -0.3010
 6918TIP3    H142389   6.211   0.204   1.083 -0.0932 -0.1740 -0.8822
 6918TIP3    H242390   6.060   0.210   1.090 -0.1071 -0.0689 -1.2818
 6919TIP3   OH242391   0.188   1.407   7.295  0.4348 -0.2927 -0.0454
 6919TIP3    H142392   0.131   1.331   7.303  1.4478 -1.1250 -0.5621
 6919TIP3    H242393   0.177   1.436   7.204  1.6529 -1.1448 -0.4881
 6920TIP3   OH242394   2.116   0.001   0.515 -0.5405  0.2262 -0.1140
 6920TIP3    H142395   2.133   0.029   0.605 -1.5602 -0.3228  0.2704
 6920TIP3    H242396   2.028  -0.036   0.518 -1.2876  1.7004 -1.6719
 6921TIP3   OH242397   4.513   4.512   0.224  0.6739  0.1437  0.1733
 6921TIP3    H142398   4.517   4.431   0.173 -3.3253  1.3633 -2.6267
 6921TIP3    H242399   4.458   4.490   0.300  0.7088 -0.0839  0.1316
 6922TIP3   OH242400   0.944   6.546   1.960  0.4893  0.2485  0.4056
 6922TIP3    H142401   0.883   6.619   1.970  0.8803  0.4492  1.5200
 6922TIP3    H242402   0.941   6.525   1.867 -2.1460 -0.5246  0.5919
 6923TIP3   OH242403   7.123   1.025   0.189  0.0631  0.2749  0.2371
 6923TIP3    H142404   7.214   1.053   0.175  0.0167 -0.2405 -1.3476
 6923TIP3    H242405   7.088   1.013   0.101 -1.4847  0.2289  0.8272
 6924TIP3   OH242406   0.931   1.119   1.258 -0.1259 -0.0998 -0.3455
 6924TIP3    H142407   0.875   1.196   1.249 -0.1302 -0.1298 -0.5664
 6924TIP3    H242408   0.979   1.134   1.340 -2.2093 -1.1945  1.1600
 6925TIP3   OH242409   1.276   0.670   0.177 -0.0321  0.3828 -0.9296
 6925TIP3    H142410   1.278   0.690   0.083  0.1408 -0.3808 -1.0960
 6925TIP3    H242411   1.210   0.602   0.185  1.3952 -1.0688 -0.8261
 6926TIP3   OH242412   1.314   1.901   6.277 -0.1678 -0.7854 -0.0523
 6926TIP3    H142413   1.363   1.819   6.280 -0.9781 -1.2944 -0.6587
 6926TIP3    H242414   1.308   1.923   6.184 -0.2269 -0.1950  0.0847
 6927TIP3   OH242415   5.668   5.587   7.163  0.4142 -0.0737 -0.4557
 6927TIP3    H142416   5.652   5.498   7.130  0.2820 -0.7071  1.2447
 6927TIP3    H242417   5.762   5.590   7.181  0.4098  0.1185 -0.4572
 6928TIP3   OH242418   1.895   3.813   1.031  0.2284 -0.3133  0.1752
 6928TIP3    H142419   1.835   3.756   0.984  4.1180 -2.9271 -2.2328
 6928TIP3    H242420   1.889   3.784   1.122 -0.5773 -2.1033 -0.3958
 6929TIP3   OH242421   0.717   6.042   6.465  0.2257  0.5676  0.2102
 6929TIP3    H142422   0.733   6.065   6.374 -0.1977  1.1326  0.2697
 6929TIP3    H242423   0.628   6.007   6.465  0.8944 -1.2295  0.1051
 6930TIP3   OH242424   2.697   0.410   2.334 -0.0394  0.0548  0.0765
 6930TIP3    H142425   2.776   0.418   2.387 -0.1491  0.8884  0.1359
 6930TIP3    H242426   2.679   0.500   2.305 -1.0575 -0.0996  0.2036
 6931TIP3   OH242427   2.643   3.315   1.224  0.3327  0.3861 -0.0717
 6931TIP3    H142428   2.628   3.310   1.129 -0.3684  1.3594 -0.0286
 6931TIP3    H242429   2.603   3.235   1.258  0.3954  0.1327 -0.5713
 6932TIP3   OH242430   7.029   0.912   6.385  0.0692 -0.6901 -0.1748
 6932TIP3    H142431   7.038   0.837   6.445  0.1836  0.7294  1.6767
 6932TIP3    H242432   7.116   0.922   6.346  0.0910 -1.4230 -0.3331
 6933TIP3   OH242433   1.140   1.360   7.830 -0.3623  0.0054 -0.6001
 6933TIP3    H142434   1.051   1.390   7.849 -0.4938 -0.3170 -0.7021
 6933TIP3    H242435   1.195   1.436   7.849 -0.5652 -0.0829  0.3995
 6934TIP3   OH242436   1.956   3.209   1.839  0.5044 -0.3182  0.6403
 6934TIP3    H142437   1.988   3.245   1.757 -0.0942 -0.1361  0.4791
 6934TIP3    H242438   1.862   3.199   1.826  0.6094 -1.6348  0.7959
 6935TIP3   OH242439   0.389   0.954   7.134  0.5112  0.8643  0.3098
 6935TIP3    H142440   0.316   1.005   7.169  0.3820  0.8642  0.0436
 6935TIP3    H242441   0.356   0.920   7.050  0.6916  0.5730  0.3580
 6936TIP3   OH242442   3.315   0.554   1.583  0.3969 -0.0318  0.3294
 6936TIP3    H142443   3.389   0.507   1.544  1.2106  0.1017  1.6734
 6936TIP3    H242444   3.348   0.586   1.666 -0.9601  0.6818  0.6143
 6937TIP3   OH242445   1.289   1.977   6.582 -0.5679 -0.0567  0.4061
 6937TIP3    H142446   1.300   1.934   6.498 -0.9987  0.0181  0.3112
 6937TIP3    H242447   1.219   2.041   6.568  0.8297  1.5161  0.2175
 6938TIP3   OH242448   4.556   3.085   1.503 -0.2414  0.3459 -0.1943
 6938TIP3    H142449   4.625   3.090   1.437  0.4639  3.5376  0.5975
 6938TIP3    H242450   4.602   3.065   1.584 -0.7914 -1.1782 -0.2296
 6939TIP3   OH242451   4.754   6.051   7.510 -0.0767 -0.1440 -0.1034
 6939TIP3    H142452   4.754   6.035   7.604 -1.9733  0.4384  0.0434
 6939TIP3    H242453   4.673   6.011   7.479  0.3861 -0.0792 -1.4375
 6940TIP3   OH242454   0.799   1.664   1.488 -0.3462  0.6609  0.2513
 6940TIP3    H142455   0.750   1.684   1.568 -0.4007 -0.4579  0.5180
 6940TIP3    H242456   0.732   1.635   1.426  0.0611 -2.9041  1.2615
 6941TIP3   OH242457   2.720   3.522   1.970  0.6191 -0.1487 -0.3097
 6941TIP3    H142458   2.791   3.524   2.034  0.1270  0.5194  0.2112
 6941TIP3    H242459   2.664   3.596   1.992 -1.3539 -1.7990  0.5532
 6942TIP3   OH242460   4.438   3.111   6.757 -0.4770  0.1585 -0.5969
 6942TIP3    H142461   4.377   3.054   6.710 -2.2351  1.9635 -0.6726
 6942TIP3    H242462   4.483   3.159   6.689  0.0728 -0.2250 -0.5080
 6943TIP3   OH242463   6.919   4.066   0.920  0.1381 -0.5561  0.2861
 6943TIP3    H142464   6.852   3.997   0.922  1.2044 -1.6119  0.8008
 6943TIP3    H242465   7.000   4.021   0.943  0.4385  1.3646  3.5627
 6944TIP3   OH242466   3.426   1.412   1.181  0.2690  0.5169 -0.1867
 6944TIP3    H142467   3.493   1.374   1.125  0.5372 -1.0953  1.1615
 6944TIP3    H242468   3.443   1.375   1.268 -0.2703  2.7564  0.9420
 6945TIP3   OH242469   3.164   1.944   7.222 -0.6374  0.0276  0.0497
 6945TIP3    H142470   3.088   1.901   7.183 -1.0157 -1.4770  2.2128
 6945TIP3    H242471   3.211   1.981   7.148 -2.6322 -0.3657 -1.5193
 6946TIP3   OH242472   1.539   0.720   0.130 -0.1364 -0.0140 -0.0986
 6946TIP3    H142473   1.447   0.694   0.132 -0.3966  0.8726  0.0884
 6946TIP3    H242474   1.567   0.701   0.041 -1.0389  1.3964 -0.7326
 6947TIP3   OH242475   4.554   1.661   0.163  0.2701  0.3967  0.1516
 6947TIP3    H142476   4.549   1.703   0.249 -0.6973  2.0772 -0.6556
 6947TIP3    H242477   4.646   1.667   0.139  0.4421  0.4978  0.8092
 6948TIP3   OH242478   5.417   5.586   6.330  0.2332  0.3047 -0.3096
 6948TIP3    H142479   5.428   5.644   6.405  1.0377  0.1346 -0.2919
 6948TIP3    H242480   5.455   5.635   6.257  3.1366 -1.1159  0.1203
 6949TIP3   OH242481   5.169   1.650   6.734 -0.3514 -0.2567 -0.3589
 6949TIP3    H142482   5.207   1.703   6.664 -0.3524  0.6006  0.2734
 6949TIP3    H242483   5.133   1.714   6.795  1.2674 -0.8888  1.3518
 6950TIP3   OH242484   3.461   5.954   6.771 -0.4218 -0.0392  0.6364
 6950TIP3    H142485   3.450   5.931   6.678  2.6061 -1.1620  0.4244
 6950TIP3    H242486   3.524   6.026   6.770  0.5237 -0.8050  1.8159
 6951TIP3   OH242487   6.484   6.284   1.043  0.5210 -0.3870 -0.2712
 6951TIP3    H142488   6.481   6.345   1.117 -2.2480 -0.3777 -0.3019
 6951TIP3    H242489   6.396   6.286   1.006  1.1453 -2.2716 -2.0736
 6952TIP3   OH242490   6.417   1.799   6.329  0.7589  0.4926  0.0098
 6952TIP3    H142491   6.452   1.878   6.286 -2.0885  0.3051 -3.0925
 6952TIP3    H242492   6.470   1.728   6.293  0.1334  0.5938 -1.1609
 6953TIP3   OH242493   0.796   4.926   1.173 -0.1085  0.2994 -0.2239
 6953TIP3    H142494   0.756   4.839   1.173  0.8708 -0.1559 -0.2980
 6953TIP3    H242495   0.825   4.939   1.263  0.6918  0.1103 -0.4547
 6954TIP3   OH242496   6.292   1.598   7.934  0.5789  0.4956 -0.0850
 6954TIP3    H142497   6.382   1.619   7.908  0.7756 -0.2291 -0.0103
 6954TIP3    H242498   6.257   1.548   7.860  0.2429  0.7473 -0.1008
 6955TIP3   OH242499   2.753   4.899   2.104 -0.0090 -0.3697  0.1423
 6955TIP3    H142500   2.781   4.964   2.167 -1.9784  0.3152  0.3759
 6955TIP3    H242501   2.803   4.820   2.127  2.9491  1.1535 -0.5928
 6956TIP3   OH242502   2.610   0.430   7.169 -0.3185 -0.1501 -0.4889
 6956TIP3    H142503   2.662   0.491   7.221  0.7721  0.6083 -2.3392
 6956TIP3    H242504   2.520   0.451   7.191  0.0755 -0.7640  2.0090
 6957TIP3   OH242505   2.877   2.345   0.094  0.2989 -0.6088 -0.2483
 6957TIP3    H142506   2.896   2.438   0.106 -0.8227 -0.4411  0.3743
 6957TIP3    H242507   2.854   2.313   0.182 -0.6155 -1.1586 -0.6648
 6958TIP3   OH242508   5.805   2.294   0.937  0.4747  0.4376  0.1898
 6958TIP3    H142509   5.710   2.277   0.938  0.7164 -1.1437 -0.4220
 6958TIP3    H242510   5.836   2.262   1.022  0.4422  1.0970  0.4514
 6959TIP3   OH242511   3.837   1.619   0.765  0.0295  0.3705  0.0227
 6959TIP3    H142512   3.912   1.638   0.710  0.3542 -0.7446  0.0727
 6959TIP3    H242513   3.771   1.683   0.737  0.2373 -0.0494 -1.5424
 6960TIP3   OH242514   2.620   3.451   6.547 -0.6121  0.1267  0.5162
 6960TIP3    H142515   2.690   3.420   6.490 -0.2372 -1.6935  1.8799
 6960TIP3    H242516   2.540   3.442   6.495 -0.0872  0.2730 -0.3356
 6961TIP3   OH242517   2.175   6.758   5.880  0.0991  0.5023  0.0668
 6961TIP3    H142518   2.129   6.841   5.888 -1.5204 -0.4387  1.3635
 6961TIP3    H242519   2.147   6.724   5.795  1.3381  1.5602 -0.7970
 6962TIP3   OH242520   6.075   6.080   0.327 -0.1074  0.5530  0.0357
 6962TIP3    H142521   6.017   6.097   0.401 -0.9741 -2.9819  0.3492
 6962TIP3    H242522   6.157   6.050   0.368 -0.0240  0.1571 -0.4157
 6963TIP3   OH242523   0.945   1.355   6.810  0.3535  0.2613  0.1169
 6963TIP3    H142524   0.940   1.263   6.837  1.9658 -0.1062 -0.7310
 6963TIP3    H242525   0.895   1.358   6.728 -2.0250  0.7672  1.4820
 6964TIP3   OH242526   3.105   0.136   1.346 -0.3298  0.6049  0.0644
 6964TIP3    H142527   3.093   0.046   1.317  1.5762  0.2245  0.3072
 6964TIP3    H242528   3.018   0.174   1.344 -1.1522 -1.1949 -0.1965
 6965TIP3   OH242529   6.097   5.831   8.010 -0.5999  0.5119 -0.4661
 6965TIP3    H142530   6.147   5.853   8.089  0.6950  0.4060 -1.2252
 6965TIP3    H242531   6.069   5.741   8.025  0.8345 -0.0030 -0.6831
 6966TIP3   OH242532   3.599   5.447   7.317  0.4660 -0.1070 -0.0474
 6966TIP3    H142533   3.522   5.391   7.318 -0.0642  0.5889  1.0779
 6966TIP3    H242534   3.595   5.494   7.401  2.0934 -0.0316  0.0201
 6967TIP3   OH242535   1.420   6.134   0.345 -0.4689  0.3125  0.0059
 6967TIP3    H142536   1.436   6.040   0.335 -2.0800  0.0174 -0.0588
 6967TIP3    H242537   1.434   6.171   0.258  1.0094  0.2831  0.2185
 6968TIP3   OH242538   2.570   1.755   7.137  0.3359 -0.4727  0.3103
 6968TIP3    H142539   2.630   1.796   7.074 -1.2125  1.5507  0.0910
 6968TIP3    H242540   2.532   1.682   7.088  0.6654 -0.1755 -0.4179
 6969TIP3   OH242541   5.445   3.261   6.311 -0.2289  0.3772  0.0348
 6969TIP3    H142542   5.479   3.260   6.222 -0.0111  1.6864  0.0809
 6969TIP3    H242543   5.356   3.295   6.303 -0.4776 -0.2017  0.2485
 6970TIP3   OH242544   4.167   1.904   6.882 -0.2495 -0.3716 -0.7175
 6970TIP3    H142545   4.217   1.949   6.814  1.2132 -1.0737 -0.1688
 6970TIP3    H242546   4.198   1.944   6.964 -2.2775  0.7510 -0.4450
 6971TIP3   OH242547   0.305   7.052   1.377 -0.2618 -0.0752  0.1749
 6971TIP3    H142548   0.375   6.995   1.406 -1.7204 -2.7728 -1.1898
 6971TIP3    H242549   0.268   7.008   1.301 -1.2011  3.0115 -1.3486
 6972TIP3   OH242550   4.512   3.443   0.059 -0.3736 -0.4424  0.0427
 6972TIP3    H142551   4.422   3.435   0.090 -0.2459 -1.5292  0.1829
 6972TIP3    H242552   4.566   3.422   0.136  0.0307  1.2779  0.2524
 6973TIP3   OH242553   3.142   3.202   7.859  0.4800 -0.0774 -0.0157
 6973TIP3    H142554   3.091   3.150   7.796  0.6442 -1.4589  0.9473
 6973TIP3    H242555   3.083   3.213   7.934  0.4143  1.2488 -0.2296
 6974TIP3   OH242556   5.064   7.004   1.242  0.0139  0.4318 -0.4511
 6974TIP3    H142557   5.032   7.067   1.177 -1.5104 -0.4213 -0.5748
 6974TIP3    H242558   4.997   7.004   1.311 -3.1950 -4.8462 -2.8609
 6975TIP3   OH242559   2.561   0.274   1.326 -0.1219  0.9547  0.6330
 6975TIP3    H142560   2.500   0.238   1.260  0.2181  1.4146  0.0530
 6975TIP3    H242561   2.609   0.199   1.358  0.0394  0.7856  0.0004
 6976TIP3   OH242562   2.602   5.189   7.720  0.0024 -0.4242 -0.2175
 6976TIP3    H142563   2.532   5.243   7.757  0.7134  0.1597  0.3184
 6976TIP3    H242564   2.557   5.113   7.682 -1.0945  0.8827 -1.6417
 6977TIP3   OH242565   5.052   5.374   8.104 -0.7587  0.1717 -0.3882
 6977TIP3    H142566   4.981   5.438   8.100 -0.2523  0.8010  0.4100
 6977TIP3    H242567   5.066   5.359   8.198 -0.2116 -0.3711 -0.5471
 6978TIP3   OH242568   5.345   4.061   0.150  0.6716 -0.1390  0.4376
 6978TIP3    H142569   5.351   3.973   0.112  1.6256 -0.1131  0.5060
 6978TIP3    H242570   5.401   4.057   0.227  0.2018  0.3465  0.8020
 6979TIP3   OH242571   0.414   1.223   6.991 -0.7616 -0.9238  0.2287
 6979TIP3    H142572   0.366   1.146   7.024 -0.9259 -1.2455 -0.7187
 6979TIP3    H242573   0.355   1.297   7.008 -1.0057 -1.1330  0.3087
 6980TIP3   OH242574   3.692   0.367   0.178  0.6402  0.2704  0.5778
 6980TIP3    H142575   3.610   0.417   0.168 -0.1748 -1.2893 -0.9829
 6980TIP3    H242576   3.761   0.432   0.164 -0.3830  1.0879 -1.0037
 6981TIP3   OH242577   4.023   4.813   6.899 -0.5112 -0.0949  0.3143
 6981TIP3    H142578   3.946   4.857   6.936  1.1681  3.5087 -0.0852
 6981TIP3    H242579   4.008   4.813   6.805 -0.8294 -1.1553  0.3531
 6982TIP3   OH242580   5.537   6.575   7.984  0.7069 -0.5054  0.3508
 6982TIP3    H142581   5.597   6.558   7.911  0.5873 -0.1431  0.1638
 6982TIP3    H242582   5.529   6.491   8.029  1.2676 -0.5829  0.3122
 6983TIP3   OH242583   2.304   0.501   1.043 -0.3303  0.1155 -0.0006
 6983TIP3    H142584   2.252   0.473   1.119 -0.8074 -0.3557 -0.4942
 6983TIP3    H242585   2.370   0.561   1.080 -1.0498  0.5123  0.6681
 6984TIP3   OH242586   6.063   4.476   7.778 -0.2736 -0.6335  0.3275
 6984TIP3    H142587   6.047   4.546   7.840 -0.4877 -2.2008  2.1377
 6984TIP3    H242588   6.042   4.396   7.826  0.9143 -2.0071 -1.3075
 6985TIP3   OH242589   2.107   4.074   0.989  0.2654  0.3370 -0.4791
 6985TIP3    H142590   2.192   4.031   0.997 -0.0906 -0.0197  2.1617
 6985TIP3    H242591   2.044   4.003   1.003 -0.5421  0.5202 -2.7996
 6986TIP3   OH242592   0.173   2.147   6.660  0.8663  0.0853  0.4006
 6986TIP3    H142593   0.210   2.097   6.733  0.1127 -0.9845  0.0886
 6986TIP3    H242594   0.112   2.208   6.701  1.8414  0.8073  0.7968
 6987TIP3   OH242595   2.854   0.271   0.880 -0.9047 -0.0212  0.3145
 6987TIP3    H142596   2.945   0.299   0.869 -0.6447 -1.1720 -0.7023
 6987TIP3    H242597   2.826   0.312   0.961  0.5574  0.2822  0.6931
 6988TIP3   OH242598   2.370   7.038   0.382  0.3061  0.2094  0.0499
 6988TIP3    H142599   2.291   6.991   0.357 -0.1276 -0.0142  1.7159
 6988TIP3    H242600   2.369   7.118   0.328 -0.9210  0.0897 -0.1348
 6989TIP3   OH242601   0.134   5.859   7.481  0.5241  0.9605 -0.0395
 6989TIP3    H142602   0.057   5.803   7.472  1.3432 -0.9116  2.9645
 6989TIP3    H242603   0.177   5.855   7.396 -1.4311  0.0916 -1.0466
 6990TIP3   OH242604   2.515   4.123   5.885  0.5467 -0.0246  0.0524
 6990TIP3    H142605   2.610   4.137   5.887  0.4042  0.9874  0.4850
 6990TIP3    H242606   2.493   4.126   5.792  1.0027 -0.7625 -0.0840
 6991TIP3   OH242607   3.562   0.906   7.202  0.6160  0.0537  0.3845
 6991TIP3    H142608   3.651   0.927   7.231  0.6153  0.6887 -0.0389
 6991TIP3    H242609   3.506   0.940   7.271  0.5036  3.3145 -1.1023
 6992TIP3   OH242610   0.299   1.067   8.025 -0.1891  0.0143  0.3296
 6992TIP3    H142611   0.372   1.120   8.057  0.3556 -1.2781  1.3021
 6992TIP3    H242612   0.291   1.091   7.933 -0.1025  1.9312  0.7818
 6993TIP3   OH242613   2.275   1.057   0.587  0.4044  0.0297 -0.2710
 6993TIP3    H142614   2.314   0.984   0.635  1.8639  1.2569  0.4755
 6993TIP3    H242615   2.349   1.106   0.553 -0.4864  1.7481  0.1411
 6994TIP3   OH242616   7.035   6.919   8.122 -0.0823 -0.2853 -0.0092
 6994TIP3    H142617   7.096   6.848   8.101 -1.2025 -1.0251 -0.8609
 6994TIP3    H242618   7.048   6.982   8.052 -1.4648 -1.2278 -1.1619
 6995TIP3   OH242619   4.481   1.283   6.235  0.3810 -0.4047 -0.3530
 6995TIP3    H142620   4.473   1.367   6.190 -2.4236 -0.2973  0.1601
 6995TIP3    H242621   4.482   1.218   6.165  1.8750 -0.0194 -0.7233
 6996TIP3   OH242622   4.768   2.839   2.305 -0.1549  0.3930  0.3029
 6996TIP3    H142623   4.700   2.805   2.247  1.4957 -0.4546 -1.2421
 6996TIP3    H242624   4.736   2.925   2.331 -0.4714  1.3780 -2.8891
 6997TIP3   OH242625   1.500   6.645   0.834 -0.2117 -0.3119  0.5711
 6997TIP3    H142626   1.577   6.601   0.870 -0.0205 -0.8696 -0.4684
 6997TIP3    H242627   1.532   6.729   0.803  0.4037 -1.2354 -1.4666
 6998TIP3   OH242628   0.672   3.989   0.291  0.7009  0.5992  0.5304
 6998TIP3    H142629   0.599   4.006   0.351  0.5576  0.5311  0.3748
 6998TIP3    H242630   0.730   3.930   0.340 -0.2989 -0.9088 -0.0603
 6999TIP3   OH242631   2.790   5.089   0.927  0.2146 -0.4348  0.0355
 6999TIP3    H142632   2.766   5.156   0.863  2.0987  1.3494  1.0451
 6999TIP3    H242633   2.835   5.022   0.877  0.2744  0.1661 -0.7306
 7000TIP3   OH242634   2.510   0.277   0.690 -0.3959 -0.5358  0.2204
 7000TIP3    H142635   2.472   0.193   0.665  3.0246 -0.9417 -5.1058
 7000TIP3    H242636   2.479   0.338   0.623  2.7335  0.6029 -0.3501
 7001TIP3   OH242637   3.957   5.604   6.594 -0.0736 -0.1110 -0.5752
 7001TIP3    H142638   3.962   5.611   6.499  1.0007  1.3972 -0.4402
 7001TIP3    H242639   4.027   5.660   6.626 -0.4594 -0.5433  1.1191
 7002TIP3   OH242640   2.911   6.407   2.176 -0.3099  0.1471  0.6715
 7002TIP3    H142641   3.003   6.389   2.199 -0.4152 -1.2509  0.0829
 7002TIP3    H242642   2.861   6.338   2.220 -0.9535  0.1715 -0.0010
 7003TIP3   OH242643   0.818   5.624   6.946 -0.2744  0.1703 -0.5084
 7003TIP3    H142644   0.889   5.688   6.934  1.1781 -1.3131 -0.1807
 7003TIP3    H242645   0.813   5.612   7.040 -1.9671  1.2845 -0.4153
 7004TIP3   OH242646   1.534   5.538   1.132 -0.8135  0.0452 -0.0034
 7004TIP3    H142647   1.535   5.627   1.096 -0.0082  0.4956  1.0909
 7004TIP3    H242648   1.575   5.546   1.218 -0.9803 -1.3456  0.2301
 7005TIP3   OH242649   5.596   2.759   7.058 -0.0861 -0.0730  0.5834
 7005TIP3    H142650   5.616   2.847   7.089  1.3567  0.4615 -1.6606
 7005TIP3    H242651   5.680   2.712   7.063 -0.5908 -0.9929  0.7063
 7006TIP3   OH242652   0.416   0.478   1.114 -0.3358 -0.3539  0.0415
 7006TIP3    H142653   0.505   0.482   1.147 -0.3304  0.1594 -0.0329
 7006TIP3    H242654   0.361   0.482   1.193 -0.3725  2.5420 -0.0352
 7007TIP3   OH242655   5.886   2.858   7.728  0.1708 -0.3815 -0.1070
 7007TIP3    H142656   5.811   2.806   7.698  0.1350  1.5672 -4.0168
 7007TIP3    H242657   5.962   2.818   7.687  1.3082 -1.6649  2.9400
 7008TIP3   OH242658   7.009   4.062   0.647  0.5620 -0.2294  0.5498
 7008TIP3    H142659   6.932   4.027   0.603  0.5839  0.7294 -0.2980
 7008TIP3    H242660   6.976   4.095   0.730  0.5410 -2.1633  1.3640
 7009TIP3   OH242661   3.153   4.428   0.123  0.4672 -0.0888 -0.0582
 7009TIP3    H142662   3.061   4.446   0.137  0.0568  1.4480 -3.7208
 7009TIP3    H242663   3.194   4.514   0.116  1.2184 -0.5952 -3.1623
 7010TIP3   OH242664   0.405   6.378   1.359  0.2496 -0.7391 -0.0893
 7010TIP3    H142665   0.495   6.347   1.366  0.2592 -0.7681 -0.3078
 7010TIP3    H242666   0.372   6.334   1.280  0.1416 -0.4917 -0.1822
 7011TIP3   OH242667   1.906   5.136   8.027 -0.1736 -0.5423 -0.1300
 7011TIP3    H142668   1.950   5.165   7.947  1.5465 -1.6415  0.3631
 7011TIP3    H242669   1.822   5.102   7.997  1.1260 -2.5505 -1.7606
 7012TIP3   OH242670   0.939   6.134   7.131  0.1643 -0.1244  0.0959
 7012TIP3    H142671   0.975   6.060   7.181 -0.0197  0.7629  1.6115
 7012TIP3    H242672   0.999   6.206   7.150 -1.2876  0.8762  1.1058
 7013TIP3   OH242673   3.361   4.492   1.254 -0.7709 -0.3345 -0.7825
 7013TIP3    H142674   3.385   4.418   1.310  0.9592 -0.7475 -1.9651
 7013TIP3    H242675   3.309   4.453   1.184 -0.8279 -0.2404 -0.7914
 7014TIP3   OH242676   5.825   4.645   7.649 -0.2159 -0.0312 -0.1689
 7014TIP3    H142677   5.846   4.617   7.738  0.2149 -0.8491 -0.5147
 7014TIP3    H242678   5.745   4.697   7.658 -0.2133 -0.1624  0.6824
 7015TIP3   OH242679   3.122   5.746   0.822 -0.0776  0.3378 -0.2055
 7015TIP3    H142680   3.027   5.736   0.827 -0.0352 -0.0448 -0.1575
 7015TIP3    H242681   3.144   5.729   0.730  0.0160 -0.2035 -0.0843
 7016TIP3   OH242682   0.451   0.795   6.054  0.6712  0.9582  0.2287
 7016TIP3    H142683   0.496   0.878   6.073 -1.0933  1.3926  3.0927
 7016TIP3    H242684   0.367   0.822   6.016  1.6381  0.2185 -2.7659
 7017TIP3   OH242685   2.856   3.765   0.956 -0.2385  0.2456 -0.0856
 7017TIP3    H142686   2.870   3.671   0.942 -1.1107 -0.4810  3.0087
 7017TIP3    H242687   2.943   3.803   0.949  0.5739 -1.2534  1.0837
 7018TIP3   OH242688   5.839   0.797   7.102 -0.2074 -0.4383 -0.0185
 7018TIP3    H142689   5.775   0.754   7.159 -0.5029 -0.8870 -0.6757
 7018TIP3    H242690   5.863   0.730   7.038  1.5764 -0.5565  0.7244
 7019TIP3   OH242691   5.205   2.697   0.212  0.4416  0.3738  0.2555
 7019TIP3    H142692   5.285   2.686   0.263  0.1192 -0.0632  0.6752
 7019TIP3    H242693   5.221   2.774   0.157  2.4715 -1.6190 -2.1932
 7020TIP3   OH242694   1.377   3.711   8.057 -0.3478  0.0579  0.0677
 7020TIP3    H142695   1.472   3.723   8.062 -0.1465  0.1505 -2.6304
 7020TIP3    H242696   1.365   3.616   8.055 -0.4203  0.0231  1.4192
 7021TIP3   OH242697   6.426   4.846   6.614  0.1368 -0.2681  0.0135
 7021TIP3    H142698   6.434   4.754   6.640  0.4651 -0.6829 -1.4892
 7021TIP3    H242699   6.407   4.844   6.520  1.5765  1.2136 -0.3795
 7022TIP3   OH242700   3.445   5.418   6.802  0.5540 -0.0203 -0.0414
 7022TIP3    H142701   3.516   5.362   6.835  0.7669 -0.5431 -1.3302
 7022TIP3    H242702   3.366   5.384   6.843  0.9812  0.3118  1.1003
 7023TIP3   OH242703   4.882   2.701   1.867 -0.0924  0.0727  0.0017
 7023TIP3    H142704   4.882   2.664   1.778  0.2458 -2.1904  0.8819
 7023TIP3    H242705   4.935   2.640   1.918  0.6217  1.9081  1.5658
 7024TIP3   OH242706   4.389   0.347   0.578 -0.6134 -0.3547 -0.0312
 7024TIP3    H142707   4.369   0.355   0.672 -1.4941  0.5109 -0.2724
 7024TIP3    H242708   4.303   0.337   0.537 -0.2932  0.1318 -0.8298
 7025TIP3   OH242709   6.649   0.076   0.787 -0.0066  0.0426 -0.5902
 7025TIP3    H142710   6.597   0.031   0.720 -0.9694  1.3690 -0.7502
 7025TIP3    H242711   6.586   0.105   0.852  0.4841  1.8005 -0.8592
 7026TIP3   OH242712   2.110   1.003   6.920  0.0070  0.3283  0.0107
 7026TIP3    H142713   2.179   0.937   6.927 -0.1048  0.1923 -0.1677
 7026TIP3    H242714   2.135   1.057   6.845 -0.5501 -0.2795 -0.6305
 7027TIP3   OH242715   4.814   3.572   7.335 -0.3391 -0.2921 -0.3260
 7027TIP3    H142716   4.886   3.604   7.389 -0.6932  0.4368 -0.2755
 7027TIP3    H242717   4.821   3.476   7.340  0.1797 -0.2282  0.2733
 7028TIP3   OH242718   6.134   3.812   6.742  0.3738 -0.2704  0.7368
 7028TIP3    H142719   6.126   3.902   6.714 -1.5001 -0.4201  0.7113
 7028TIP3    H242720   6.228   3.801   6.760  0.6809  1.5574  0.4224
 7029TIP3   OH242721   0.591   5.769   6.820  0.7033  0.3245  0.4252
 7029TIP3    H142722   0.633   5.837   6.769  0.8548  0.2003  0.3841
 7029TIP3    H242723   0.660   5.732   6.874  0.5150  0.5464  0.8197
 7030TIP3   OH242724   2.736   4.153   8.122  0.3212  0.1873  0.1304
 7030TIP3    H142725   2.780   4.237   8.107  1.7915  0.1565  3.3670
 7030TIP3    H242726   2.806   4.088   8.113  0.3999 -0.1404  2.5536
 7031TIP3   OH242727   2.094   4.434   7.677 -0.5299 -0.1477 -0.0183
 7031TIP3    H142728   2.165   4.487   7.642  0.9352 -1.7403  0.4202
 7031TIP3    H242729   2.085   4.462   7.768 -0.7200  0.3075 -0.1748
 7032TIP3   OH242730   5.205   2.026   7.081 -0.1915 -0.1784  0.2799
 7032TIP3    H142731   5.288   1.980   7.093  1.2650  2.6137  1.7513
 7032TIP3    H242732   5.209   2.060   6.992  0.1898 -0.1085  0.3225
 7033TIP3   OH242733   1.716   3.590   7.300  0.0316  0.3652 -0.1245
 7033TIP3    H142734   1.727   3.636   7.217  1.9758 -0.4585 -0.3802
 7033TIP3    H242735   1.680   3.505   7.276 -1.2511  0.8231  0.1036
 7034TIP3   OH242736   6.653   6.079   6.939 -0.0104 -0.5755  0.0186
 7034TIP3    H142737   6.564   6.049   6.960  0.3125 -1.2920  0.4027
 7034TIP3    H242738   6.699   5.999   6.913  1.1839 -0.6119  2.0907
 7035TIP3   OH242739   5.916   0.472   7.715  0.1679  0.3187  0.7065
 7035TIP3    H142740   5.975   0.479   7.640  1.5465 -2.2247  1.4316
 7035TIP3    H242741   5.829   0.463   7.678  0.5331  1.3886 -0.4753
 7036TIP3   OH242742   5.760   0.264   0.539  0.1241  0.3941 -0.1136
 7036TIP3    H142743   5.847   0.259   0.580  0.3518  0.8193 -0.5319
 7036TIP3    H242744   5.760   0.193   0.475  0.3995  0.7747 -0.5435
 7037TIP3   OH242745   6.440   2.915   1.552  0.4804  0.5297  0.3418
 7037TIP3    H142746   6.347   2.931   1.566  0.5240  0.9355  0.1799
 7037TIP3    H242747   6.445   2.822   1.530  0.1425  0.4481  0.5999
 7038TIP3   OH242748   3.728   1.333   7.259 -0.0076  0.0289  0.1379
 7038TIP3    H142749   3.729   1.428   7.251 -1.0757 -0.0476 -1.3868
 7038TIP3    H242750   3.746   1.301   7.171  0.9360 -1.2079  0.7382
 7039TIP3   OH242751   1.698   2.645   6.872 -0.3220  0.1988 -0.0136
 7039TIP3    H142752   1.710   2.554   6.899  0.2293 -0.5745 -2.5629
 7039TIP3    H242753   1.706   2.643   6.776  2.2295  3.2660 -0.0580
 7040TIP3   OH242754   6.775   3.043   7.041  0.1742  0.2981  0.9015
 7040TIP3    H142755   6.840   3.056   7.111  0.6039  0.4491  0.4817
 7040TIP3    H242756   6.821   2.991   6.975 -0.9253 -1.8489  1.7149
 7041TIP3   OH242757   2.731   0.920   1.983  0.2214  0.0623 -0.0666
 7041TIP3    H142758   2.725   1.014   2.001 -0.4845  0.3012 -1.4167
 7041TIP3    H242759   2.817   0.895   2.015 -0.8691  0.3900  3.5977
 7042TIP3   OH242760   3.863   3.236   5.845 -0.2995 -0.6141 -0.5916
 7042TIP3    H142761   3.907   3.190   5.916  0.0901  0.6039 -0.0380
 7042TIP3    H242762   3.934   3.273   5.792 -0.6102 -0.6321 -1.0302
 7043TIP3   OH242763   1.524   5.596   0.045  0.4343 -0.3010 -0.1071
 7043TIP3    H142764   1.561   5.567   0.128 -0.5261  1.8285  1.1457
 7043TIP3    H242765   1.589   5.657   0.010  0.2464 -0.1807 -0.2517
 7044TIP3   OH242766   5.160   6.146   7.433 -0.5762  0.0468  0.7559
 7044TIP3    H142767   5.130   6.236   7.423 -0.4485 -0.1243 -1.8126
 7044TIP3    H242768   5.100   6.094   7.379  1.6818 -0.8219 -1.1064
 7045TIP3   OH242769   6.420   4.274   1.727  0.8553  0.5829 -0.3233
 7045TIP3    H142770   6.334   4.273   1.768  0.3950  1.0845 -1.2384
 7045TIP3    H242771   6.464   4.196   1.762 -0.5724 -0.6227 -1.0865
 7046TIP3   OH242772   5.890   1.443   0.207 -0.4186 -0.1235 -0.3715
 7046TIP3    H142773   5.865   1.471   0.119  0.6965 -0.5087 -0.8328
 7046TIP3    H242774   5.829   1.487   0.266  1.0311  3.0613 -1.0699
 7047TIP3   OH242775   2.172   4.614   5.812 -0.3046 -0.6192 -0.3552
 7047TIP3    H142776   2.182   4.519   5.817 -0.8720 -0.6403  0.8163
 7047TIP3    H242777   2.225   4.647   5.884 -1.6293 -0.1972  0.4686
 7048TIP3   OH242778   0.205   2.827   0.998 -0.4173 -0.7441  0.1799
 7048TIP3    H142779   0.191   2.813   0.904 -0.8447  0.0012  0.1210
 7048TIP3    H242780   0.189   2.921   1.010  1.4284 -0.4539  0.6758
 7049TIP3   OH242781   1.234   5.067   0.175  0.2778  0.1802  0.1032
 7049TIP3    H142782   1.174   5.120   0.121  0.0451 -2.0955 -2.0424
 7049TIP3    H242783   1.292   5.132   0.215 -0.5426  2.1437 -1.6453
 7050TIP3   OH242784   1.157   2.216   0.033  0.4053 -0.7563 -0.6350
 7050TIP3    H142785   1.173   2.195  -0.059 -1.0623 -0.1800 -1.0448
 7050TIP3    H242786   1.222   2.283   0.054  0.3485 -0.4418 -1.4341
 7051TIP3   OH242787   1.741   0.854   6.005 -0.3339 -0.3832 -0.4963
 7051TIP3    H142788   1.812   0.820   5.950 -0.3574 -1.4714  0.1323
 7051TIP3    H242789   1.786   0.888   6.083 -0.4539 -0.4716 -0.3893
 7052TIP3   OH242790   1.978   0.892   7.135  0.2319 -0.2271  0.1856
 7052TIP3    H142791   1.927   0.950   7.191 -0.6057 -1.9206  1.2591
 7052TIP3    H242792   2.016   0.949   7.069  1.2428  1.9021  2.4284
 7053TIP3   OH242793   4.319   3.543   1.271 -0.5346 -0.2050  0.0647
 7053TIP3    H142794   4.410   3.561   1.291 -0.8224  1.1828  0.2037
 7053TIP3    H242795   4.303   3.456   1.308  0.0493  0.5902  2.3104
 7054TIP3   OH242796   2.405   3.184   7.512 -0.1391  0.0796  0.3044
 7054TIP3    H142797   2.479   3.123   7.505 -0.1953  0.0974 -0.5434
 7054TIP3    H242798   2.438   3.254   7.568 -0.2863 -1.0113  1.8374
 7055TIP3   OH242799   7.049   4.623   0.406  0.2860 -0.9262 -0.0240
 7055TIP3    H142800   7.138   4.588   0.413  1.5481  1.7961 -0.9162
 7055TIP3    H242801   7.049   4.699   0.464 -0.0628  1.5042 -2.9816
 7056TIP3   OH242802   5.992   3.258   0.549 -0.3537  0.3900 -0.2078
 7056TIP3    H142803   6.008   3.168   0.577 -2.2572 -0.2459 -1.0005
 7056TIP3    H242804   6.028   3.263   0.461  1.0093  0.8573  0.3495
 7057TIP3   OH242805   0.279   3.136   6.391  0.6544  0.2663 -0.5985
 7057TIP3    H142806   0.300   3.218   6.434 -1.3056  0.7768 -0.5122
 7057TIP3    H242807   0.233   3.162   6.311 -0.2206 -0.7207 -0.4412
 7058TIP3   OH242808   5.275   6.785   6.860 -0.1232 -0.3434 -0.8173
 7058TIP3    H142809   5.342   6.744   6.805  0.8040 -1.8672  1.2869
 7058TIP3    H242810   5.319   6.862   6.897 -0.2742 -0.1100 -1.1223
 7059TIP3   OH242811   2.651   0.807   1.256 -0.4642 -0.4030  0.2426
 7059TIP3    H142812   2.633   0.880   1.314  1.0122 -0.6444  1.0617
 7059TIP3    H242813   2.597   0.735   1.290 -0.1814 -0.3298  0.8560
 7060TIP3   OH242814   1.013   3.274   7.943  0.1249 -0.3213 -0.0179
 7060TIP3    H142815   0.941   3.296   8.003 -0.0213  0.4292 -0.4546
 7060TIP3    H242816   0.983   3.306   7.858  0.8430 -0.2898 -0.2592
 7061TIP3   OH242817   3.134   4.616   6.154  0.1015 -0.0645 -0.3473
 7061TIP3    H142818   3.050   4.594   6.194  0.2179 -0.0944 -0.1110
 7061TIP3    H242819   3.198   4.597   6.223  0.3028 -0.0684 -0.5343
 7062TIP3   OH242820   2.347   2.288   5.987  0.0420  0.1759 -0.4063
 7062TIP3    H142821   2.311   2.356   6.044 -3.3742 -0.8263 -1.1038
 7062TIP3    H242822   2.318   2.206   6.027  2.0880 -0.7902 -0.8232
 7063TIP3   OH242823   6.806   1.631   6.908  0.2928  0.6250  0.2311
 7063TIP3    H142824   6.734   1.602   6.852  0.3038 -0.6460  0.8315
 7063TIP3    H242825   6.879   1.648   6.847 -0.6824  2.6829 -0.4653
 7064TIP3   OH242826   1.601   2.781   0.363 -0.1196  0.1035 -0.0002
 7064TIP3    H142827   1.611   2.778   0.459 -1.9056 -3.0643  0.2041
 7064TIP3    H242828   1.680   2.827   0.333  0.7529  0.7803  2.9327
 7065TIP3   OH242829   6.949   0.438   7.265 -0.2968  0.3163 -0.5266
 7065TIP3    H142830   6.966   0.496   7.191 -0.6345  0.1359 -0.7480
 7065TIP3    H242831   7.025   0.380   7.269  1.0477  2.0760  0.9650
 7066TIP3   OH242832   2.825   1.728   1.217 -0.1170 -0.4643 -0.5884
 7066TIP3    H142833   2.764   1.676   1.165 -0.5164 -2.0113  1.3271
 7066TIP3    H242834   2.896   1.668   1.239  1.7291  1.0622 -2.0255
 7067TIP3   OH242835   5.889   3.397   8.108 -0.3904  1.2079  0.2743
 7067TIP3    H142836   5.960   3.427   8.050  0.9621  0.0892  1.2773
 7067TIP3    H242837   5.887   3.462   8.178  0.1420  0.8803  0.6045
 7068TIP3   OH242838   7.107   2.303   6.918  0.5949  0.1812 -0.0474
 7068TIP3    H142839   7.147   2.232   6.968  1.4235  0.4613 -0.2996
 7068TIP3    H242840   7.089   2.264   6.832  2.1388  0.5811 -0.5809
 7069TIP3   OH242841   4.946   1.381   7.947  0.4957  0.2670  0.0548
 7069TIP3    H142842   4.866   1.412   7.988  0.2466 -0.8115  0.4227
 7069TIP3    H242843   5.016   1.411   8.005  0.6855  3.7063 -1.7052
 7070TIP3   OH242844   7.065   5.745   0.278 -0.0667  0.2203 -0.3404
 7070TIP3    H142845   7.014   5.822   0.254 -1.8664 -0.8658 -0.2423
 7070TIP3    H242846   7.094   5.708   0.195 -2.5612 -1.1105 -0.7103
 7071TIP3   OH242847   0.228   7.054   7.796 -0.4375 -0.0920  0.2188
 7071TIP3    H142848   0.192   6.972   7.762  0.4005 -0.3955  0.0353
 7071TIP3    H242849   0.177   7.123   7.753 -0.0607 -0.4861 -0.8875
 7072TIP3   OH242850   0.466   6.385   1.922  0.1337 -0.1267 -0.0354
 7072TIP3    H142851   0.511   6.432   1.851 -0.2401  1.8152  0.9326
 7072TIP3    H242852   0.468   6.446   1.995 -0.8286 -1.4833  1.1719
 7073TIP3   OH242853   3.407   6.777   6.848  0.2896 -0.0161 -0.7415
 7073TIP3    H142854   3.413   6.798   6.755 -0.7628 -0.7695 -0.9993
 7073TIP3    H242855   3.455   6.695   6.857 -1.5749 -1.2195 -1.1083
 7074TIP3   OH242856   7.124   0.671   0.547  0.3147 -0.6833 -0.4898
 7074TIP3    H142857   7.045   0.617   0.538  1.5715 -3.0834  1.5212
 7074TIP3    H242858   7.093   0.761   0.542 -2.0074 -1.4854 -3.4185
 7075TIP3   OH242859   4.118   6.158   7.169 -0.0476  0.1530  0.7792
 7075TIP3    H142860   4.024   6.172   7.170  0.0986  1.1752  1.6244
 7075TIP3    H242861   4.142   6.150   7.261  0.9265  1.6822  0.6947
 7076TIP3   OH242862   2.487   0.192   7.598  0.4100  0.0754  0.0186
 7076TIP3    H142863   2.467   0.274   7.553  2.5250  0.1566 -0.8997
 7076TIP3    H242864   2.562   0.156   7.551  1.8563 -0.5586  2.5866
 7077TIP3   OH242865   5.037   0.768   7.623 -0.0600 -0.3474  0.4719
 7077TIP3    H142866   5.055   0.679   7.653 -0.5656 -0.2288  1.1354
 7077TIP3    H242867   5.119   0.816   7.637  0.9553 -1.2056 -1.9057
 7078TIP3   OH242868   0.285   0.484   1.378 -0.5611 -0.0602 -0.7592
 7078TIP3    H142869   0.250   0.468   1.466  0.9495 -0.1616 -0.1351
 7078TIP3    H242870   0.369   0.527   1.394  0.7917 -2.0665 -2.0519
 7079TIP3   OH242871   1.594   6.478   7.412  0.0177 -0.3566  0.2208
 7079TIP3    H142872   1.503   6.473   7.442  0.2802  0.3356  1.1571
 7079TIP3    H242873   1.587   6.480   7.316 -0.9247 -0.7777  0.2676
 7080TIP3   OH242874   6.496   5.558   1.610 -0.7282  0.3740  0.0889
 7080TIP3    H142875   6.416   5.568   1.661 -0.0954  0.1497  1.1638
 7080TIP3    H242876   6.566   5.561   1.675  0.0515 -0.8699 -0.6500
 7081TIP3   OH242877   3.342   2.882   0.583 -0.0473 -0.7000  0.7633
 7081TIP3    H142878   3.437   2.899   0.582 -0.3265  1.4654 -1.9155
 7081TIP3    H242879   3.308   2.945   0.647  0.0053  1.9268 -1.5776
 7082TIP3   OH242880   1.660   0.016   7.717 -0.2766  0.7999  0.0713
 7082TIP3    H142881   1.623  -0.071   7.704  1.6603  0.0588 -0.9067
 7082TIP3    H242882   1.592   0.065   7.764 -3.1832  0.1080 -3.0452
 7083TIP3   OH242883   4.556   3.894   6.636  0.2826 -0.4661  0.0671
 7083TIP3    H142884   4.523   3.914   6.549  0.5358  0.2569  0.1301
 7083TIP3    H242885   4.496   3.828   6.670 -1.2717  0.9807  0.2700
 7084TIP3   OH242886   6.657   6.873   6.271 -0.1978 -0.5730 -1.1054
 7084TIP3    H142887   6.699   6.817   6.205  0.9853 -2.1007  0.8034
 7084TIP3    H242888   6.565   6.848   6.268  0.2285 -2.4213 -0.6001
 7085TIP3   OH242889   0.431   3.855   6.762  0.3180  0.2952 -0.4247
 7085TIP3    H142890   0.362   3.887   6.819  0.5445  1.8922 -1.0145
 7085TIP3    H242891   0.503   3.834   6.821  0.1447  0.8309 -0.0176
 7086TIP3   OH242892   2.480   1.963   6.216 -0.3133  0.0014 -0.1813
 7086TIP3    H142893   2.485   2.046   6.263  0.6065  0.5414 -1.1838
 7086TIP3    H242894   2.386   1.945   6.210 -0.5902  1.4983 -0.8300
 7087TIP3   OH242895   5.555   2.616   0.129 -0.0518 -0.0162 -0.3246
 7087TIP3    H142896   5.528   2.524   0.136 -0.0841  0.1349  3.7412
 7087TIP3    H242897   5.518   2.658   0.207  2.2513  2.8326 -0.6045
 7088TIP3   OH242898   2.262   0.080   1.411 -0.6408  0.5129  0.2198
 7088TIP3    H142899   2.183   0.122   1.375 -1.6937 -1.0843  0.5538
 7088TIP3    H242900   2.335   0.129   1.372 -1.7762  1.4599 -0.8204
 7089TIP3   OH242901   5.762   3.819   1.503 -0.0339  0.5391 -0.1205
 7089TIP3    H142902   5.797   3.731   1.487 -1.6736 -0.2950  0.6767
 7089TIP3    H242903   5.808   3.849   1.582  1.1238  0.7799 -0.8470
 7090TIP3   OH242904   1.122   5.167   6.202 -0.3423  0.0815  0.3070
 7090TIP3    H142905   1.135   5.176   6.108  1.0846  0.4364  0.5050
 7090TIP3    H242906   1.040   5.212   6.220 -1.1995 -0.9299 -0.9044
 7091TIP3   OH242907   1.787   6.264   6.372 -0.3848 -0.4541  0.2341
 7091TIP3    H142908   1.779   6.218   6.455 -0.4113 -1.0854 -0.1189
 7091TIP3    H242909   1.840   6.207   6.317  0.9121  0.6285  0.3000
 7092TIP3   OH242910   5.798   3.754   7.866  0.5486 -0.3977 -0.3779
 7092TIP3    H142911   5.706   3.732   7.855  0.2043  0.9775 -0.3521
 7092TIP3    H242912   5.834   3.755   7.778  0.2666  0.1766 -0.4897
 7093TIP3   OH242913   5.275   5.133   0.673  0.7500 -0.3808 -0.7022
 7093TIP3    H142914   5.295   5.142   0.580 -0.2453 -0.2231 -0.9115
 7093TIP3    H242915   5.341   5.073   0.706  2.5571  1.3355 -1.0105
 7094TIP3   OH242916   6.221   2.243   7.612  0.1941 -0.5836  0.5365
 7094TIP3    H142917   6.287   2.184   7.576  0.1817 -0.3679  0.1560
 7094TIP3    H242918   6.177   2.280   7.535 -1.9061 -2.4196  0.7759
 7095TIP3   OH242919   5.302   4.940   7.590  0.0162  0.2034  0.2238
 7095TIP3    H142920   5.252   4.884   7.532  2.4797 -0.7496 -1.1524
 7095TIP3    H242921   5.265   4.925   7.677 -1.0942 -1.5214 -0.5001
 7096TIP3   OH242922   4.659   6.838   1.466 -0.2955  0.1759  0.8364
 7096TIP3    H142923   4.592   6.817   1.531 -0.4539 -1.2225  0.2564
 7096TIP3    H242924   4.731   6.778   1.487 -0.5390 -0.6335 -0.5519
 7097TIP3   OH242925   1.761   3.348   1.145 -0.1332  0.8610 -0.6428
 7097TIP3    H142926   1.712   3.303   1.075 -1.5533  3.2429 -1.2921
 7097TIP3    H242927   1.694   3.375   1.207  0.7793  1.2964  0.1735
 7098TIP3   OH242928   6.185   5.041   0.335 -0.1450  0.3066 -0.1057
 7098TIP3    H142929   6.202   4.962   0.387 -1.2485 -0.5244 -0.9602
 7098TIP3    H242930   6.147   5.103   0.398 -2.0398 -0.8993 -0.0002
 7099TIP3   OH242931   2.227   6.579   7.354  0.8727  0.1532  0.0199
 7099TIP3    H142932   2.302   6.606   7.407  0.7198  1.2401 -0.2796
 7099TIP3    H242933   2.155   6.633   7.387  0.0877 -1.2520  0.6608
 7100TIP3   OH242934   2.641   5.800   0.674  0.4735 -0.1710 -0.1281
 7100TIP3    H142935   2.563   5.794   0.730 -0.0429 -0.9207 -0.8996
 7100TIP3    H242936   2.712   5.764   0.728  0.1319 -0.2255  0.2937
 7101TIP3   OH242937   2.525   1.697   0.614  0.0691 -0.0195 -0.3335
 7101TIP3    H142938   2.555   1.757   0.681  0.4014  0.8729 -1.2560
 7101TIP3    H242939   2.605   1.663   0.573 -0.1225  0.6440 -1.3017
 7102TIP3   OH242940   3.686   2.654   7.137  0.0545 -0.1579 -0.1873
 7102TIP3    H142941   3.766   2.626   7.093  0.0472 -2.3086  1.0503
 7102TIP3    H242942   3.713   2.725   7.195  0.8964 -0.3477 -0.3432
 7103TIP3   OH242943   6.433   7.096   0.222  0.4753 -0.5230  0.3772
 7103TIP3    H142944   6.404   7.104   0.313  0.6663  1.9128  0.2839
 7103TIP3    H242945   6.521   7.133   0.222  0.1775  0.2386 -0.9217
 7104TIP3   OH242946   4.832   4.219   1.765  0.3514  0.0083 -0.4318
 7104TIP3    H142947   4.750   4.267   1.774  1.1665  1.6939 -1.5132
 7104TIP3    H242948   4.899   4.279   1.800  1.5546  0.2389 -2.8761
 7105TIP3   OH242949   1.850   4.067   7.908 -0.1118 -0.6632 -0.1884
 7105TIP3    H142950   1.756   4.057   7.926  0.0137 -0.6074  0.5131
 7105TIP3    H242951   1.861   4.161   7.890 -0.0301 -0.5019  0.6890
 7106TIP3   OH242952   4.121   6.046   5.705  0.1937  0.3124  0.3191
 7106TIP3    H142953   4.124   6.099   5.625  0.7411  0.0267  0.1402
 7106TIP3    H242954   4.036   6.066   5.744  0.1495  0.8755 -0.0479
 7107TIP3   OH242955   2.297   3.314   7.092 -0.3723  0.0877  0.1574
 7107TIP3    H142956   2.267   3.405   7.103 -1.2947 -0.1484 -0.3031
 7107TIP3    H242957   2.294   3.299   6.998  1.9106  0.2614  0.0057
 7108TIP3   OH242958   1.494   4.393   1.124 -0.6603  0.2263  0.1315
 7108TIP3    H142959   1.422   4.408   1.185  0.1501  2.4589  0.6318
 7108TIP3    H242960   1.550   4.470   1.133  1.7248 -1.3493 -0.3574
 7109TIP3   OH242961   6.405   4.900   0.055 -0.0595  0.5559  0.1011
 7109TIP3    H142962   6.430   4.815   0.019  0.8722  0.4064  1.0500
 7109TIP3    H242963   6.486   4.936   0.089 -0.4388  1.8654 -0.3323
 7110TIP3   OH242964   0.868   5.140   6.850  0.4841  0.3190  0.1377
 7110TIP3    H142965   0.891   5.220   6.897  2.7922  1.1169 -2.1123
 7110TIP3    H242966   0.817   5.089   6.913 -0.9896  3.4554  1.6921
 7111TIP3   OH242967   6.230   6.606   1.037 -0.1350 -0.8792 -0.0725
 7111TIP3    H142968   6.164   6.614   0.968 -0.9844 -0.8048  0.7335
 7111TIP3    H242969   6.276   6.525   1.016  1.7508  0.6530 -2.5063
 7112TIP3   OH242970   6.751   2.813   6.396 -0.5540 -0.2737 -0.0642
 7112TIP3    H142971   6.822   2.748   6.400  0.6222  0.9461 -0.3546
 7112TIP3    H242972   6.706   2.794   6.314  1.2814  0.7095 -1.3904
 7113TIP3   OH242973   5.880   4.866   7.468  0.2174 -0.0731 -0.4337
 7113TIP3    H142974   5.968   4.854   7.431  0.8059 -0.9223  1.1060
 7113TIP3    H242975   5.846   4.777   7.478 -0.1624  0.1600  0.4340
 7114TIP3   OH242976   5.594   2.281   1.107 -0.2379 -0.0834  0.4052
 7114TIP3    H142977   5.599   2.301   1.201  0.0892  1.5753  0.0753
 7114TIP3    H242978   5.511   2.235   1.096 -0.8205  0.6914  1.3617
 7115TIP3   OH242979   6.243   6.697   0.268 -0.5393  0.0873  0.2203
 7115TIP3    H142980   6.275   6.654   0.347 -0.0509 -2.9567 -1.4545
 7115TIP3    H242981   6.193   6.629   0.222  0.6381  1.1029 -2.8687
 7116TIP3   OH242982   0.808   5.991   1.847 -0.2556  0.1278 -0.1162
 7116TIP3    H142983   0.805   6.086   1.860 -0.3920  0.0029  0.9102
 7116TIP3    H242984   0.879   5.962   1.903 -0.0981 -0.3593 -0.5668
 7117TIP3   OH242985   2.209   6.086   7.391  0.3148  0.1043 -0.1377
 7117TIP3    H142986   2.172   6.018   7.448  1.0283  0.0361  0.2523
 7117TIP3    H242987   2.228   6.159   7.450 -0.9197  0.8536 -0.6326
 7118TIP3   OH242988   2.218   3.490   6.591  1.0189  0.2646  0.3832
 7118TIP3    H142989   2.282   3.484   6.520  0.4312 -0.3910 -0.1106
 7118TIP3    H242990   2.205   3.584   6.604 -0.9601  0.5138 -2.3551
 7119TIP3   OH242991   4.552   6.021   7.117 -0.2666  0.6234  0.0701
 7119TIP3    H142992   4.551   6.073   7.197 -1.2619  0.2723  0.3145
 7119TIP3    H242993   4.476   5.963   7.126 -0.5821  0.7974 -1.2747
 7120TIP3   OH242994   1.321   4.362   7.657 -0.0330  0.4278 -0.3562
 7120TIP3    H142995   1.256   4.297   7.685  1.2920 -1.5915 -1.7484
 7120TIP3    H242996   1.390   4.311   7.616  0.3656  2.8464 -2.9711
 7121TIP3   OH242997   4.472   1.099   7.793  0.4111 -0.3488 -0.3427
 7121TIP3    H142998   4.470   1.056   7.878  0.6364 -0.1268 -0.2244
 7121TIP3    H242999   4.396   1.065   7.747 -1.2024  1.4113  0.8547
 7122TIP3   OH243000   0.062   4.490   1.991  0.2916  0.5581  0.1147
 7122TIP3    H143001   0.104   4.406   2.006 -0.0434  0.3251 -0.2163
 7122TIP3    H243002   0.111   4.529   1.919  1.5530  1.4346  1.4056
 7123TIP3   OH243003   7.082   4.134   7.926  0.0592  0.1236  0.6447
 7123TIP3    H143004   7.030   4.178   7.994  0.0523  0.1205  0.6412
 7123TIP3    H243005   7.048   4.045   7.924 -1.8161  0.7946 -1.1971
 7124TIP3   OH243006   3.657   3.676   7.634 -0.2823  0.3542  0.2625
 7124TIP3    H143007   3.735   3.693   7.582 -1.1672  0.1425 -1.1774
 7124TIP3    H243008   3.604   3.755   7.624 -0.9338 -0.1097 -0.0489
 7125TIP3   OH243009   5.327   5.871   6.179  0.3892 -0.1091 -0.3785
 7125TIP3    H143010   5.263   5.854   6.109 -0.4842 -0.2120  0.4330
 7125TIP3    H243011   5.400   5.812   6.159 -0.5013 -1.2484 -0.3703
 7126TIP3   OH243012   4.003   4.988   0.949 -0.2406 -0.2180 -0.1680
 7126TIP3    H143013   4.094   4.966   0.926 -0.8877 -2.7539 -0.6650
 7126TIP3    H243014   4.010   5.065   1.005  2.2471 -0.4597 -0.0365
 7127TIP3   OH243015   0.187   0.513   0.146 -0.3556  0.2073 -0.3233
 7127TIP3    H143016   0.093   0.534   0.147 -1.3549 -3.4404  2.2953
 7127TIP3    H243017   0.218   0.543   0.231 -0.2282 -2.2208  0.5536
 7128TIP3   OH243018   5.461   3.045   6.109  0.7360 -0.0433 -0.3355
 7128TIP3    H143019   5.506   3.127   6.088  0.9665 -0.1669 -0.3255
 7128TIP3    H243020   5.532   2.982   6.123  0.5639 -0.1649 -0.0216
 7129TIP3   OH243021   4.592   1.689   8.002  0.5182 -0.0196 -0.0527
 7129TIP3    H143022   4.526   1.699   8.071 -0.2883  0.8896 -0.9149
 7129TIP3    H243023   4.634   1.775   7.996  1.6746 -0.5383  0.3577
 7130TIP3   OH243024   0.218   1.538   8.005 -0.2687 -0.7014  0.3366
 7130TIP3    H143025   0.279   1.466   7.989  0.2076 -0.1820 -0.1821
 7130TIP3    H243026   0.249   1.578   8.087  0.0248 -0.4984  0.1250
 7131TIP3   OH243027   5.148   0.077   0.100  0.1020 -0.1654  0.2645
 7131TIP3    H143028   5.081   0.117   0.156 -1.4629 -0.0511 -1.5955
 7131TIP3    H243029   5.192   0.152   0.059 -0.3250 -0.2823 -0.4103
 7132TIP3   OH243030   5.986   0.178   6.966  0.4025 -0.4990  0.0567
 7132TIP3    H143031   6.062   0.135   7.006  1.8348  0.5153 -1.4684
 7132TIP3    H243032   6.015   0.268   6.950 -0.6813 -0.4257 -1.6943
 7133TIP3   OH243033   0.432   1.330   7.941 -0.1163  0.3322  0.4113
 7133TIP3    H143034   0.470   1.411   7.906 -0.5827 -0.1844 -1.4099
 7133TIP3    H243035   0.482   1.261   7.898  0.1557 -0.3615  1.8133
 7134TIP3   OH243036   2.430   6.656   7.021 -0.1102  0.0932 -0.2567
 7134TIP3    H143037   2.420   6.669   7.115  0.8156  0.1857 -0.1598
 7134TIP3    H243038   2.341   6.665   6.985 -0.7161 -1.4491  0.7696
 7135TIP3   OH243039   2.116   5.314   7.543 -0.0516  0.2360 -0.0537
 7135TIP3    H143040   2.186   5.379   7.546  0.4584 -0.2561 -0.9592
 7135TIP3    H243041   2.045   5.354   7.593  0.5495  1.1246  0.1208
 7136TIP3   OH243042   0.165   6.120   6.496 -0.4156 -0.2976  0.0117
 7136TIP3    H143043   0.090   6.180   6.501  0.8529  1.2672  1.8198
 7136TIP3    H243044   0.169   6.095   6.404 -1.9455  1.1950 -0.5259
 7137TIP3   OH243045   0.819   6.152   0.881  0.0824  0.2554  0.4132
 7137TIP3    H143046   0.795   6.244   0.894 -0.1565  0.1664  0.5994
 7137TIP3    H243047   0.913   6.149   0.901 -0.6215 -0.3216  4.6137
 7138TIP3   OH243048   3.349   6.245   1.530 -0.7263 -0.5294 -0.7092
 7138TIP3    H143049   3.432   6.220   1.489 -0.6144  0.2543 -0.9692
 7138TIP3    H243050   3.368   6.249   1.624 -0.6065 -0.8593 -0.7179
 7139TIP3   OH243051   0.431   5.885   0.298 -0.6892  0.0508 -0.7368
 7139TIP3    H143052   0.524   5.874   0.278 -0.6358  2.4695 -2.2571
 7139TIP3    H243053   0.422   5.858   0.389  2.0168  1.8910  0.2052
 7140TIP3   OH243054   1.875   0.756   1.594  0.2830 -0.0550  0.0019
 7140TIP3    H143055   1.846   0.833   1.642 -1.4035 -0.5042 -0.2094
 7140TIP3    H243056   1.889   0.689   1.662 -2.8037 -0.9113 -0.0342
 7141TIP3   OH243057   2.506   2.999   7.226 -0.3794 -0.5083  0.5789
 7141TIP3    H143058   2.548   3.000   7.311  1.4242  0.5296 -0.2718
 7141TIP3    H243059   2.458   2.916   7.224 -0.7513 -0.3885  2.6994
 7142TIP3   OH243060   6.092   4.660   7.374  0.0702 -0.2835 -0.2568
 7142TIP3    H143061   6.057   4.621   7.294  0.8570 -0.3919 -0.5493
 7142TIP3    H243062   6.110   4.586   7.431  0.1581 -0.2493 -0.2403
 7143TIP3   OH243063   6.938   1.313   0.216  0.3021  0.4251 -0.3388
 7143TIP3    H143064   7.028   1.338   0.194  0.4033  0.4465  0.1027
 7143TIP3    H243065   6.939   1.300   0.310 -0.6304  2.4278  0.0091
 7144TIP3   OH243066   0.006   4.528   7.313  0.3370 -0.3097 -0.6636
 7144TIP3    H143067   0.059   4.608   7.312 -0.4529  0.2397 -1.8994
 7144TIP3    H243068  -0.085   4.559   7.308 -0.0041 -1.2728 -0.7502
 7145TIP3   OH243069   3.931   3.583   6.722  0.3750 -0.1619 -0.4518
 7145TIP3    H143070   3.844   3.617   6.702  0.3558 -0.3272 -0.6511
 7145TIP3    H243071   3.964   3.548   6.639  0.3899 -0.6357 -0.2543
 7146TIP3   OH243072   6.330   4.640   1.139 -0.5791  0.1108 -0.6088
 7146TIP3    H143073   6.249   4.606   1.102 -1.0199  0.9220 -0.4044
 7146TIP3    H243074   6.380   4.669   1.063 -1.1326  1.0064 -0.6465
 7147TIP3   OH243075   1.608   4.997   6.477 -0.6937 -0.1350 -0.8117
 7147TIP3    H143076   1.581   4.957   6.395 -0.1669  0.6272 -1.3822
 7147TIP3    H243077   1.569   5.084   6.476 -1.5208 -0.4709  0.2307
 7148TIP3   OH243078   3.968   6.519   0.178  0.0974  0.0243  0.0888
 7148TIP3    H143079   3.889   6.528   0.232 -0.3625 -0.3258 -0.5099
 7148TIP3    H243080   4.024   6.459   0.226  0.0772  0.4121  0.6055
 7149TIP3   OH243081   6.102   3.497   6.888 -0.2264  0.1290 -0.5488
 7149TIP3    H143082   6.136   3.577   6.847 -0.3236  0.2777 -0.3409
 7149TIP3    H243083   6.079   3.524   6.977 -1.1778  0.0994 -0.7743
 7150TIP3   OH243084   4.558   3.306   7.540  0.1103  0.0288 -0.0595
 7150TIP3    H143085   4.649   3.289   7.561  0.1653 -0.4647 -0.6715
 7150TIP3    H243086   4.516   3.220   7.544 -0.8754  0.5424  2.7028
 7151TIP3   OH243087   0.788   1.224   1.921 -0.1080  0.3016  0.6147
 7151TIP3    H143088   0.799   1.295   1.984 -1.4850  0.3755  0.8024
 7151TIP3    H243089   0.862   1.166   1.937 -0.7314  0.0327  2.6841
 7152TIP3   OH243090   2.783   1.977   1.357  0.2960  0.1711 -0.3144
 7152TIP3    H143091   2.798   2.040   1.286 -1.7373  1.0400 -0.0315
 7152TIP3    H243092   2.789   1.891   1.315  1.8292  0.5491 -0.9618
 7153TIP3   OH243093   3.440   3.468   1.101 -0.3945 -0.0894  0.1618
 7153TIP3    H143094   3.417   3.441   1.012 -0.0490  2.9468 -0.9865
 7153TIP3    H243095   3.369   3.435   1.156 -1.3367 -0.8464 -1.4426
 7154TIP3   OH243096   0.772   6.767   1.915  0.3657  0.1690 -0.2701
 7154TIP3    H143097   0.689   6.728   1.889  0.3130  0.6903 -0.9122
 7154TIP3    H243098   0.808   6.803   1.834  0.4246  1.4394  0.3036
 7155TIP3   OH243099   3.396   4.254   7.562  0.0144  0.1953  0.2884
 7155TIP3    H143100   3.437   4.176   7.599 -0.8053 -0.5459 -0.3283
 7155TIP3    H243101   3.455   4.279   7.490 -0.4816 -0.7496 -0.4687
 7156TIP3   OH243102   4.063   1.269   0.492  0.4262 -0.0840 -0.1417
 7156TIP3    H143103   4.022   1.246   0.408 -1.5729 -2.3702  1.3024
 7156TIP3    H243104   4.151   1.299   0.469  0.2932 -1.5245 -2.9994
 7157TIP3   OH243105   3.460   4.510   6.901  0.1803 -0.5795  0.4431
 7157TIP3    H143106   3.517   4.562   6.957 -0.1298  2.2850 -1.6941
 7157TIP3    H243107   3.381   4.497   6.953 -0.0475  1.8870  0.8422
 7158TIP3   OH243108   3.371   5.337   1.711 -0.4063  0.6259 -0.0556
 7158TIP3    H143109   3.313   5.264   1.736  0.3651 -0.0335 -0.1556
 7158TIP3    H243110   3.358   5.402   1.780 -0.6684  0.1439  0.3592
 7159TIP3   OH243111   6.392   0.861   1.344 -0.7385  0.0677 -0.1150
 7159TIP3    H143112   6.402   0.872   1.249  1.0917 -1.4439 -0.1725
 7159TIP3    H243113   6.422   0.944   1.381 -0.2165  0.2169 -0.8386
 7160TIP3   OH243114   5.124   1.684   5.807  0.1493  0.9527 -0.5842
 7160TIP3    H143115   5.043   1.633   5.803 -0.6612  2.1216  0.3328
 7160TIP3    H243116   5.180   1.644   5.741 -0.8041 -0.5012 -0.5754
 7161TIP3   OH243117   1.274   1.228   6.641  0.2290 -0.3275 -0.1666
 7161TIP3    H143118   1.351   1.190   6.600  0.4118 -0.5655  0.3812
 7161TIP3    H243119   1.303   1.254   6.728  0.0621  0.9400 -0.4719
 7162TIP3   OH243120   5.346   1.861   7.968 -0.2840  0.6724 -0.2017
 7162TIP3    H143121   5.398   1.912   8.030 -1.6984  1.8444  0.0747
 7162TIP3    H243122   5.410   1.805   7.923  0.9754  0.9092  1.2121
 7163TIP3   OH243123   5.598   1.412   7.435 -0.0971  0.4927 -0.2240
 7163TIP3    H143124   5.586   1.386   7.527  2.2102  3.5626  1.1570
 7163TIP3    H243125   5.555   1.497   7.429 -1.5794 -0.3563 -2.5227
 7164TIP3   OH243126   5.826   5.159   1.469  0.0789 -0.5703  0.2110
 7164TIP3    H143127   5.782   5.137   1.551 -1.1284 -0.4658 -0.3819
 7164TIP3    H243128   5.907   5.108   1.471 -0.6970 -1.8497  0.7493
 7165TIP3   OH243129   0.789   6.415   6.469 -0.6293 -0.9289 -0.3197
 7165TIP3    H143130   0.753   6.346   6.414  1.3912 -4.2681  2.1368
 7165TIP3    H243131   0.712   6.459   6.506 -1.9841 -1.4752 -2.3199
 7166TIP3   OH243132   0.039   5.520   0.091 -0.1426  0.0626  0.1481
 7166TIP3    H143133   0.015   5.536  -0.000  0.9388  1.3998  0.0640
 7166TIP3    H243134   0.065   5.428   0.093 -0.5758 -0.0922 -0.7941
 7167TIP3   OH243135   4.314   3.433   7.824  0.2069 -0.8209 -0.4073
 7167TIP3    H143136   4.407   3.455   7.827 -0.1915  0.9926 -0.3395
 7167TIP3    H243137   4.284   3.442   7.915 -0.0962 -1.1380 -0.4735
 7168TIP3   OH243138   5.775   4.902   7.978  0.0804 -0.9500  0.0842
 7168TIP3    H143139   5.815   4.884   8.062 -0.7530 -3.2227  0.0605
 7168TIP3    H243140   5.711   4.832   7.966 -2.4445  1.3227 -0.8021
 7169TIP3   OH243141   5.542   4.673   1.396  0.3745  0.6347 -0.4227
 7169TIP3    H143142   5.523   4.677   1.490  0.4156  0.7772 -0.4200
 7169TIP3    H243143   5.600   4.597   1.386 -0.0425  0.3106 -0.4058
 7170TIP3   OH243144   6.338   4.348   7.910 -0.1868 -0.5594 -0.8214
 7170TIP3    H143145   6.372   4.408   7.844 -1.1951 -0.6170 -1.4020
 7170TIP3    H243146   6.336   4.400   7.990 -1.2024  0.2382 -1.3527
 7171TIP3   OH243147   1.193   3.283   6.419  0.2635  0.5431  0.6886
 7171TIP3    H143148   1.208   3.285   6.324 -0.7418  1.3405  0.5230
 7171TIP3    H243149   1.167   3.192   6.437  0.1971  0.4490  0.1515
 7172TIP3   OH243150   2.322   0.118   7.143  0.4916 -0.4748  0.0368
 7172TIP3    H143151   2.227   0.110   7.144  0.4280  0.0982  2.2734
 7172TIP3    H243152   2.353   0.048   7.200  1.3170  0.1838  0.4268
 7173TIP3   OH243153   5.840   0.167   7.618 -0.2100  0.2560  0.4871
 7173TIP3    H143154   5.823   0.094   7.677 -1.5467 -1.2285 -1.5730
 7173TIP3    H243155   5.931   0.158   7.592 -0.3249 -0.6279  0.3695
 7174TIP3   OH243156   5.522   4.677   0.789 -0.3287  0.3436  0.3572
 7174TIP3    H143157   5.556   4.641   0.707 -1.5392  1.2704 -0.5931
 7174TIP3    H243158   5.453   4.617   0.816 -0.6308  0.5956  0.1426
 7175TIP3   OH243159   5.910   4.812   0.095 -0.7161  0.1087  0.6384
 7175TIP3    H143160   5.994   4.811   0.141 -0.2637 -0.0873 -0.1592
 7175TIP3    H243161   5.845   4.802   0.164 -0.0275 -0.9352  1.1753
 7176TIP3   OH243162   4.250   4.423   1.987  0.0980  0.1510 -0.1072
 7176TIP3    H143163   4.281   4.514   1.980  0.2225  0.0485 -1.1742
 7176TIP3    H243164   4.214   4.404   1.900  1.7340 -1.3982 -0.5164
 7177TIP3   OH243165   3.922   2.141   1.690 -0.0413  0.0562 -0.5988
 7177TIP3    H143166   3.956   2.210   1.746  0.8372 -1.4595  0.8252
 7177TIP3    H243167   3.903   2.184   1.607  0.6118  1.9533  0.1896
 7178TIP3   OH243168   2.088   3.594   1.289  0.0464 -0.0466 -0.2232
 7178TIP3    H143169   2.173   3.636   1.301 -0.2529  0.9142 -1.3334
 7178TIP3    H243170   2.105   3.521   1.229  0.0943  0.1418 -0.4395
 7179TIP3   OH243171   5.132   1.796   0.902 -0.4491  0.7764  0.8159
 7179TIP3    H143172   5.210   1.824   0.854  1.0944 -0.3489  2.5415
 7179TIP3    H243173   5.073   1.763   0.834  1.0125  0.6309 -0.4449
 7180TIP3   OH243174   3.112   0.421   1.217 -0.6228 -0.4437  0.7830
 7180TIP3    H143175   3.144   0.333   1.193 -0.2491 -0.0009 -0.3958
 7180TIP3    H243176   3.098   0.416   1.311 -0.6267 -1.7831  0.7298
 7181TIP3   OH243177   7.012   2.825   6.016  0.2424 -0.2264 -0.2015
 7181TIP3    H143178   7.090   2.876   6.036  0.0447 -0.0071  0.0150
 7181TIP3    H243179   7.027   2.741   6.061 -0.9794  0.8679  2.5143
 7182TIP3   OH243180   7.000   3.350   7.275  0.7476  0.5535  0.1778
 7182TIP3    H143181   6.974   3.439   7.251  2.5791  1.3188  0.8678
 7182TIP3    H243182   7.068   3.327   7.212  0.0720 -0.5074 -0.1894
 7183TIP3   OH243183   6.290   1.729   6.574 -0.2763 -0.2485 -0.8075
 7183TIP3    H143184   6.296   1.786   6.497  0.5447 -0.7047 -1.0987
 7183TIP3    H243185   6.349   1.656   6.553  0.6747  0.0691  0.6431
 7184TIP3   OH243186   3.800   5.931   0.393 -0.2737 -0.4147  0.3339
 7184TIP3    H143187   3.875   5.935   0.333 -1.5072 -0.2079 -1.2687
 7184TIP3    H243188   3.839   5.942   0.480  1.5045  0.1434 -0.4694
 7185TIP3   OH243189   1.711   4.159   7.092  0.4862 -0.8030  0.3190
 7185TIP3    H143190   1.704   4.215   7.169  2.3852 -0.5386  0.3428
 7185TIP3    H243191   1.803   4.165   7.066  0.5032 -3.0364 -0.3390
 7186TIP3   OH243192   1.005   6.595   1.483 -0.1527  0.6468  0.5671
 7186TIP3    H143193   1.020   6.514   1.433  2.9927  0.8380  0.9821
 7186TIP3    H243194   0.990   6.662   1.416  3.7551  0.8531 -0.3410
 7187TIP3   OH243195   1.142   5.461   0.279  0.2818  0.1701  0.0860
 7187TIP3    H143196   1.069   5.458   0.217  0.7392 -1.4071 -0.4199
 7187TIP3    H243197   1.122   5.536   0.335 -1.8540 -0.3593  0.1336
 7188TIP3   OH243198   4.459   5.860   5.921  0.0913  0.5047  0.4678
 7188TIP3    H143199   4.430   5.930   5.862  0.5989  0.4321  0.1289
 7188TIP3    H243200   4.471   5.903   6.006  1.7935  1.1606 -0.0600
 7189TIP3   OH243201   1.671   5.618   1.654 -0.2718 -0.1745  0.2053
 7189TIP3    H143202   1.679   5.705   1.615  0.0769 -0.2018  0.2162
 7189TIP3    H243203   1.653   5.635   1.747 -0.1140 -0.1165  0.2244
 7190TIP3   OH243204   0.320   2.568   2.414  0.1162 -0.0385  0.2243
 7190TIP3    H143205   0.377   2.499   2.379 -1.0955 -1.1765  0.4300
 7190TIP3    H243206   0.380   2.626   2.461  1.1715 -0.9436  0.0409
   7.12725   7.12725   8.13462
